GROningen MAchine for Chemical Simulation
95940
    1G5    HO5'    1   3.603   7.082   3.640
    1G5     O5'    2   3.604   7.154   3.576
    1G5     C5'    3   3.543   7.119   3.455
    1G5     H5'    4   3.472   7.193   3.419
    1G5    H5''    5   3.484   7.029   3.476
    1G5     C4'    6   3.635   7.090   3.339
    1G5     H4'    7   3.575   7.063   3.252
    1G5     O4'    8   3.713   7.198   3.292
    1G5     C1'    9   3.851   7.160   3.279
    1G5     H1'   10   3.910   7.201   3.197
    1G5      N9   11   3.926   7.214   3.395
    1G5      C8   12   3.885   7.300   3.497
    1G5      H8   13   3.785   7.340   3.495
    1G5      N7   14   3.975   7.323   3.590
    1G5      C5   15   4.088   7.253   3.545
    1G5      C6   16   4.229   7.251   3.590
    1G5      O6   17   4.276   7.295   3.694
    1G5      N1   18   4.318   7.194   3.499
    1G5      H1   19   4.414   7.196   3.530
    1G5      C2   20   4.284   7.132   3.388
    1G5      N2   21   4.379   7.081   3.324
    1G5     H21   22   4.467   7.067   3.371
    1G5     H22   23   4.340   7.016   3.257
    1G5      N3   24   4.161   7.139   3.342
    1G5      C4   25   4.064   7.197   3.420
    1G5     C3'   26   3.730   6.971   3.368
    1G5     H3'   27   3.758   6.967   3.474
    1G5     C2'   28   3.854   7.008   3.284
    1G5     H2'   29   3.941   6.959   3.328
    1G5     O2'   30   3.836   6.958   3.157
    1G5    HO2'   31   3.765   6.896   3.177
    1G5     O3'   32   3.669   6.858   3.312
    2G        P   33   3.652   6.723   3.394
    2G      OP1   34   3.584   6.628   3.304
    2G      OP2   35   3.602   6.753   3.527
    2G      O5'   36   3.804   6.677   3.426
    2G      C5'   37   3.877   6.613   3.322
    2G      H5'   38   3.862   6.655   3.222
    2G     H5''   39   3.849   6.508   3.330
    2G      C4'   40   4.027   6.618   3.358
    2G      H4'   41   4.079   6.566   3.276
    2G      O4'   42   4.061   6.756   3.379
    2G      C1'   43   4.184   6.755   3.454
    2G      H1'   44   4.277   6.787   3.408
    2G       N9   45   4.174   6.838   3.574
    2G       C8   46   4.060   6.894   3.627
    2G       H8   47   3.968   6.896   3.569
    2G       N7   48   4.084   6.940   3.749
    2G       C5   49   4.214   6.912   3.776
    2G       C6   50   4.302   6.946   3.881
    2G       O6   51   4.275   7.006   3.984
    2G       N1   52   4.434   6.917   3.863
    2G       H1   53   4.493   6.931   3.944
    2G       C2   54   4.480   6.847   3.758
    2G       N2   55   4.608   6.815   3.751
    2G      H21   56   4.655   6.834   3.839
    2G      H22   57   4.647   6.752   3.683
    2G       N3   58   4.405   6.832   3.647
    2G       C4   59   4.270   6.859   3.663
    2G      C3'   60   4.072   6.550   3.484
    2G      H3'   61   4.012   6.596   3.562
    2G      C2'   62   4.209   6.612   3.500
    2G      H2'   63   4.246   6.606   3.603
    2G      O2'   64   4.301   6.543   3.420
    2G     HO2'   65   4.272   6.452   3.408
    2G      O3'   66   4.067   6.410   3.459
    3G        P   67   4.042   6.325   3.590
    3G      OP1   68   4.053   6.181   3.551
    3G      OP2   69   3.917   6.371   3.647
    3G      O5'   70   4.165   6.348   3.695
    3G      C5'   71   4.293   6.310   3.668
    3G      H5'   72   4.319   6.353   3.571
    3G     H5''   73   4.304   6.203   3.650
    3G      C4'   74   4.398   6.365   3.768
    3G      H4'   75   4.488   6.325   3.720
    3G      O4'   76   4.388   6.506   3.770
    3G      C1'   77   4.389   6.556   3.896
    3G      H1'   78   4.467   6.631   3.906
    3G       N9   79   4.251   6.606   3.939
    3G       C8   80   4.132   6.602   3.874
    3G       H8   81   4.122   6.551   3.780
    3G       N7   82   4.042   6.670   3.934
    3G       C5   83   4.103   6.712   4.051
    3G       C6   84   4.059   6.800   4.163
    3G       O6   85   3.952   6.871   4.162
    3G       N1   86   4.139   6.807   4.263
    3G       H1   87   4.122   6.874   4.337
    3G       C2   88   4.260   6.751   4.267
    3G       N2   89   4.336   6.772   4.370
    3G      H21   90   4.290   6.825   4.443
    3G      H22   91   4.425   6.725   4.381
    3G       N3   92   4.311   6.676   4.169
    3G       C4   93   4.225   6.657   4.064
    3G      C3'   94   4.394   6.318   3.912
    3G      H3'   95   4.298   6.286   3.953
    3G      C2'   96   4.438   6.442   3.986
    3G      H2'   97   4.395   6.429   4.085
    3G      O2'   98   4.580   6.462   3.993
    3G     HO2'   99   4.629   6.380   3.997
    3G      O3'  100   4.489   6.218   3.930
    4U        P  101   4.472   6.118   4.060
    4U      OP1  102   4.595   6.039   4.077
    4U      OP2  103   4.344   6.043   4.040
    4U      O5'  104   4.461   6.208   4.180
    4U      C5'  105   4.571   6.252   4.262
    4U      H5'  106   4.634   6.325   4.211
    4U     H5''  107   4.630   6.164   4.287
    4U      C4'  108   4.527   6.306   4.401
    4U      H4'  109   4.610   6.324   4.469
    4U      O4'  110   4.433   6.413   4.380
    4U      C1'  111   4.331   6.409   4.490
    4U      H1'  112   4.339   6.490   4.563
    4U       N1  113   4.198   6.411   4.419
    4U       C6  114   4.178   6.366   4.289
    4U       H6  115   4.257   6.308   4.242
    4U       C5  116   4.075   6.402   4.218
    4U       H5  117   4.077   6.365   4.116
    4U       C4  118   3.973   6.484   4.273
    4U       O4  119   3.878   6.538   4.223
    4U       N3  120   3.984   6.506   4.409
    4U       H3  121   3.905   6.547   4.457
    4U       C2  122   4.094   6.476   4.485
    4U       O2  123   4.100   6.525   4.598
    4U      C3'  124   4.444   6.197   4.469
    4U      H3'  125   4.374   6.159   4.394
    4U      C2'  126   4.360   6.278   4.566
    4U      H2'  127   4.265   6.227   4.576
    4U      O2'  128   4.430   6.301   4.690
    4U     HO2'  129   4.500   6.236   4.698
    4U      O3'  130   4.517   6.085   4.529
    5U        P  131   4.454   5.943   4.566
    5U      OP1  132   4.555   5.857   4.630
    5U      OP2  133   4.389   5.896   4.442
    5U      O5'  134   4.336   5.972   4.671
    5U      C5'  135   4.352   5.996   4.808
    5U      H5'  136   4.420   6.079   4.827
    5U     H5''  137   4.392   5.906   4.856
    5U      C4'  138   4.219   6.039   4.879
    5U      H4'  139   4.235   6.075   4.980
    5U      O4'  140   4.173   6.155   4.804
    5U      C1'  141   4.030   6.161   4.818
    5U      H1'  142   4.017   6.243   4.888
    5U       N1  143   3.960   6.192   4.685
    5U       C6  144   4.001   6.137   4.568
    5U       H6  145   4.084   6.067   4.574
    5U       C5  146   3.940   6.162   4.451
    5U       H5  147   3.956   6.110   4.358
    5U       C4  148   3.828   6.245   4.445
    5U       O4  149   3.766   6.270   4.342
    5U       N3  150   3.785   6.289   4.573
    5U       H3  151   3.705   6.351   4.570
    5U       C2  152   3.848   6.268   4.693
    5U       O2  153   3.810   6.325   4.795
    5U      C3'  154   4.105   5.934   4.858
    5U      H3'  155   4.089   5.905   4.754
    5U      C2'  156   3.986   6.030   4.883
    5U      H2'  157   3.903   5.980   4.832
    5U      O2'  158   3.948   6.050   5.022
    5U     HO2'  159   3.913   5.970   5.061
    5U      O3'  160   4.108   5.817   4.938
    6A        P  161   4.130   5.680   4.870
    6A      OP1  162   4.136   5.572   4.973
    6A      OP2  163   4.226   5.683   4.756
    6A      O5'  164   3.985   5.676   4.800
    6A      C5'  165   3.865   5.654   4.874
    6A      H5'  166   3.851   5.735   4.945
    6A     H5''  167   3.891   5.575   4.944
    6A      C4'  168   3.735   5.616   4.796
    6A      H4'  169   3.666   5.580   4.872
    6A      O4'  170   3.685   5.720   4.719
    6A      C1'  171   3.655   5.674   4.590
    6A      H1'  172   3.560   5.707   4.549
    6A       N9  173   3.757   5.736   4.507
    6A       C8  174   3.865   5.805   4.550
    6A       H8  175   3.873   5.842   4.651
    6A       N7  176   3.946   5.843   4.455
    6A       C5  177   3.891   5.780   4.337
    6A       C6  178   3.931   5.772   4.204
    6A       N6  179   4.040   5.820   4.152
    6A      H61  180   4.083   5.795   4.065
    6A      H62  181   4.091   5.878   4.218
    6A       N1  182   3.870   5.693   4.115
    6A       C2  183   3.766   5.625   4.162
    6A       H2  184   3.714   5.566   4.088
    6A       N3  185   3.719   5.620   4.286
    6A       C4  186   3.785   5.709   4.374
    6A      C3'  187   3.760   5.496   4.697
    6A      H3'  188   3.859   5.497   4.652
    6A      C2'  189   3.660   5.521   4.583
    6A      H2'  190   3.706   5.488   4.490
    6A      O2'  191   3.533   5.457   4.608
    6A     HO2'  192   3.503   5.475   4.698
    6A      O3'  193   3.726   5.372   4.756
    7G        P  194   3.814   5.245   4.747
    7G      OP1  195   3.748   5.137   4.826
    7G      OP2  196   3.953   5.283   4.780
    7G      O5'  197   3.822   5.196   4.592
    7G      C5'  198   3.706   5.128   4.532
    7G      H5'  199   3.622   5.194   4.552
    7G     H5''  200   3.696   5.036   4.589
    7G      C4'  201   3.726   5.114   4.379
    7G      H4'  202   3.657   5.039   4.341
    7G      O4'  203   3.716   5.237   4.308
    7G      C1'  204   3.818   5.243   4.210
    7G      H1'  205   3.784   5.274   4.111
    7G       N9  206   3.919   5.345   4.242
    7G       C8  207   3.946   5.400   4.368
    7G       H8  208   3.904   5.368   4.462
    7G       N7  209   4.042   5.489   4.366
    7G       C5  210   4.084   5.489   4.236
    7G       C6  211   4.204   5.547   4.176
    7G       O6  212   4.277   5.632   4.220
    7G       N1  213   4.226   5.511   4.046
    7G       H1  214   4.296   5.555   3.988
    7G       C2  215   4.144   5.428   3.977
    7G       N2  216   4.184   5.383   3.859
    7G      H21  217   4.281   5.401   3.840
    7G      H22  218   4.129   5.330   3.793
    7G       N3  219   4.042   5.357   4.037
    7G       C4  220   4.014   5.397   4.160
    7G      C3'  221   3.871   5.051   4.347
    7G      H3'  222   3.943   5.085   4.422
    7G      C2'  223   3.885   5.103   4.206
    7G      H2'  224   3.987   5.106   4.166
    7G      O2'  225   3.807   5.034   4.109
    7G     HO2'  226   3.815   4.940   4.126
    7G      O3'  227   3.852   4.911   4.356
    8G        P  228   3.958   4.813   4.431
    8G      OP1  229   3.906   4.676   4.411
    8G      OP2  230   3.979   4.859   4.566
    8G      O5'  231   4.098   4.829   4.352
    8G      C5'  232   4.107   4.784   4.218
    8G      H5'  233   4.019   4.815   4.163
    8G     H5''  234   4.124   4.677   4.200
    8G      C4'  235   4.237   4.850   4.154
    8G      H4'  236   4.248   4.814   4.052
    8G      O4'  237   4.218   4.986   4.143
    8G      C1'  238   4.336   5.059   4.153
    8G      H1'  239   4.360   5.106   4.057
    8G       N9  240   4.330   5.164   4.253
    8G       C8  241   4.265   5.158   4.373
    8G       H8  242   4.211   5.067   4.394
    8G       N7  243   4.279   5.256   4.451
    8G       C5  244   4.362   5.342   4.380
    8G       C6  245   4.428   5.465   4.421
    8G       O6  246   4.415   5.528   4.528
    8G       N1  247   4.501   5.531   4.323
    8G       H1  248   4.532   5.627   4.329
    8G       C2  249   4.528   5.463   4.203
    8G       N2  250   4.585   5.539   4.112
    8G      H21  251   4.585   5.638   4.132
    8G      H22  252   4.599   5.506   4.017
    8G       N3  253   4.485   5.344   4.162
    8G       C4  254   4.390   5.292   4.252
    8G      C3'  255   4.368   4.836   4.227
    8G      H3'  256   4.353   4.832   4.335
    8G      C2'  257   4.449   4.961   4.185
    8G      H2'  258   4.512   4.987   4.270
    8G      O2'  259   4.518   4.949   4.060
    8G     HO2'  260   4.613   4.946   4.076
    8G      O3'  261   4.426   4.716   4.189
    9G        P  262   4.530   4.633   4.274
    9G      OP1  263   4.550   4.505   4.204
    9G      OP2  264   4.488   4.625   4.415
    9G      O5'  265   4.671   4.718   4.266
    9G      C5'  266   4.762   4.717   4.149
    9G      H5'  267   4.703   4.732   4.059
    9G     H5''  268   4.832   4.634   4.157
    9G      C4'  269   4.865   4.833   4.163
    9G      H4'  270   4.932   4.825   4.077
    9G      O4'  271   4.792   4.956   4.170
    9G      C1'  272   4.852   5.041   4.260
    9G      H1'  273   4.887   5.122   4.195
    9G       N9  274   4.762   5.098   4.361
    9G       C8  275   4.673   5.031   4.444
    9G       H8  276   4.654   4.926   4.433
    9G       N7  277   4.610   5.106   4.532
    9G       C5  278   4.672   5.230   4.514
    9G       C6  279   4.664   5.353   4.587
    9G       O6  280   4.604   5.373   4.692
    9G       N1  281   4.738   5.456   4.547
    9G       H1  282   4.727   5.545   4.593
    9G       C2  283   4.834   5.444   4.449
    9G       N2  284   4.901   5.555   4.423
    9G      H21  285   4.897   5.624   4.497
    9G      H22  286   4.983   5.543   4.366
    9G       N3  287   4.845   5.332   4.372
    9G       C4  288   4.766   5.229   4.413
    9G      C3'  289   4.952   4.819   4.292
    9G      H3'  290   4.890   4.775   4.370
    9G      C2'  291   4.976   4.971   4.324
    9G      H2'  292   4.982   4.984   4.432
    9G      O2'  293   5.088   5.016   4.266
    9G     HO2'  294   5.162   4.969   4.305
    9G      O3'  295   5.075   4.754   4.264
   10U        P  296   5.180   4.735   4.384
   10U      OP1  297   5.276   4.635   4.329
   10U      OP2  298   5.105   4.693   4.500
   10U      O5'  299   5.271   4.864   4.408
   10U      C5'  300   5.376   4.905   4.325
   10U      H5'  301   5.343   4.931   4.225
   10U     H5''  302   5.450   4.826   4.317
   10U      C4'  303   5.429   5.038   4.394
   10U      H4'  304   5.515   5.081   4.343
   10U      O4'  305   5.326   5.139   4.403
   10U      C1'  306   5.364   5.237   4.493
   10U      H1'  307   5.416   5.321   4.448
   10U       N1  308   5.253   5.297   4.555
   10U       C6  309   5.167   5.218   4.622
   10U       H6  310   5.180   5.111   4.616
   10U       C5  311   5.064   5.277   4.685
   10U       H5  312   4.997   5.218   4.744
   10U       C4  313   5.042   5.420   4.691
   10U       O4  314   4.952   5.477   4.747
   10U       N3  315   5.151   5.496   4.639
   10U       H3  316   5.159   5.596   4.647
   10U       C2  317   5.256   5.438   4.569
   10U       O2  318   5.345   5.508   4.521
   10U      C3'  319   5.463   5.024   4.546
   10U      H3'  320   5.383   4.967   4.594
   10U      C2'  321   5.458   5.166   4.592
   10U      H2'  322   5.428   5.176   4.697
   10U      O2'  323   5.584   5.227   4.588
   10U     HO2'  324   5.631   5.179   4.657
   10U      O3'  325   5.589   4.966   4.574
   11U        P  326   5.626   4.910   4.719
   11U      OP1  327   5.726   4.802   4.703
   11U      OP2  328   5.505   4.883   4.800
   11U      O5'  329   5.702   5.030   4.786
   11U      C5'  330   5.836   5.049   4.772
   11U      H5'  331   5.857   5.060   4.666
   11U     H5''  332   5.894   4.961   4.798
   11U      C4'  333   5.886   5.176   4.845
   11U      H4'  334   5.992   5.193   4.822
   11U      O4'  335   5.800   5.281   4.806
   11U      C1'  336   5.800   5.374   4.905
   11U      H1'  337   5.856   5.461   4.871
   11U       N1  338   5.663   5.415   4.933
   11U       C6  339   5.551   5.329   4.920
   11U       H6  340   5.576   5.227   4.896
   11U       C5  341   5.423   5.367   4.926
   11U       H5  342   5.343   5.297   4.910
   11U       C4  343   5.396   5.508   4.956
   11U       O4  344   5.291   5.557   4.979
   11U       N3  345   5.503   5.590   4.957
   11U       H3  346   5.478   5.687   4.973
   11U       C2  347   5.636   5.553   4.951
   11U       O2  348   5.721   5.639   4.945
   11U      C3'  349   5.875   5.164   4.993
   11U      H3'  350   5.782   5.110   5.012
   11U      C2'  351   5.872   5.314   5.028
   11U      H2'  352   5.832   5.325   5.128
   11U      O2'  353   6.002   5.363   5.031
   11U     HO2'  354   6.062   5.288   5.034
   11U      O3'  355   5.992   5.096   5.047
   12A        P  356   5.972   4.996   5.163
   12A      OP1  357   6.111   4.954   5.202
   12A      OP2  358   5.881   4.890   5.109
   12A      O5'  359   5.902   5.072   5.284
   12A      C5'  360   5.968   5.164   5.370
   12A      H5'  361   6.022   5.236   5.309
   12A     H5''  362   6.026   5.119   5.450
   12A      C4'  363   5.870   5.258   5.446
   12A      H4'  364   5.929   5.322   5.512
   12A      O4'  365   5.789   5.332   5.358
   12A      C1'  366   5.657   5.340   5.402
   12A      H1'  367   5.625   5.444   5.410
   12A       N9  368   5.565   5.282   5.310
   12A       C8  369   5.582   5.186   5.219
   12A       H8  370   5.675   5.134   5.204
   12A       N7  371   5.471   5.151   5.154
   12A       C5  372   5.371   5.230   5.208
   12A       C6  373   5.234   5.251   5.185
   12A       N6  374   5.170   5.181   5.099
   12A      H61  375   5.071   5.188   5.082
   12A      H62  376   5.226   5.133   5.029
   12A       N1  377   5.160   5.333   5.271
   12A       C2  378   5.229   5.403   5.360
   12A       H2  379   5.169   5.479   5.407
   12A       N3  380   5.354   5.392   5.396
   12A       C4  381   5.426   5.307   5.312
   12A      C3'  382   5.767   5.175   5.528
   12A      H3'  383   5.739   5.089   5.468
   12A      C2'  384   5.658   5.280   5.543
   12A      H2'  385   5.571   5.218   5.563
   12A      O2'  386   5.682   5.386   5.645
   12A     HO2'  387   5.760   5.378   5.699
   12A      O3'  388   5.825   5.130   5.654
   13G        P  389   5.754   5.007   5.726
   13G      OP1  390   5.812   4.989   5.863
   13G      OP2  391   5.742   4.891   5.632
   13G      O5'  392   5.600   5.052   5.757
   13G      C5'  393   5.561   5.154   5.855
   13G      H5'  394   5.616   5.244   5.828
   13G     H5''  395   5.586   5.117   5.954
   13G      C4'  396   5.408   5.161   5.838
   13G      H4'  397   5.371   5.221   5.922
   13G      O4'  398   5.360   5.217   5.722
   13G      C1'  399   5.232   5.158   5.695
   13G      H1'  400   5.155   5.234   5.705
   13G       N9  401   5.229   5.094   5.562
   13G       C8  402   5.323   5.042   5.483
   13G       H8  403   5.426   5.036   5.514
   13G       N7  404   5.293   4.985   5.376
   13G       C5  405   5.158   4.999   5.373
   13G       C6  406   5.060   4.949   5.278
   13G       O6  407   5.072   4.889   5.169
   13G       N1  408   4.926   4.975   5.327
   13G       H1  409   4.848   4.926   5.286
   13G       C2  410   4.895   5.042   5.434
   13G       N2  411   4.771   5.031   5.471
   13G      H21  412   4.707   4.965   5.429
   13G      H22  413   4.743   5.078   5.557
   13G       N3  414   4.985   5.087   5.522
   13G       C4  415   5.116   5.065   5.487
   13G      C3'  416   5.335   5.026   5.854
   13G      H3'  417   5.374   4.962   5.775
   13G      C2'  418   5.197   5.063   5.811
   13G      H2'  419   5.132   4.981   5.779
   13G      O2'  420   5.127   5.143   5.903
   13G     HO2'  421   5.147   5.096   5.985
   13G      O3'  422   5.331   4.970   5.974
   14G        P  423   5.340   4.815   6.001
   14G      OP1  424   5.338   4.791   6.145
   14G      OP2  425   5.444   4.760   5.908
   14G      O5'  426   5.200   4.774   5.947
   14G      C5'  427   5.073   4.801   6.006
   14G      H5'  428   5.068   4.909   6.017
   14G     H5''  429   5.064   4.758   6.106
   14G      C4'  430   4.964   4.738   5.924
   14G      H4'  431   4.876   4.740   5.989
   14G      O4'  432   4.936   4.806   5.805
   14G      C1'  433   4.909   4.720   5.699
   14G      H1'  434   4.822   4.756   5.645
   14G       N9  435   5.020   4.708   5.600
   14G       C8  436   5.147   4.748   5.602
   14G       H8  437   5.187   4.800   5.687
   14G       N7  438   5.215   4.714   5.500
   14G       C5  439   5.118   4.656   5.412
   14G       C6  440   5.124   4.610   5.282
   14G       O6  441   5.224   4.617   5.200
   14G       N1  442   5.008   4.553   5.236
   14G       H1  443   4.998   4.545   5.136
   14G       C2  444   4.897   4.541   5.313
   14G       N2  445   4.793   4.495   5.249
   14G      H21  446   4.790   4.488   5.148
   14G      H22  447   4.707   4.505   5.301
   14G       N3  448   4.883   4.587   5.433
   14G       C4  449   5.000   4.640   5.481
   14G      C3'  450   4.993   4.595   5.877
   14G      H3'  451   5.094   4.581   5.839
   14G      C2'  452   4.891   4.581   5.760
   14G      H2'  453   4.915   4.502   5.689
   14G      O2'  454   4.765   4.557   5.813
   14G     HO2'  455   4.778   4.514   5.898
   14G      O3'  456   4.967   4.501   5.979
   15G        P  457   5.030   4.360   5.985
   15G      OP1  458   4.971   4.285   6.099
   15G      OP2  459   5.177   4.372   5.969
   15G      O5'  460   4.981   4.292   5.850
   15G      C5'  461   4.859   4.230   5.839
   15G      H5'  462   4.771   4.287   5.868
   15G     H5''  463   4.848   4.146   5.907
   15G      C4'  464   4.833   4.181   5.696
   15G      H4'  465   4.735   4.134   5.700
   15G      O4'  466   4.854   4.290   5.601
   15G      C1'  467   4.916   4.233   5.485
   15G      H1'  468   4.864   4.258   5.393
   15G       N9  469   5.060   4.274   5.472
   15G       C8  470   5.136   4.338   5.565
   15G       H8  471   5.100   4.365   5.663
   15G       N7  472   5.255   4.386   5.523
   15G       C5  473   5.259   4.342   5.394
   15G       C6  474   5.359   4.361   5.288
   15G       O6  475   5.470   4.413   5.293
   15G       N1  476   5.318   4.311   5.172
   15G       H1  477   5.380   4.314   5.091
   15G       C2  478   5.195   4.248   5.147
   15G       N2  479   5.175   4.179   5.040
   15G      H21  480   5.253   4.173   4.976
   15G      H22  481   5.101   4.111   5.050
   15G       N3  482   5.107   4.221   5.242
   15G       C4  483   5.139   4.275   5.364
   15G      C3'  484   4.918   4.060   5.644
   15G      H3'  485   5.018   4.070   5.686
   15G      C2'  486   4.916   4.082   5.494
   15G      H2'  487   5.004   4.045   5.441
   15G      O2'  488   4.797   4.038   5.442
   15G     HO2'  489   4.765   3.953   5.473
   15G      O3'  490   4.860   3.940   5.662
   16U        P  491   4.954   3.819   5.709
   16U      OP1  492   4.850   3.717   5.733
   16U      OP2  493   5.053   3.863   5.804
   16U      O5'  494   5.027   3.792   5.569
   16U      C5'  495   4.969   3.729   5.458
   16U      H5'  496   4.875   3.779   5.433
   16U     H5''  497   4.945   3.626   5.483
   16U      C4'  498   5.063   3.737   5.338
   16U      H4'  499   5.029   3.690   5.246
   16U      O4'  500   5.100   3.875   5.315
   16U      C1'  501   5.232   3.871   5.262
   16U      H1'  502   5.229   3.914   5.161
   16U       N1  503   5.332   3.954   5.332
   16U       C6  504   5.317   3.966   5.469
   16U       H6  505   5.241   3.910   5.523
   16U       C5  506   5.406   4.039   5.536
   16U       H5  507   5.408   4.045   5.644
   16U       C4  508   5.515   4.116   5.469
   16U       O4  509   5.593   4.196   5.522
   16U       N3  510   5.517   4.102   5.333
   16U       H3  511   5.574   4.171   5.286
   16U       C2  512   5.427   4.021   5.263
   16U       O2  513   5.429   4.027   5.141
   16U      C3'  514   5.195   3.667   5.365
   16U      H3'  515   5.231   3.684   5.467
   16U      C2'  516   5.289   3.730   5.264
   16U      H2'  517   5.390   3.723   5.305
   16U      O2'  518   5.280   3.678   5.130
   16U     HO2'  519   5.343   3.606   5.124
   16U      O3'  520   5.187   3.530   5.348
   17U        P  521   5.299   3.439   5.405
   17U      OP1  522   5.234   3.306   5.413
   17U      OP2  523   5.358   3.495   5.531
   17U      O5'  524   5.414   3.436   5.294
   17U      C5'  525   5.429   3.330   5.193
   17U      H5'  526   5.340   3.323   5.130
   17U     H5''  527   5.439   3.236   5.245
   17U      C4'  528   5.558   3.354   5.109
   17U      H4'  529   5.557   3.274   5.036
   17U      O4'  530   5.554   3.486   5.050
   17U      C1'  531   5.687   3.531   5.045
   17U      H1'  532   5.703   3.557   4.940
   17U       N1  533   5.721   3.653   5.125
   17U       C6  534   5.654   3.679   5.238
   17U       H6  535   5.592   3.608   5.291
   17U       C5  536   5.684   3.795   5.302
   17U       H5  537   5.635   3.817   5.396
   17U       C4  538   5.792   3.883   5.271
   17U       O4  539   5.827   3.974   5.337
   17U       N3  540   5.859   3.843   5.157
   17U       H3  541   5.939   3.897   5.125
   17U       C2  542   5.831   3.733   5.078
   17U       O2  543   5.892   3.715   4.975
   17U      C3'  544   5.689   3.355   5.192
   17U      H3'  545   5.676   3.419   5.279
   17U      C2'  546   5.778   3.422   5.087
   17U      H2'  547   5.872   3.455   5.129
   17U      O2'  548   5.807   3.331   4.981
   17U     HO2'  549   5.851   3.254   5.017
   17U      O3'  550   5.747   3.228   5.221
   18A        P  551   5.790   3.191   5.374
   18A      OP1  552   5.821   3.045   5.370
   18A      OP2  553   5.684   3.237   5.467
   18A      O5'  554   5.923   3.280   5.398
   18A      C5'  555   6.040   3.268   5.325
   18A      H5'  556   6.017   3.273   5.218
   18A     H5''  557   6.091   3.175   5.351
   18A      C4'  558   6.138   3.380   5.350
   18A      H4'  559   6.227   3.375   5.288
   18A      O4'  560   6.082   3.513   5.324
   18A      C1'  561   6.108   3.592   5.440
   18A      H1'  562   6.136   3.693   5.411
   18A       N9  563   5.976   3.596   5.519
   18A       C8  564   5.852   3.550   5.488
   18A       H8  565   5.836   3.481   5.406
   18A       N7  566   5.754   3.598   5.558
   18A       C5  567   5.825   3.678   5.650
   18A       C6  568   5.793   3.760   5.759
   18A       N6  569   5.672   3.777   5.806
   18A      H61  570   5.671   3.845   5.881
   18A      H62  571   5.594   3.742   5.752
   18A       N1  572   5.874   3.833   5.830
   18A       C2  573   6.001   3.812   5.798
   18A       H2  574   6.076   3.868   5.852
   18A       N3  575   6.056   3.746   5.701
   18A       C4  576   5.960   3.682   5.624
   18A      C3'  577   6.189   3.381   5.495
   18A      H3'  578   6.111   3.354   5.566
   18A      C2'  579   6.224   3.524   5.513
   18A      H2'  580   6.231   3.553   5.618
   18A      O2'  581   6.340   3.564   5.443
   18A     HO2'  582   6.417   3.541   5.495
   18A      O3'  583   6.301   3.305   5.527
   19G        P  584   6.285   3.186   5.632
   19G      OP1  585   6.415   3.116   5.654
   19G      OP2  586   6.169   3.104   5.609
   19G      O5'  587   6.252   3.271   5.764
   19G      C5'  588   6.348   3.361   5.830
   19G      H5'  589   6.384   3.436   5.759
   19G     H5''  590   6.438   3.306   5.858
   19G      C4'  591   6.297   3.422   5.963
   19G      H4'  592   6.379   3.470   6.017
   19G      O4'  593   6.196   3.524   5.945
   19G      C1'  594   6.097   3.505   6.048
   19G      H1'  595   6.089   3.602   6.097
   19G       N9  596   5.962   3.470   5.990
   19G       C8  597   5.944   3.415   5.869
   19G       H8  598   6.019   3.378   5.801
   19G       N7  599   5.817   3.408   5.840
   19G       C5  600   5.756   3.460   5.950
   19G       C6  601   5.617   3.491   5.970
   19G       O6  602   5.523   3.489   5.898
   19G       N1  603   5.592   3.538   6.099
   19G       H1  604   5.494   3.548   6.120
   19G       C2  605   5.685   3.548   6.195
   19G       N2  606   5.638   3.567   6.312
   19G      H21  607   5.542   3.585   6.337
   19G      H22  608   5.711   3.555   6.382
   19G       N3  609   5.814   3.523   6.179
   19G       C4  610   5.842   3.477   6.050
   19G      C3'  611   6.236   3.309   6.056
   19G      H3'  612   6.172   3.246   5.994
   19G      C2'  613   6.146   3.401   6.143
   19G      H2'  614   6.063   3.349   6.191
   19G      O2'  615   6.212   3.463   6.254
   19G     HO2'  616   6.268   3.398   6.298
   19G      O3'  617   6.331   3.238   6.144
   20G        P  618   6.307   3.085   6.168
   20G      OP1  619   6.406   3.032   6.260
   20G      OP2  620   6.292   3.026   6.032
   20G      O5'  621   6.160   3.076   6.247
   20G      C5'  622   6.152   3.124   6.380
   20G      H5'  623   6.205   3.219   6.381
   20G     H5''  624   6.208   3.056   6.444
   20G      C4'  625   6.006   3.142   6.425
   20G      H4'  626   6.002   3.171   6.530
   20G      O4'  627   5.922   3.237   6.353
   20G      C1'  628   5.792   3.191   6.347
   20G      H1'  629   5.717   3.264   6.379
   20G       N9  630   5.769   3.155   6.205
   20G       C8  631   5.858   3.112   6.111
   20G       H8  632   5.965   3.104   6.116
   20G       N7  633   5.804   3.099   5.993
   20G       C5  634   5.672   3.136   6.011
   20G       C6  635   5.563   3.161   5.922
   20G       O6  636   5.563   3.154   5.803
   20G       N1  637   5.454   3.220   5.980
   20G       H1  638   5.385   3.259   5.919
   20G       C2  639   5.442   3.230   6.117
   20G       N2  640   5.331   3.289   6.154
   20G      H21  641   5.271   3.336   6.087
   20G      H22  642   5.327   3.317   6.251
   20G       N3  643   5.540   3.202   6.204
   20G       C4  644   5.651   3.165   6.138
   20G      C3'  645   5.935   3.002   6.420
   20G      H3'  646   5.945   2.961   6.319
   20G      C2'  647   5.796   3.063   6.430
   20G      H2'  648   5.718   2.997   6.393
   20G      O2'  649   5.757   3.108   6.562
   20G     HO2'  650   5.767   3.031   6.618
   20G      O3'  651   5.976   2.911   6.526
   21G3       P  652   5.972   2.757   6.504
   21G3     OP1  653   6.020   2.697   6.628
   21G3     OP2  654   6.045   2.734   6.379
   21G3     O5'  655   5.819   2.726   6.487
   21G3     C5'  656   5.732   2.748   6.594
   21G3     H5'  657   5.745   2.843   6.647
   21G3    H5''  658   5.751   2.672   6.670
   21G3     C4'  659   5.590   2.735   6.536
   21G3     H4'  660   5.526   2.745   6.624
   21G3     O4'  661   5.551   2.837   6.444
   21G3     C1'  662   5.464   2.783   6.343
   21G3     H1'  663   5.368   2.833   6.328
   21G3      N9  664   5.539   2.784   6.214
   21G3      C8  665   5.670   2.755   6.183
   21G3      H8  666   5.745   2.725   6.255
   21G3      N7  667   5.703   2.768   6.058
   21G3      C5  668   5.583   2.801   5.998
   21G3      C6  669   5.534   2.818   5.863
   21G3      O6  670   5.603   2.811   5.760
   21G3      N1  671   5.405   2.869   5.848
   21G3      H1  672   5.377   2.896   5.754
   21G3      C2  673   5.326   2.881   5.959
   21G3      N2  674   5.210   2.941   5.936
   21G3     H21  675   5.174   2.976   5.849
   21G3     H22  676   5.149   2.942   6.017
   21G3      N3  677   5.350   2.843   6.081
   21G3      C4  678   5.485   2.809   6.091
   21G3     C3'  679   5.569   2.599   6.471
   21G3     H3'  680   5.651   2.571   6.404
   21G3     C2'  681   5.443   2.639   6.393
   21G3     H2'  682   5.421   2.579   6.304
   21G3     O2'  683   5.327   2.629   6.478
   21G3    HO2'  684   5.305   2.536   6.483
   21G3     O3'  685   5.561   2.491   6.555
   21G3    HO3'  686   5.499   2.513   6.625
   22Cl-    Cl-  687   0.092   9.138   2.271
   23Cl-    Cl-  688   3.299   5.454   1.819
   24Cl-    Cl-  689   0.452   7.165   1.901
   25Cl-    Cl-  690   1.404   7.226   8.084
   26Cl-    Cl-  691   7.614   6.583   7.477
   27Cl-    Cl-  692   2.160   1.785   8.177
   28Cl-    Cl-  693   3.677   1.752   9.591
   29Cl-    Cl-  694   5.653   1.971   7.439
   30Cl-    Cl-  695   2.661   0.550   7.013
   31Cl-    Cl-  696   0.865   3.465   9.528
   32Cl-    Cl-  697   8.174   8.279   7.226
   33Cl-    Cl-  698   1.983   7.694   6.670
   34Cl-    Cl-  699   2.929   5.886   7.532
   35Cl-    Cl-  700   5.450   3.514   3.892
   36Cl-    Cl-  701   7.960   0.276   2.047
   37Cl-    Cl-  702   6.608   7.894   0.179
   38Cl-    Cl-  703   7.937   7.560   8.175
   39Cl-    Cl-  704   1.625   5.011   0.887
   40Cl-    Cl-  705   4.170   1.987   9.587
   41Cl-    Cl-  706   4.428   4.950   7.601
   42Cl-    Cl-  707   9.189   6.503   2.127
   43Cl-    Cl-  708   8.420   5.947   6.215
   44Cl-    Cl-  709   5.294   9.586   2.743
   45Cl-    Cl-  710   7.404   1.652   1.772
   46Cl-    Cl-  711   4.239   3.749   2.274
   47Cl-    Cl-  712   8.284   8.234   5.074
   48Cl-    Cl-  713   2.795   0.291   0.215
   49Cl-    Cl-  714   6.284   6.569   7.174
   50Cl-    Cl-  715   6.028   7.343   5.205
   51Cl-    Cl-  716   5.041   1.052   3.182
   52Cl-    Cl-  717   9.227   1.147   8.157
   53Cl-    Cl-  718   5.908   5.474   1.364
   54Cl-    Cl-  719   7.182   3.004   3.966
   55Cl-    Cl-  720   7.502   1.501   5.225
   56Cl-    Cl-  721   8.358   8.413   8.624
   57Cl-    Cl-  722   4.834   7.931   2.805
   58Cl-    Cl-  723   4.293   5.296   2.734
   59Cl-    Cl-  724   4.694   5.922   2.001
   60Cl-    Cl-  725   4.605   7.427   8.254
   61Cl-    Cl-  726   7.549   3.514   3.706
   62Cl-    Cl-  727   8.366   2.370   0.581
   63Cl-    Cl-  728   1.556   9.599   2.644
   64Cl-    Cl-  729   2.332   3.760   2.695
   65Cl-    Cl-  730   4.257   6.377   7.093
   66Cl-    Cl-  731   2.130   3.388   4.659
   67Cl-    Cl-  732   1.355   1.532   9.414
   68Cl-    Cl-  733   3.595   6.058   9.615
   69Cl-    Cl-  734   8.433   4.191   1.665
   70Cl-    Cl-  735   5.463   8.620   6.584
   71Cl-    Cl-  736   0.502   3.309   5.565
   72Cl-    Cl-  737   6.604   3.758   2.753
   73Cl-    Cl-  738   3.643   3.166   9.353
   74Cl-    Cl-  739   5.930   2.488   5.522
   75Cl-    Cl-  740   9.706   2.435   2.942
   76Cl-    Cl-  741   1.596   1.344   3.710
   77Cl-    Cl-  742   9.609   9.564   4.306
   78Cl-    Cl-  743   8.435   6.203   0.366
   79Cl-    Cl-  744   1.734   3.647   6.143
   80Cl-    Cl-  745   2.372   3.909   5.933
   81Cl-    Cl-  746   9.451   4.849   3.504
   82Cl-    Cl-  747   0.943   5.110   7.390
   83Cl-    Cl-  748   0.497   2.531   3.241
   84Cl-    Cl-  749   5.440   2.847   4.292
   85Cl-    Cl-  750   1.017   6.348   6.822
   86Cl-    Cl-  751   2.993   0.261   7.997
   87Cl-    Cl-  752   9.174   8.367   5.940
   88Cl-    Cl-  753   4.050   0.414   7.799
   89Cl-    Cl-  754   5.867   5.407   2.823
   90Cl-    Cl-  755   9.134   3.833   8.939
   91Cl-    Cl-  756   7.706   7.218   3.337
   92Cl-    Cl-  757   9.100   1.468   1.579
   93Cl-    Cl-  758   4.705   0.231   5.639
   94Cl-    Cl-  759   5.254   7.463   1.548
   95Cl-    Cl-  760   5.920   7.134   3.320
   96Cl-    Cl-  761   4.339   2.112   3.928
   97Cl-    Cl-  762   0.840   7.851   9.400
   98Cl-    Cl-  763   4.657   2.380   1.193
   99Cl-    Cl-  764   4.186   9.408   2.541
  100Cl-    Cl-  765   1.507   8.670   4.293
  101Cl-    Cl-  766   1.062   1.300   3.218
  102Cl-    Cl-  767   1.378   8.168   6.094
  103Cl-    Cl-  768   0.036   3.479   1.980
  104Cl-    Cl-  769   5.172   8.629   3.759
  105Cl-    Cl-  770   3.583   4.286   0.669
  106Cl-    Cl-  771   5.348   9.467   8.314
  107K+      K+  772   4.908   6.799   9.543
  108K+      K+  773   3.803   4.592   5.895
  109K+      K+  774   8.618   4.893   3.285
  110K+      K+  775   4.877   1.354   8.803
  111K+      K+  776   7.581   7.828   6.978
  112K+      K+  777   5.503   4.504   5.571
  113K+      K+  778   1.581   3.651   5.842
  114K+      K+  779   2.995   4.553   0.174
  115K+      K+  780   7.692   1.205   6.747
  116K+      K+  781   8.036   3.084   0.802
  117K+      K+  782   5.726   1.973   4.152
  118K+      K+  783   5.659   4.623   5.202
  119K+      K+  784   6.077   3.952   3.243
  120K+      K+  785   2.610   4.448   4.472
  121K+      K+  786   3.457   0.413   9.779
  122K+      K+  787   5.866   2.858   5.860
  123K+      K+  788   6.301   0.240   3.575
  124K+      K+  789   4.820   9.461   1.386
  125K+      K+  790   2.801   7.702   1.172
  126K+      K+  791   7.376   5.622   4.475
  127K+      K+  792   6.443   5.830   7.105
  128K+      K+  793   8.220   3.333   6.214
  129K+      K+  794   0.251   6.636   8.161
  130K+      K+  795   0.591   1.298   3.609
  131K+      K+  796   0.609   3.708   3.199
  132K+      K+  797   2.542   5.429   4.340
  133K+      K+  798   8.230   5.093   3.863
  134K+      K+  799   7.811   0.170   2.558
  135K+      K+  800   2.439   5.933   8.932
  136K+      K+  801   8.680   8.733   5.653
  137K+      K+  802   6.688   8.940   6.003
  138K+      K+  803   6.321   2.240   5.322
  139K+      K+  804   5.347   4.858   5.122
  140K+      K+  805   3.861   8.637   4.244
  141K+      K+  806   8.203   8.066   8.016
  142K+      K+  807   4.598   6.827   7.786
  143K+      K+  808   8.348   4.185   0.756
  144K+      K+  809   5.574   3.385   5.662
  145K+      K+  810   0.948   9.022   5.588
  146K+      K+  811   2.353   0.300   0.678
  147K+      K+  812   5.052   9.260   3.036
  148K+      K+  813   6.690   2.730   3.847
  149K+      K+  814   4.062   3.470   1.873
  150K+      K+  815   0.882   8.897   4.301
  151K+      K+  816   7.754   2.333   4.141
  152K+      K+  817   5.614   4.364   6.028
  153K+      K+  818   7.332   6.803   0.144
  154K+      K+  819   7.119   1.228   1.755
  155K+      K+  820   5.478   5.921   1.669
  156K+      K+  821   9.095   6.953   9.522
  157K+      K+  822   5.028   6.348   0.365
  158K+      K+  823   2.416   3.355   7.000
  159K+      K+  824   5.725   2.954   3.242
  160K+      K+  825   8.121   0.822   5.850
  161K+      K+  826   1.962   5.081   4.195
  162K+      K+  827   6.772   7.986   5.850
  163K+      K+  828   3.775   2.643   9.373
  164K+      K+  829   2.394   8.580   4.667
  165K+      K+  830   5.407   9.049   8.140
  166K+      K+  831   2.050   3.453   2.878
  167K+      K+  832   3.131   1.919   3.975
  168K+      K+  833   0.183   3.520   5.867
  169K+      K+  834   8.000   5.995   3.921
  170K+      K+  835   4.356   5.421   4.786
  171K+      K+  836   1.721   8.811   6.599
  172K+      K+  837   5.658   2.965   5.553
  173K+      K+  838   1.555   2.038   2.212
  174K+      K+  839   0.279   3.413   9.634
  175K+      K+  840   4.327   2.694   3.943
  176K+      K+  841   1.042   2.937   0.183
  177K+      K+  842   3.758   6.545   3.989
  178K+      K+  843   0.921   6.106   1.621
  179K+      K+  844   8.764   6.837   2.275
  180K+      K+  845   5.257   2.176   7.449
  181K+      K+  846   6.316   7.246   7.542
  182K+      K+  847   0.781   4.944   0.098
  183K+      K+  848   1.314   9.292   2.972
  184K+      K+  849   0.833   6.010   6.211
  185K+      K+  850   5.163   7.879   6.301
  186K+      K+  851   4.071   5.987   3.728
  187K+      K+  852   6.741   5.899   3.330
  188K+      K+  853   3.603   4.845   1.099
  189K+      K+  854   4.499   6.446   1.797
  190K+      K+  855   4.736   5.550   4.869
  191K+      K+  856   2.625   1.443   1.646
  192K+      K+  857   4.336   6.197   6.749
  193K+      K+  858   9.783   7.792   5.352
  194K+      K+  859   1.820   6.487   6.017
  195K+      K+  860   3.741   7.885   3.385
  196K+      K+  861   4.975   4.363   4.396
  197K+      K+  862   2.761   2.262   8.423
  198K+      K+  863   1.324   0.093   9.388
  199K+      K+  864   6.155   5.196   7.244
  200K+      K+  865   8.440   7.474   4.307
  201K+      K+  866   1.795   7.856   7.602
  202K+      K+  867   4.768   2.859   9.798
  203K+      K+  868   2.731   2.805   1.110
  204K+      K+  869   7.424   6.846   2.891
  205K+      K+  870   3.300   2.623   6.519
  206K+      K+  871   7.344   2.556   8.636
  207K+      K+  872   0.816   3.326   1.794
  208K+      K+  873   3.265   5.274   7.538
  209K+      K+  874   6.624   2.536   6.001
  210K+      K+  875   4.224   5.698   4.487
  211K+      K+  876   9.803   7.291   3.151
  212WAT      O  877   8.668   4.288   0.591
  212WAT     H1  878   8.654   4.358   0.521
  212WAT     H2  879   8.694   4.332   0.677
  213WAT      O  880   3.878   7.117   2.500
  213WAT     H1  881   3.919   7.086   2.413
  213WAT     H2  882   3.781   7.093   2.502
  214WAT      O  883   1.178   4.341   3.405
  214WAT     H1  884   1.256   4.389   3.445
  214WAT     H2  885   1.130   4.401   3.341
  215WAT      O  886   2.735   0.937   0.862
  215WAT     H1  887   2.663   0.994   0.902
  215WAT     H2  888   2.821   0.989   0.860
  216WAT      O  889   6.958   8.688   8.034
  216WAT     H1  890   6.883   8.677   7.969
  216WAT     H2  891   7.040   8.717   7.986
  217WAT      O  892   2.917   0.554   2.179
  217WAT     H1  893   2.899   0.603   2.264
  217WAT     H2  894   2.842   0.570   2.115
  218WAT      O  895   6.038   7.523   1.958
  218WAT     H1  896   6.111   7.475   2.007
  218WAT     H2  897   5.954   7.520   2.012
  219WAT      O  898   8.801   7.837   4.608
  219WAT     H1  899   8.881   7.882   4.648
  219WAT     H2  900   8.725   7.840   4.674
  220WAT      O  901   3.962   8.764   2.418
  220WAT     H1  902   3.931   8.759   2.513
  220WAT     H2  903   4.062   8.762   2.415
  221WAT      O  904   3.406   8.318   4.675
  221WAT     H1  905   3.497   8.292   4.644
  221WAT     H2  906   3.406   8.327   4.775
  222WAT      O  907   5.320   0.450   0.740
  222WAT     H1  908   5.394   0.425   0.678
  222WAT     H2  909   5.245   0.491   0.687
  223WAT      O  910   8.179   4.324   5.541
  223WAT     H1  911   8.207   4.368   5.626
  223WAT     H2  912   8.186   4.225   5.551
  224WAT      O  913   7.846   7.316   7.605
  224WAT     H1  914   7.774   7.248   7.592
  224WAT     H2  915   7.923   7.294   7.545
  225WAT      O  916   5.628   9.834   0.641
  225WAT     H1  917   5.630   9.873   0.733
  225WAT     H2  918   5.586   9.743   0.644
  226WAT      O  919   9.744   2.033   5.236
  226WAT     H1  920   9.652   1.995   5.235
  226WAT     H2  921   9.754   2.099   5.161
  227WAT      O  922   1.525   4.844   6.057
  227WAT     H1  923   1.489   4.813   6.145
  227WAT     H2  924   1.519   4.769   5.990
  228WAT      O  925   9.197   0.343   2.538
  228WAT     H1  926   9.109   0.358   2.583
  228WAT     H2  927   9.192   0.376   2.444
  229WAT      O  928   9.250   4.333   9.710
  229WAT     H1  929   9.252   4.373   9.802
  229WAT     H2  930   9.188   4.386   9.652
  230WAT      O  931   6.916   0.699   0.362
  230WAT     H1  932   6.876   0.633   0.297
  230WAT     H2  933   6.884   0.677   0.454
  231WAT      O  934   2.556   9.444   5.057
  231WAT     H1  935   2.530   9.389   5.137
  231WAT     H2  936   2.600   9.528   5.087
  232WAT      O  937   1.794   0.115   6.098
  232WAT     H1  938   1.867   0.099   6.164
  232WAT     H2  939   1.796   0.211   6.069
  233WAT      O  940   9.502   8.109   5.994
  233WAT     H1  941   9.467   8.049   6.066
  233WAT     H2  942   9.454   8.090   5.908
  234WAT      O  943   4.287   9.732   2.128
  234WAT     H1  944   4.188   9.750   2.129
  234WAT     H2  945   4.317   9.706   2.220
  235WAT      O  946   9.015   9.582   9.694
  235WAT     H1  947   8.917   9.562   9.685
  235WAT     H2  948   9.064   9.540   9.618
  236WAT      O  949   2.856   1.246   6.568
  236WAT     H1  950   2.807   1.234   6.482
  236WAT     H2  951   2.889   1.157   6.600
  237WAT      O  952   0.935   7.636   4.907
  237WAT     H1  953   0.931   7.537   4.922
  237WAT     H2  954   1.023   7.670   4.939
  238WAT      O  955   7.046   9.167   0.922
  238WAT     H1  956   6.989   9.090   0.893
  238WAT     H2  957   7.046   9.237   0.850
  239WAT      O  958   0.571   8.203   8.224
  239WAT     H1  959   0.558   8.194   8.323
  239WAT     H2  960   0.659   8.245   8.206
  240WAT      O  961   4.300   2.907   7.399
  240WAT     H1  962   4.328   2.815   7.424
  240WAT     H2  963   4.382   2.963   7.382
  241WAT      O  964   8.035   5.452   3.141
  241WAT     H1  965   7.964   5.522   3.130
  241WAT     H2  966   8.059   5.414   3.051
  242WAT      O  967   2.914   0.098   6.006
  242WAT     H1  968   2.865   0.041   5.940
  242WAT     H2  969   2.857   0.175   6.032
  243WAT      O  970   6.525   8.610   9.484
  243WAT     H1  971   6.576   8.672   9.425
  243WAT     H2  972   6.528   8.518   9.446
  244WAT      O  973   7.650   7.424   2.367
  244WAT     H1  974   7.742   7.458   2.344
  244WAT     H2  975   7.657   7.356   2.440
  245WAT      O  976   6.130   3.988   5.089
  245WAT     H1  977   6.135   4.063   5.022
  245WAT     H2  978   6.198   4.004   5.161
  246WAT      O  979   6.727   8.435   0.922
  246WAT     H1  980   6.647   8.380   0.902
  246WAT     H2  981   6.762   8.476   0.838
  247WAT      O  982   7.631   0.758   0.331
  247WAT     H1  983   7.558   0.814   0.293
  247WAT     H2  984   7.607   0.729   0.423
  248WAT      O  985   5.872   3.631   7.901
  248WAT     H1  986   5.917   3.608   7.814
  248WAT     H2  987   5.822   3.717   7.891
  249WAT      O  988   7.778   1.289   9.729
  249WAT     H1  989   7.748   1.204   9.771
  249WAT     H2  990   7.877   1.299   9.742
  250WAT      O  991   5.159   2.496   2.420
  250WAT     H1  992   5.186   2.563   2.488
  250WAT     H2  993   5.237   2.438   2.398
  251WAT      O  994   2.912   6.250   2.396
  251WAT     H1  995   2.842   6.210   2.455
  251WAT     H2  996   3.000   6.250   2.443
  252WAT      O  997   4.488   2.125   2.901
  252WAT     H1  998   4.454   2.213   2.934
  252WAT     H2  999   4.584   2.135   2.874
  253WAT      O 1000   0.978   3.675   3.491
  253WAT     H1 1001   1.027   3.755   3.524
  253WAT     H2 1002   1.039   3.620   3.433
  254WAT      O 1003   9.108   2.086   5.692
  254WAT     H1 1004   9.118   2.177   5.732
  254WAT     H2 1005   9.135   2.089   5.595
  255WAT      O 1006   2.138   0.159   2.218
  255WAT     H1 1007   2.116   0.202   2.305
  255WAT     H2 1008   2.059   0.106   2.186
  256WAT      O 1009   3.202   6.186   7.216
  256WAT     H1 1010   3.104   6.179   7.236
  256WAT     H2 1011   3.253   6.122   7.273
  257WAT      O 1012   1.250   0.001   4.438
  257WAT     H1 1013   1.240   0.069   4.366
  257WAT     H2 1014   1.327  -0.059   4.417
  258WAT      O 1015   2.347   7.348   8.675
  258WAT     H1 1016   2.275   7.338   8.744
  258WAT     H2 1017   2.389   7.438   8.684
  259WAT      O 1018   2.944   9.507   4.495
  259WAT     H1 1019   2.978   9.529   4.586
  259WAT     H2 1020   2.881   9.429   4.501
  260WAT      O 1021   5.556   0.593   9.082
  260WAT     H1 1022   5.652   0.619   9.080
  260WAT     H2 1023   5.522   0.597   9.176
  261WAT      O 1024   7.454   4.160   2.139
  261WAT     H1 1025   7.516   4.124   2.208
  261WAT     H2 1026   7.505   4.216   2.073
  262WAT      O 1027   1.820   3.390   3.946
  262WAT     H1 1028   1.909   3.383   3.993
  262WAT     H2 1029   1.810   3.313   3.883
  263WAT      O 1030   9.537   4.871   7.526
  263WAT     H1 1031   9.487   4.878   7.612
  263WAT     H2 1032   9.482   4.908   7.452
  264WAT      O 1033   7.677   8.254   5.312
  264WAT     H1 1034   7.767   8.292   5.333
  264WAT     H2 1035   7.608   8.326   5.318
  265WAT      O 1036   5.721   1.730   4.343
  265WAT     H1 1037   5.818   1.724   4.367
  265WAT     H2 1038   5.666   1.721   4.426
  266WAT      O 1039   4.723   9.038   2.850
  266WAT     H1 1040   4.658   9.114   2.847
  266WAT     H2 1041   4.704   8.981   2.929
  267WAT      O 1042   1.600   8.452   3.412
  267WAT     H1 1043   1.649   8.446   3.325
  267WAT     H2 1044   1.662   8.489   3.481
  268WAT      O 1045   5.840   1.260   0.615
  268WAT     H1 1046   5.809   1.223   0.703
  268WAT     H2 1047   5.774   1.328   0.583
  269WAT      O 1048   4.809   4.972   1.384
  269WAT     H1 1049   4.890   4.922   1.354
  269WAT     H2 1050   4.729   4.913   1.379
  270WAT      O 1051   1.774   6.193   3.806
  270WAT     H1 1052   1.724   6.253   3.744
  270WAT     H2 1053   1.852   6.154   3.758
  271WAT      O 1054   3.642   2.717   1.997
  271WAT     H1 1055   3.554   2.752   2.030
  271WAT     H2 1056   3.712   2.732   2.067
  272WAT      O 1057   2.208   2.781   7.063
  272WAT     H1 1058   2.196   2.872   7.104
  272WAT     H2 1059   2.305   2.763   7.049
  273WAT      O 1060   2.198   5.135   8.437
  273WAT     H1 1061   2.142   5.080   8.375
  273WAT     H2 1062   2.294   5.122   8.416
  274WAT      O 1063   2.505   0.662   3.561
  274WAT     H1 1064   2.423   0.630   3.512
  274WAT     H2 1065   2.477   0.707   3.645
  275WAT      O 1066   2.760   4.131   9.437
  275WAT     H1 1067   2.816   4.169   9.364
  275WAT     H2 1068   2.715   4.205   9.487
  276WAT      O 1069   4.265   1.456   2.115
  276WAT     H1 1070   4.324   1.529   2.151
  276WAT     H2 1071   4.183   1.448   2.172
  277WAT      O 1072   4.144   8.407   6.368
  277WAT     H1 1073   4.161   8.465   6.288
  277WAT     H2 1074   4.187   8.449   6.448
  278WAT      O 1075   5.554   3.560   6.715
  278WAT     H1 1076   5.520   3.615   6.638
  278WAT     H2 1077   5.593   3.475   6.681
  279WAT      O 1078   7.111   6.159   6.324
  279WAT     H1 1079   7.208   6.177   6.340
  279WAT     H2 1080   7.095   6.148   6.226
  280WAT      O 1081   9.600   1.635   7.100
  280WAT     H1 1082   9.588   1.734   7.097
  280WAT     H2 1083   9.662   1.612   7.175
  281WAT      O 1084   8.731   6.373   6.264
  281WAT     H1 1085   8.638   6.387   6.297
  281WAT     H2 1086   8.789   6.343   6.340
  282WAT      O 1087   6.219   3.267   3.591
  282WAT     H1 1088   6.138   3.221   3.629
  282WAT     H2 1089   6.301   3.216   3.617
  283WAT      O 1090   2.678   1.270   0.979
  283WAT     H1 1091   2.615   1.192   0.976
  283WAT     H2 1092   2.627   1.353   1.002
  284WAT      O 1093   9.395   6.802   5.341
  284WAT     H1 1094   9.457   6.749   5.399
  284WAT     H2 1095   9.421   6.899   5.346
  285WAT      O 1096   7.900   0.435   2.971
  285WAT     H1 1097   7.846   0.382   3.037
  285WAT     H2 1098   7.996   0.438   3.001
  286WAT      O 1099   2.306   9.325   4.226
  286WAT     H1 1100   2.396   9.285   4.211
  286WAT     H2 1101   2.288   9.330   4.325
  287WAT      O 1102   1.869   6.461   5.568
  287WAT     H1 1103   1.870   6.372   5.522
  287WAT     H2 1104   1.791   6.514   5.536
  288WAT      O 1105   3.066   7.677   1.174
  288WAT     H1 1106   3.113   7.618   1.240
  288WAT     H2 1107   3.123   7.688   1.093
  289WAT      O 1108   8.895   6.007   8.705
  289WAT     H1 1109   8.916   6.095   8.663
  289WAT     H2 1110   8.970   5.979   8.765
  290WAT      O 1111   7.190   0.629   6.573
  290WAT     H1 1112   7.258   0.555   6.578
  290WAT     H2 1113   7.230   0.713   6.608
  291WAT      O 1114   9.617   3.656   8.475
  291WAT     H1 1115   9.539   3.623   8.421
  291WAT     H2 1116   9.639   3.749   8.448
  292WAT      O 1117   5.381   2.127   9.557
  292WAT     H1 1118   5.346   2.183   9.632
  292WAT     H2 1119   5.468   2.085   9.584
  293WAT      O 1120   8.746   2.390   4.048
  293WAT     H1 1121   8.814   2.346   4.108
  293WAT     H2 1122   8.792   2.455   3.988
  294WAT      O 1123   4.073   4.854   2.098
  294WAT     H1 1124   4.041   4.805   2.017
  294WAT     H2 1125   4.173   4.862   2.095
  295WAT      O 1126   4.779   4.021   4.217
  295WAT     H1 1127   4.785   4.026   4.117
  295WAT     H2 1128   4.730   4.101   4.251
  296WAT      O 1129   0.211   6.730   2.915
  296WAT     H1 1130   0.157   6.707   2.834
  296WAT     H2 1131   0.305   6.697   2.902
  297WAT      O 1132   5.045   6.745   3.552
  297WAT     H1 1133   5.124   6.787   3.595
  297WAT     H2 1134   4.965   6.802   3.565
  298WAT      O 1135   0.364   7.573   5.895
  298WAT     H1 1136   0.368   7.652   5.956
  298WAT     H2 1137   0.406   7.596   5.808
  299WAT      O 1138   7.631   9.212   0.247
  299WAT     H1 1139   7.674   9.177   0.165
  299WAT     H2 1140   7.667   9.303   0.269
  300WAT      O 1141   0.550   2.814   1.520
  300WAT     H1 1142   0.524   2.723   1.554
  300WAT     H2 1143   0.475   2.852   1.467
  301WAT      O 1144   2.282   9.436   5.961
  301WAT     H1 1145   2.226   9.357   5.987
  301WAT     H2 1146   2.256   9.515   6.016
  302WAT      O 1147   7.711   1.677   0.558
  302WAT     H1 1148   7.794   1.622   0.560
  302WAT     H2 1149   7.680   1.687   0.463
  303WAT      O 1150   7.965   2.183   7.224
  303WAT     H1 1151   7.957   2.150   7.318
  303WAT     H2 1152   7.904   2.262   7.211
  304WAT      O 1153   7.211   0.094   8.565
  304WAT     H1 1154   7.151   0.025   8.607
  304WAT     H2 1155   7.165   0.182   8.564
  305WAT      O 1156   3.924   5.768   2.544
  305WAT     H1 1157   3.937   5.707   2.466
  305WAT     H2 1158   3.914   5.713   2.628
  306WAT      O 1159   6.168   4.760   2.854
  306WAT     H1 1160   6.116   4.675   2.843
  306WAT     H2 1161   6.120   4.834   2.807
  307WAT      O 1162   7.539   2.170   6.850
  307WAT     H1 1163   7.579   2.256   6.881
  307WAT     H2 1164   7.600   2.095   6.874
  308WAT      O 1165   0.031   1.770   0.307
  308WAT     H1 1166   0.010   1.793   0.212
  308WAT     H2 1167  -0.043   1.714   0.345
  309WAT      O 1168   1.445   5.571   8.681
  309WAT     H1 1169   1.376   5.637   8.711
  309WAT     H2 1170   1.536   5.608   8.699
  310WAT      O 1171   3.823   6.918   6.795
  310WAT     H1 1172   3.849   7.010   6.767
  310WAT     H2 1173   3.833   6.855   6.718
  311WAT      O 1174   8.503   3.839   6.846
  311WAT     H1 1175   8.535   3.763   6.903
  311WAT     H2 1176   8.403   3.845   6.852
  312WAT      O 1177   7.832   3.386   0.551
  312WAT     H1 1178   7.848   3.426   0.461
  312WAT     H2 1179   7.855   3.289   0.550
  313WAT      O 1180   3.915   5.064   3.353
  313WAT     H1 1181   3.995   5.079   3.411
  313WAT     H2 1182   3.884   4.969   3.363
  314WAT      O 1183   4.340   4.594   3.244
  314WAT     H1 1184   4.285   4.557   3.319
  314WAT     H2 1185   4.426   4.543   3.238
  315WAT      O 1186   4.334   7.331   3.157
  315WAT     H1 1187   4.396   7.402   3.190
  315WAT     H2 1188   4.373   7.241   3.175
  316WAT      O 1189   9.021   2.974   0.937
  316WAT     H1 1190   9.083   2.903   0.971
  316WAT     H2 1191   9.075   3.049   0.900
  317WAT      O 1192   0.990   3.434   3.617
  317WAT     H1 1193   1.076   3.405   3.658
  317WAT     H2 1194   1.000   3.525   3.578
  318WAT      O 1195   6.957   6.007   2.196
  318WAT     H1 1196   6.943   5.982   2.100
  318WAT     H2 1197   7.036   6.068   2.203
  319WAT      O 1198   5.244   3.420   9.048
  319WAT     H1 1199   5.157   3.389   9.085
  319WAT     H2 1200   5.294   3.470   9.119
  320WAT      O 1201   1.509   9.120   5.880
  320WAT     H1 1202   1.598   9.084   5.852
  320WAT     H2 1203   1.513   9.149   5.976
  321WAT      O 1204   5.893   0.722   7.342
  321WAT     H1 1205   5.888   0.800   7.280
  321WAT     H2 1206   5.978   0.672   7.327
  322WAT      O 1207   2.976   2.357   2.664
  322WAT     H1 1208   3.051   2.291   2.658
  322WAT     H2 1209   3.005   2.434   2.721
  323WAT      O 1210   7.241   0.683   2.110
  323WAT     H1 1211   7.220   0.605   2.169
  323WAT     H2 1212   7.296   0.749   2.161
  324WAT      O 1213   9.787   1.064   3.272
  324WAT     H1 1214   9.858   1.061   3.342
  324WAT     H2 1215   9.735   1.149   3.281
  325WAT      O 1216   2.823   7.461   1.267
  325WAT     H1 1217   2.844   7.428   1.359
  325WAT     H2 1218   2.904   7.450   1.209
  326WAT      O 1219   5.444   6.296   0.264
  326WAT     H1 1220   5.501   6.306   0.183
  326WAT     H2 1221   5.408   6.386   0.290
  327WAT      O 1222   9.110   8.842   7.380
  327WAT     H1 1223   9.129   8.782   7.457
  327WAT     H2 1224   9.114   8.791   7.295
  328WAT      O 1225   0.703   0.860   3.621
  328WAT     H1 1226   0.745   0.829   3.706
  328WAT     H2 1227   0.704   0.786   3.554
  329WAT      O 1228   7.139   1.924   9.277
  329WAT     H1 1229   7.172   1.837   9.240
  329WAT     H2 1230   7.204   1.997   9.255
  330WAT      O 1231   3.003   0.622   1.475
  330WAT     H1 1232   2.959   0.535   1.452
  330WAT     H2 1233   3.100   0.607   1.491
  331WAT      O 1234   9.498   2.392   1.766
  331WAT     H1 1235   9.515   2.293   1.765
  331WAT     H2 1236   9.400   2.409   1.771
  332WAT      O 1237   9.194   4.549   7.765
  332WAT     H1 1238   9.151   4.602   7.691
  332WAT     H2 1239   9.129   4.539   7.840
  333WAT      O 1240   7.113   4.457   3.420
  333WAT     H1 1241   7.072   4.385   3.475
  333WAT     H2 1242   7.141   4.419   3.331
  334WAT      O 1243   2.381   6.946   7.541
  334WAT     H1 1244   2.413   6.998   7.461
  334WAT     H2 1245   2.459   6.902   7.585
  335WAT      O 1246   4.483   1.301   5.082
  335WAT     H1 1247   4.541   1.250   5.145
  335WAT     H2 1248   4.468   1.393   5.116
  336WAT      O 1249   7.811   4.027   3.247
  336WAT     H1 1250   7.728   4.063   3.205
  336WAT     H2 1251   7.854   4.098   3.303
  337WAT      O 1252   5.808   1.481   4.949
  337WAT     H1 1253   5.885   1.440   4.997
  337WAT     H2 1254   5.738   1.508   5.015
  338WAT      O 1255   3.424   7.093   6.540
  338WAT     H1 1256   3.429   7.008   6.591
  338WAT     H2 1257   3.337   7.139   6.559
  339WAT      O 1258   4.216   8.356   5.099
  339WAT     H1 1259   4.206   8.275   5.156
  339WAT     H2 1260   4.309   8.358   5.060
  340WAT      O 1261   5.448   9.443   0.887
  340WAT     H1 1262   5.437   9.468   0.790
  340WAT     H2 1263   5.532   9.389   0.898
  341WAT      O 1264   7.220   3.708   4.448
  341WAT     H1 1265   7.139   3.767   4.441
  341WAT     H2 1266   7.196   3.615   4.420
  342WAT      O 1267   4.431   0.025   8.819
  342WAT     H1 1268   4.427   0.095   8.890
  342WAT     H2 1269   4.461  -0.062   8.859
  343WAT      O 1270   3.342   4.418   3.128
  343WAT     H1 1271   3.296   4.341   3.171
  343WAT     H2 1272   3.300   4.503   3.160
  344WAT      O 1273   2.452   3.255   9.732
  344WAT     H1 1274   2.359   3.258   9.696
  344WAT     H2 1275   2.516   3.284   9.662
  345WAT      O 1276   5.476   1.943   9.299
  345WAT     H1 1277   5.504   2.039   9.291
  345WAT     H2 1278   5.419   1.932   9.380
  346WAT      O 1279   4.693   5.087   3.518
  346WAT     H1 1280   4.635   5.159   3.479
  346WAT     H2 1281   4.736   5.035   3.443
  347WAT      O 1282   0.883   4.557   2.129
  347WAT     H1 1283   0.934   4.634   2.093
  347WAT     H2 1284   0.915   4.536   2.221
  348WAT      O 1285   4.672   9.506   0.753
  348WAT     H1 1286   4.740   9.432   0.754
  348WAT     H2 1287   4.582   9.469   0.779
  349WAT      O 1288   4.604   5.986   6.334
  349WAT     H1 1289   4.654   6.070   6.313
  349WAT     H2 1290   4.563   5.950   6.251
  350WAT      O 1291   7.007   2.302   0.971
  350WAT     H1 1292   6.936   2.234   0.951
  350WAT     H2 1293   6.986   2.347   1.057
  351WAT      O 1294   4.389   6.649   0.081
  351WAT     H1 1295   4.457   6.672   0.011
  351WAT     H2 1296   4.310   6.607   0.038
  352WAT      O 1297   6.339   7.679   8.183
  352WAT     H1 1298   6.312   7.746   8.253
  352WAT     H2 1299   6.384   7.601   8.228
  353WAT      O 1300   2.100   8.205   9.716
  353WAT     H1 1301   2.181   8.166   9.760
  353WAT     H2 1302   2.121   8.226   9.621
  354WAT      O 1303   2.682   2.458   4.607
  354WAT     H1 1304   2.615   2.403   4.557
  354WAT     H2 1305   2.766   2.405   4.618
  355WAT      O 1306   0.996   2.619   4.900
  355WAT     H1 1307   0.908   2.582   4.870
  355WAT     H2 1308   0.994   2.719   4.894
  356WAT      O 1309   6.810   6.761   4.363
  356WAT     H1 1310   6.880   6.826   4.334
  356WAT     H2 1311   6.751   6.739   4.285
  357WAT      O 1312   1.631   2.373   0.141
  357WAT     H1 1313   1.609   2.431   0.063
  357WAT     H2 1314   1.709   2.314   0.119
  358WAT      O 1315   6.832   6.486   0.472
  358WAT     H1 1316   6.820   6.390   0.447
  358WAT     H2 1317   6.744   6.526   0.497
  359WAT      O 1318   4.384   0.185   6.678
  359WAT     H1 1319   4.340   0.096   6.676
  359WAT     H2 1320   4.355   0.234   6.761
  360WAT      O 1321   8.094   4.972   2.397
  360WAT     H1 1322   8.028   5.014   2.335
  360WAT     H2 1323   8.174   4.942   2.345
  361WAT      O 1324   9.239   8.115   4.621
  361WAT     H1 1325   9.172   8.043   4.607
  361WAT     H2 1326   9.329   8.075   4.636
  362WAT      O 1327   5.030   6.943   7.444
  362WAT     H1 1328   5.041   6.869   7.378
  362WAT     H2 1329   5.111   6.948   7.502
  363WAT      O 1330   6.392   8.115   9.025
  363WAT     H1 1331   6.454   8.036   9.021
  363WAT     H2 1332   6.349   8.120   9.115
  364WAT      O 1333   6.954   3.557   7.556
  364WAT     H1 1334   6.901   3.570   7.640
  364WAT     H2 1335   7.000   3.469   7.559
  365WAT      O 1336   5.863   9.547   8.210
  365WAT     H1 1337   5.901   9.619   8.153
  365WAT     H2 1338   5.822   9.476   8.153
  366WAT      O 1339   1.889   2.261   6.663
  366WAT     H1 1340   1.864   2.317   6.742
  366WAT     H2 1341   1.871   2.165   6.683
  367WAT      O 1342   7.646   9.680   7.154
  367WAT     H1 1343   7.692   9.656   7.239
  367WAT     H2 1344   7.665   9.611   7.084
  368WAT      O 1345   9.847   9.456   0.566
  368WAT     H1 1346   9.765   9.507   0.592
  368WAT     H2 1347   9.845   9.366   0.610
  369WAT      O 1348   3.506   3.161   5.190
  369WAT     H1 1349   3.563   3.138   5.110
  369WAT     H2 1350   3.565   3.186   5.266
  370WAT      O 1351   4.108   8.456   2.432
  370WAT     H1 1352   4.138   8.489   2.521
  370WAT     H2 1353   4.132   8.523   2.362
  371WAT      O 1354   9.803   6.039   3.164
  371WAT     H1 1355   9.782   6.126   3.208
  371WAT     H2 1356   9.785   6.046   3.066
  372WAT      O 1357   1.777   3.575   7.222
  372WAT     H1 1358   1.737   3.644   7.282
  372WAT     H2 1359   1.836   3.515   7.277
  373WAT      O 1360   9.035   8.365   6.219
  373WAT     H1 1361   8.941   8.400   6.229
  373WAT     H2 1362   9.068   8.385   6.127
  374WAT      O 1363   9.558   2.166   4.845
  374WAT     H1 1364   9.632   2.163   4.912
  374WAT     H2 1365   9.587   2.118   4.762
  375WAT      O 1366   8.993   7.264   5.970
  375WAT     H1 1367   9.020   7.356   5.998
  375WAT     H2 1368   9.043   7.197   6.025
  376WAT      O 1369   3.693   1.685   8.755
  376WAT     H1 1370   3.759   1.758   8.745
  376WAT     H2 1371   3.602   1.717   8.728
  377WAT      O 1372   3.978   4.576   0.842
  377WAT     H1 1373   4.030   4.616   0.767
  377WAT     H2 1374   4.035   4.511   0.892
  378WAT      O 1375   6.678   5.410   0.388
  378WAT     H1 1376   6.589   5.380   0.424
  378WAT     H2 1377   6.701   5.499   0.426
  379WAT      O 1378   5.872   2.345   4.060
  379WAT     H1 1379   5.851   2.303   3.971
  379WAT     H2 1380   5.810   2.308   4.129
  380WAT      O 1381   1.072   2.482   5.138
  380WAT     H1 1382   1.057   2.566   5.085
  380WAT     H2 1383   1.155   2.437   5.106
  381WAT      O 1384   0.357   4.398   0.141
  381WAT     H1 1385   0.388   4.486   0.176
  381WAT     H2 1386   0.413   4.325   0.182
  382WAT      O 1387   1.844   6.782   2.397
  382WAT     H1 1388   1.797   6.858   2.442
  382WAT     H2 1389   1.827   6.785   2.299
  383WAT      O 1390   5.372   2.495   6.742
  383WAT     H1 1391   5.275   2.516   6.749
  383WAT     H2 1392   5.420   2.533   6.822
  384WAT      O 1393   0.899   2.813   0.680
  384WAT     H1 1394   0.926   2.899   0.638
  384WAT     H2 1395   0.980   2.762   0.708
  385WAT      O 1396   8.396   4.762   3.862
  385WAT     H1 1397   8.389   4.674   3.909
  385WAT     H2 1398   8.420   4.833   3.928
  386WAT      O 1399   1.239   4.274   2.076
  386WAT     H1 1400   1.253   4.353   2.015
  386WAT     H2 1401   1.141   4.261   2.090
  387WAT      O 1402   3.859   2.048   1.332
  387WAT     H1 1403   3.859   2.090   1.241
  387WAT     H2 1404   3.801   2.101   1.393
  388WAT      O 1405   5.137   2.603   8.949
  388WAT     H1 1406   5.196   2.522   8.951
  388WAT     H2 1407   5.049   2.579   8.908
  389WAT      O 1408   5.492   6.706   7.024
  389WAT     H1 1409   5.409   6.749   6.989
  389WAT     H2 1410   5.556   6.777   7.055
  390WAT      O 1411   3.038   1.866   5.118
  390WAT     H1 1412   2.942   1.848   5.098
  390WAT     H2 1413   3.046   1.900   5.212
  391WAT      O 1414   9.135   4.706   9.135
  391WAT     H1 1415   9.140   4.806   9.136
  391WAT     H2 1416   9.227   4.668   9.140
  392WAT      O 1417   5.109   9.080   4.873
  392WAT     H1 1418   5.166   9.106   4.794
  392WAT     H2 1419   5.090   9.161   4.928
  393WAT      O 1420   6.578   0.918   3.533
  393WAT     H1 1421   6.524   0.933   3.616
  393WAT     H2 1422   6.675   0.922   3.555
  394WAT      O 1423   2.253   4.690   2.914
  394WAT     H1 1424   2.193   4.763   2.883
  394WAT     H2 1425   2.225   4.604   2.872
  395WAT      O 1426   6.330   7.449   1.568
  395WAT     H1 1427   6.398   7.521   1.551
  395WAT     H2 1428   6.342   7.413   1.660
  396WAT      O 1429   8.326   3.785   7.832
  396WAT     H1 1430   8.304   3.882   7.821
  396WAT     H2 1431   8.249   3.729   7.802
  397WAT      O 1432   3.749   9.577   9.028
  397WAT     H1 1433   3.661   9.619   9.003
  397WAT     H2 1434   3.816   9.597   8.956
  398WAT      O 1435   4.279   5.606   3.597
  398WAT     H1 1436   4.370   5.574   3.624
  398WAT     H2 1437   4.287   5.684   3.536
  399WAT      O 1438   3.883   8.720   4.954
  399WAT     H1 1439   3.793   8.709   4.997
  399WAT     H2 1440   3.932   8.633   4.959
  400WAT      O 1441   6.175   2.239   4.407
  400WAT     H1 1442   6.166   2.248   4.506
  400WAT     H2 1443   6.223   2.318   4.369
  401WAT      O 1444   4.103   3.793   1.112
  401WAT     H1 1445   4.053   3.836   1.187
  401WAT     H2 1446   4.168   3.859   1.074
  402WAT      O 1447   3.453   8.479   5.182
  402WAT     H1 1448   3.372   8.472   5.240
  402WAT     H2 1449   3.532   8.438   5.227
  403WAT      O 1450   6.062   6.140   8.674
  403WAT     H1 1451   6.125   6.187   8.736
  403WAT     H2 1452   6.075   6.173   8.581
  404WAT      O 1453   1.260   2.413   8.906
  404WAT     H1 1454   1.327   2.402   8.833
  404WAT     H2 1455   1.185   2.470   8.874
  405WAT      O 1456   7.755   3.670   2.453
  405WAT     H1 1457   7.665   3.711   2.472
  405WAT     H2 1458   7.750   3.614   2.371
  406WAT      O 1459   6.725   2.460   3.929
  406WAT     H1 1460   6.818   2.424   3.941
  406WAT     H2 1461   6.659   2.386   3.938
  407WAT      O 1462   1.230   7.228   4.606
  407WAT     H1 1463   1.326   7.253   4.621
  407WAT     H2 1464   1.218   7.195   4.513
  408WAT      O 1465   6.842   1.908   7.995
  408WAT     H1 1466   6.932   1.877   7.964
  408WAT     H2 1467   6.790   1.942   7.918
  409WAT      O 1468   6.267   4.770   5.173
  409WAT     H1 1469   6.216   4.854   5.191
  409WAT     H2 1470   6.230   4.696   5.229
  410WAT      O 1471   3.483   5.468   2.234
  410WAT     H1 1472   3.461   5.559   2.198
  410WAT     H2 1473   3.404   5.432   2.284
  411WAT      O 1474   1.055   6.952   0.672
  411WAT     H1 1475   1.096   7.041   0.692
  411WAT     H2 1476   1.103   6.881   0.724
  412WAT      O 1477   8.973   8.908   6.934
  412WAT     H1 1478   8.915   8.901   6.853
  412WAT     H2 1479   9.066   8.934   6.907
  413WAT      O 1480   1.387   8.731   6.034
  413WAT     H1 1481   1.434   8.810   6.072
  413WAT     H2 1482   1.446   8.686   5.967
  414WAT      O 1483   2.758   1.178   1.575
  414WAT     H1 1484   2.749   1.193   1.477
  414WAT     H2 1485   2.841   1.124   1.593
  415WAT      O 1486   0.049   4.651   8.254
  415WAT     H1 1487   0.102   4.694   8.328
  415WAT     H2 1488  -0.007   4.721   8.209
  416WAT      O 1489   9.568   5.036   3.269
  416WAT     H1 1490   9.526   4.997   3.350
  416WAT     H2 1491   9.523   5.001   3.187
  417WAT      O 1492   0.533   9.744   8.742
  417WAT     H1 1493   0.500   9.837   8.756
  417WAT     H2 1494   0.481   9.681   8.800
  418WAT      O 1495   5.610   8.228   3.252
  418WAT     H1 1496   5.590   8.231   3.154
  418WAT     H2 1497   5.607   8.320   3.290
  419WAT      O 1498   5.137   3.926   3.365
  419WAT     H1 1499   5.091   3.859   3.306
  419WAT     H2 1500   5.068   3.980   3.414
  420WAT      O 1501   1.212   3.716   2.402
  420WAT     H1 1502   1.253   3.635   2.443
  420WAT     H2 1503   1.213   3.792   2.468
  421WAT      O 1504   9.835   4.851   6.469
  421WAT     H1 1505   9.777   4.865   6.548
  421WAT     H2 1506   9.826   4.928   6.406
  422WAT      O 1507   9.463   7.998   4.777
  422WAT     H1 1508   9.485   8.063   4.849
  422WAT     H2 1509   9.504   8.027   4.691
  423WAT      O 1510   4.537   5.305   1.084
  423WAT     H1 1511   4.444   5.307   1.047
  423WAT     H2 1512   4.545   5.371   1.158
  424WAT      O 1513   7.203   4.295   0.821
  424WAT     H1 1514   7.290   4.246   0.825
  424WAT     H2 1515   7.140   4.257   0.888
  425WAT      O 1516   1.055   5.317   5.300
  425WAT     H1 1517   1.121   5.373   5.350
  425WAT     H2 1518   1.054   5.345   5.204
  426WAT      O 1519   4.247   1.534   2.443
  426WAT     H1 1520   4.208   1.446   2.415
  426WAT     H2 1521   4.218   1.605   2.378
  427WAT      O 1522   7.570   5.594   7.676
  427WAT     H1 1523   7.479   5.552   7.674
  427WAT     H2 1524   7.593   5.619   7.769
  428WAT      O 1525   4.952   1.467   3.134
  428WAT     H1 1526   4.885   1.535   3.164
  428WAT     H2 1527   5.039   1.513   3.115
  429WAT      O 1528   2.108   8.504   9.613
  429WAT     H1 1529   2.013   8.476   9.600
  429WAT     H2 1530   2.169   8.432   9.580
  430WAT      O 1531   8.186   9.584   1.289
  430WAT     H1 1532   8.131   9.615   1.212
  430WAT     H2 1533   8.130   9.527   1.349
  431WAT      O 1534   4.859   6.726   3.041
  431WAT     H1 1535   4.947   6.754   3.080
  431WAT     H2 1536   4.849   6.763   2.949
  432WAT      O 1537   8.636   0.370   4.944
  432WAT     H1 1538   8.573   0.292   4.945
  432WAT     H2 1539   8.677   0.379   4.854
  433WAT      O 1540   0.214   3.754   8.926
  433WAT     H1 1541   0.159   3.681   8.885
  433WAT     H2 1542   0.269   3.798   8.854
  434WAT      O 1543   2.007   6.154   8.914
  434WAT     H1 1544   1.999   6.106   9.002
  434WAT     H2 1545   1.916   6.184   8.885
  435WAT      O 1546   9.531   6.679   5.569
  435WAT     H1 1547   9.453   6.670   5.630
  435WAT     H2 1548   9.587   6.757   5.598
  436WAT      O 1549   3.659   2.335   8.901
  436WAT     H1 1550   3.737   2.397   8.894
  436WAT     H2 1551   3.644   2.311   8.997
  437WAT      O 1552   6.877   0.417   2.490
  437WAT     H1 1553   6.970   0.452   2.499
  437WAT     H2 1554   6.880   0.317   2.489
  438WAT      O 1555   2.899   8.918   9.493
  438WAT     H1 1556   2.936   8.837   9.447
  438WAT     H2 1557   2.872   8.986   9.424
  439WAT      O 1558   2.115   0.804   4.337
  439WAT     H1 1559   2.117   0.705   4.351
  439WAT     H2 1560   2.208   0.840   4.334
  440WAT      O 1561   7.702   8.878   8.509
  440WAT     H1 1562   7.705   8.835   8.419
  440WAT     H2 1563   7.787   8.859   8.558
  441WAT      O 1564   9.762   1.109   7.443
  441WAT     H1 1565   9.746   1.172   7.518
  441WAT     H2 1566   9.794   1.021   7.479
  442WAT      O 1567   8.133   4.806   6.538
  442WAT     H1 1568   8.163   4.761   6.622
  442WAT     H2 1569   8.064   4.749   6.493
  443WAT      O 1570   7.529   4.539   4.487
  443WAT     H1 1571   7.604   4.605   4.490
  443WAT     H2 1572   7.469   4.560   4.409
  444WAT      O 1573   8.027   5.831   1.393
  444WAT     H1 1574   8.018   5.901   1.322
  444WAT     H2 1575   8.123   5.819   1.416
  445WAT      O 1576   1.321   7.528   8.075
  445WAT     H1 1577   1.273   7.567   8.154
  445WAT     H2 1578   1.346   7.434   8.095
  446WAT      O 1579   4.881   8.066   6.614
  446WAT     H1 1580   4.953   8.096   6.552
  446WAT     H2 1581   4.909   7.981   6.659
  447WAT      O 1582   9.865   4.710   1.296
  447WAT     H1 1583   9.786   4.653   1.275
  447WAT     H2 1584   9.913   4.673   1.375
  448WAT      O 1585   5.194   9.215   8.136
  448WAT     H1 1586   5.240   9.249   8.054
  448WAT     H2 1587   5.202   9.282   8.210
  449WAT      O 1588   4.332   0.872   0.348
  449WAT     H1 1589   4.277   0.798   0.308
  449WAT     H2 1590   4.377   0.923   0.276
  450WAT      O 1591   0.539   3.027   0.145
  450WAT     H1 1592   0.448   2.985   0.146
  450WAT     H2 1593   0.577   3.026   0.237
  451WAT      O 1594   7.741   8.367   0.594
  451WAT     H1 1595   7.774   8.418   0.515
  451WAT     H2 1596   7.800   8.383   0.672
  452WAT      O 1597   7.256   2.342   1.633
  452WAT     H1 1598   7.175   2.393   1.605
  452WAT     H2 1599   7.244   2.246   1.608
  453WAT      O 1600   2.822   4.268   8.532
  453WAT     H1 1601   2.851   4.291   8.440
  453WAT     H2 1602   2.897   4.282   8.596
  454WAT      O 1603   8.580   7.304   8.609
  454WAT     H1 1604   8.572   7.287   8.511
  454WAT     H2 1605   8.517   7.377   8.635
  455WAT      O 1606   6.132   6.682   9.879
  455WAT     H1 1607   6.165   6.630   9.959
  455WAT     H2 1608   6.153   6.631   9.796
  456WAT      O 1609   0.637   8.123   2.136
  456WAT     H1 1610   0.690   8.066   2.199
  456WAT     H2 1611   0.610   8.207   2.183
  457WAT      O 1612   8.861   7.016   4.320
  457WAT     H1 1613   8.961   7.028   4.319
  457WAT     H2 1614   8.830   6.986   4.230
  458WAT      O 1615   3.271   9.409   3.716
  458WAT     H1 1616   3.275   9.318   3.757
  458WAT     H2 1617   3.208   9.467   3.767
  459WAT      O 1618   7.322   5.778   1.624
  459WAT     H1 1619   7.284   5.702   1.573
  459WAT     H2 1620   7.315   5.862   1.570
  460WAT      O 1621   9.355   5.883   5.005
  460WAT     H1 1622   9.315   5.974   5.022
  460WAT     H2 1623   9.303   5.814   5.056
  461WAT      O 1624   9.005   9.545   7.374
  461WAT     H1 1625   9.071   9.470   7.372
  461WAT     H2 1626   9.036   9.618   7.312
  462WAT      O 1627   6.618   5.164   8.272
  462WAT     H1 1628   6.544   5.213   8.318
  462WAT     H2 1629   6.602   5.163   8.174
  463WAT      O 1630   9.749   0.749   5.782
  463WAT     H1 1631   9.693   0.744   5.699
  463WAT     H2 1632   9.841   0.781   5.759
  464WAT      O 1633   3.583   0.450   8.432
  464WAT     H1 1634   3.538   0.403   8.355
  464WAT     H2 1635   3.592   0.387   8.509
  465WAT      O 1636   7.024   9.524   0.333
  465WAT     H1 1637   6.928   9.496   0.320
  465WAT     H2 1638   7.037   9.555   0.427
  466WAT      O 1639   7.228   1.710   4.302
  466WAT     H1 1640   7.148   1.659   4.270
  466WAT     H2 1641   7.282   1.654   4.364
  467WAT      O 1642   9.861   2.481   8.258
  467WAT     H1 1643   9.773   2.435   8.267
  467WAT     H2 1644   9.859   2.567   8.310
  468WAT      O 1645   2.209   9.346   2.895
  468WAT     H1 1646   2.209   9.417   2.966
  468WAT     H2 1647   2.117   9.339   2.856
  469WAT      O 1648   2.274   8.914   8.571
  469WAT     H1 1649   2.217   8.834   8.589
  469WAT     H2 1650   2.329   8.935   8.653
  470WAT      O 1651   0.683   7.808   0.789
  470WAT     H1 1652   0.702   7.905   0.800
  470WAT     H2 1653   0.759   7.764   0.741
  471WAT      O 1654   5.154   9.461   8.710
  471WAT     H1 1655   5.130   9.489   8.617
  471WAT     H2 1656   5.070   9.440   8.761
  472WAT      O 1657   2.539   3.741   7.310
  472WAT     H1 1658   2.587   3.828   7.314
  472WAT     H2 1659   2.449   3.754   7.267
  473WAT      O 1660   0.176   3.707   0.439
  473WAT     H1 1661   0.151   3.616   0.473
  473WAT     H2 1662   0.093   3.761   0.423
  474WAT      O 1663   9.441   8.922   2.817
  474WAT     H1 1664   9.489   8.993   2.869
  474WAT     H2 1665   9.472   8.832   2.847
  475WAT      O 1666   2.901   6.801   9.884
  475WAT     H1 1667   2.983   6.854   9.863
  475WAT     H2 1668   2.889   6.729   9.816
  476WAT      O 1669   0.210   9.780   8.577
  476WAT     H1 1670   0.231   9.835   8.657
  476WAT     H2 1671   0.134   9.821   8.527
  477WAT      O 1672   2.733   2.611   5.057
  477WAT     H1 1673   2.795   2.569   4.990
  477WAT     H2 1674   2.642   2.621   5.016
  478WAT      O 1675   8.363   1.106   2.142
  478WAT     H1 1676   8.274   1.126   2.101
  478WAT     H2 1677   8.435   1.153   2.089
  479WAT      O 1678   9.334   8.970   1.832
  479WAT     H1 1679   9.413   8.946   1.888
  479WAT     H2 1680   9.353   9.056   1.784
  480WAT      O 1681   0.699   8.451   3.589
  480WAT     H1 1682   0.769   8.409   3.532
  480WAT     H2 1683   0.732   8.456   3.683
  481WAT      O 1684   1.123   5.633   5.824
  481WAT     H1 1685   1.077   5.586   5.748
  481WAT     H2 1686   1.099   5.730   5.822
  482WAT      O 1687   3.624   0.153   7.069
  482WAT     H1 1688   3.570   0.168   6.986
  482WAT     H2 1689   3.718   0.184   7.054
  483WAT      O 1690   0.333   4.129   3.631
  483WAT     H1 1691   0.317   4.089   3.541
  483WAT     H2 1692   0.245   4.150   3.674
  484WAT      O 1693   1.270   4.277   2.827
  484WAT     H1 1694   1.317   4.297   2.913
  484WAT     H2 1695   1.311   4.331   2.754
  485WAT      O 1696   9.164   1.148   2.158
  485WAT     H1 1697   9.226   1.142   2.237
  485WAT     H2 1698   9.071   1.165   2.190
  486WAT      O 1699   7.826   2.371   4.889
  486WAT     H1 1700   7.743   2.340   4.934
  486WAT     H2 1701   7.816   2.468   4.864
  487WAT      O 1702   1.827   0.245   8.933
  487WAT     H1 1703   1.812   0.147   8.943
  487WAT     H2 1704   1.740   0.293   8.937
  488WAT      O 1705   6.417   7.507   0.272
  488WAT     H1 1706   6.507   7.549   0.282
  488WAT     H2 1707   6.423   7.409   0.291
  489WAT      O 1708   4.323   6.797   7.386
  489WAT     H1 1709   4.366   6.882   7.357
  489WAT     H2 1710   4.239   6.818   7.437
  490WAT      O 1711   8.037   9.653   1.062
  490WAT     H1 1712   7.940   9.629   1.060
  490WAT     H2 1713   8.069   9.671   0.969
  491WAT      O 1714   7.077   0.323   9.845
  491WAT     H1 1715   7.080   0.416   9.882
  491WAT     H2 1716   7.139   0.317   9.767
  492WAT      O 1717   8.334   4.583   4.033
  492WAT     H1 1718   8.412   4.533   4.072
  492WAT     H2 1719   8.288   4.526   3.965
  493WAT      O 1720   0.248   1.789   0.699
  493WAT     H1 1721   0.330   1.753   0.654
  493WAT     H2 1722   0.263   1.794   0.797
  494WAT      O 1723   3.732   9.053   2.731
  494WAT     H1 1724   3.823   9.060   2.690
  494WAT     H2 1725   3.728   9.110   2.813
  495WAT      O 1726   5.504   3.556   2.709
  495WAT     H1 1727   5.453   3.630   2.664
  495WAT     H2 1728   5.535   3.587   2.799
  496WAT      O 1729   2.253   6.137   8.526
  496WAT     H1 1730   2.259   6.168   8.431
  496WAT     H2 1731   2.191   6.196   8.577
  497WAT      O 1732   2.086   3.566   7.889
  497WAT     H1 1733   2.095   3.599   7.983
  497WAT     H2 1734   2.120   3.635   7.826
  498WAT      O 1735   3.159   4.016   8.815
  498WAT     H1 1736   3.116   3.978   8.734
  498WAT     H2 1737   3.252   3.979   8.825
  499WAT      O 1738   0.524   9.264   0.989
  499WAT     H1 1739   0.444   9.307   1.031
  499WAT     H2 1740   0.535   9.171   1.025
  500WAT      O 1741   8.503   7.329   4.619
  500WAT     H1 1742   8.543   7.281   4.541
  500WAT     H2 1743   8.558   7.410   4.640
  501WAT      O 1744   1.198   5.809   7.511
  501WAT     H1 1745   1.289   5.842   7.485
  501WAT     H2 1746   1.169   5.737   7.449
  502WAT      O 1747   5.576   6.475   5.851
  502WAT     H1 1748   5.590   6.424   5.766
  502WAT     H2 1749   5.569   6.573   5.831
  503WAT      O 1750   1.087   7.968   1.960
  503WAT     H1 1751   1.108   8.051   2.011
  503WAT     H2 1752   1.040   7.903   2.020
  504WAT      O 1753   3.949   8.806   3.641
  504WAT     H1 1754   3.917   8.714   3.620
  504WAT     H2 1755   3.950   8.861   3.558
  505WAT      O 1756   4.929   6.236   5.484
  505WAT     H1 1757   4.877   6.248   5.400
  505WAT     H2 1758   4.900   6.153   5.531
  506WAT      O 1759   9.019   5.217   0.817
  506WAT     H1 1760   9.040   5.301   0.767
  506WAT     H2 1761   9.105   5.171   0.842
  507WAT      O 1762   9.715   5.086   8.633
  507WAT     H1 1763   9.793   5.026   8.618
  507WAT     H2 1764   9.739   5.179   8.607
  508WAT      O 1765   6.709   3.528   0.971
  508WAT     H1 1766   6.746   3.441   0.941
  508WAT     H2 1767   6.782   3.583   1.013
  509WAT      O 1768   8.401   5.180   9.755
  509WAT     H1 1769   8.354   5.257   9.712
  509WAT     H2 1770   8.482   5.157   9.700
  510WAT      O 1771   8.035   7.374   5.228
  510WAT     H1 1772   8.091   7.293   5.215
  510WAT     H2 1773   8.065   7.446   5.164
  511WAT      O 1774   5.962   5.072   9.486
  511WAT     H1 1775   5.927   5.069   9.580
  511WAT     H2 1776   6.014   5.157   9.473
  512WAT      O 1777   3.733   8.737   5.904
  512WAT     H1 1778   3.707   8.774   5.814
  512WAT     H2 1779   3.673   8.777   5.974
  513WAT      O 1780   3.470   4.595   8.365
  513WAT     H1 1781   3.430   4.654   8.436
  513WAT     H2 1782   3.500   4.509   8.407
  514WAT      O 1783   2.510   3.947   2.297
  514WAT     H1 1784   2.420   3.991   2.304
  514WAT     H2 1785   2.581   4.017   2.286
  515WAT      O 1786   7.674   5.929   6.263
  515WAT     H1 1787   7.756   5.900   6.214
  515WAT     H2 1788   7.696   6.007   6.322
  516WAT      O 1789   5.990   5.750   6.217
  516WAT     H1 1790   6.018   5.654   6.221
  516WAT     H2 1791   6.071   5.808   6.227
  517WAT      O 1792   4.079   0.911   5.248
  517WAT     H1 1793   4.179   0.918   5.249
  517WAT     H2 1794   4.049   0.870   5.334
  518WAT      O 1795   2.719   0.280   4.236
  518WAT     H1 1796   2.725   0.380   4.234
  518WAT     H2 1797   2.638   0.251   4.185
  519WAT      O 1798   5.972   7.642   6.170
  519WAT     H1 1799   5.895   7.635   6.233
  519WAT     H2 1800   6.038   7.709   6.204
  520WAT      O 1801   2.196   9.214   3.919
  520WAT     H1 1802   2.118   9.265   3.956
  520WAT     H2 1803   2.208   9.236   3.823
  521WAT      O 1804   9.822   0.328   0.472
  521WAT     H1 1805   9.872   0.412   0.453
  521WAT     H2 1806   9.874   0.250   0.439
  522WAT      O 1807   3.295   0.245   1.194
  522WAT     H1 1808   3.322   0.171   1.256
  522WAT     H2 1809   3.342   0.329   1.220
  523WAT      O 1810   3.826   6.841   4.882
  523WAT     H1 1811   3.816   6.745   4.857
  523WAT     H2 1812   3.841   6.849   4.980
  524WAT      O 1813   3.613   2.835   7.418
  524WAT     H1 1814   3.586   2.874   7.330
  524WAT     H2 1815   3.644   2.909   7.478
  525WAT      O 1816   9.172   3.153   7.033
  525WAT     H1 1817   9.188   3.078   7.098
  525WAT     H2 1818   9.227   3.139   6.951
  526WAT      O 1819   1.722   8.120   3.181
  526WAT     H1 1820   1.799   8.173   3.145
  526WAT     H2 1821   1.749   8.079   3.268
  527WAT      O 1822   6.210   3.150   4.989
  527WAT     H1 1823   6.120   3.112   4.972
  527WAT     H2 1824   6.206   3.250   4.983
  528WAT      O 1825   3.284   5.338   2.337
  528WAT     H1 1826   3.214   5.295   2.395
  528WAT     H2 1827   3.361   5.276   2.327
  529WAT      O 1828   8.771   6.184   6.051
  529WAT     H1 1829   8.780   6.242   6.132
  529WAT     H2 1830   8.676   6.185   6.020
  530WAT      O 1831   8.153   4.174   9.796
  530WAT     H1 1832   8.105   4.188   9.710
  530WAT     H2 1833   8.131   4.248   9.860
  531WAT      O 1834   8.254   4.481   5.741
  531WAT     H1 1835   8.348   4.505   5.720
  531WAT     H2 1836   8.241   4.481   5.841
  532WAT      O 1837   0.955   9.576   0.111
  532WAT     H1 1838   0.940   9.600   0.207
  532WAT     H2 1839   0.983   9.657   0.061
  533WAT      O 1840   4.577   1.877   9.098
  533WAT     H1 1841   4.547   1.869   9.003
  533WAT     H2 1842   4.540   1.801   9.151
  534WAT      O 1843   0.306   3.409   4.426
  534WAT     H1 1844   0.279   3.504   4.414
  534WAT     H2 1845   0.394   3.393   4.379
  535WAT      O 1846   1.652   9.503   1.242
  535WAT     H1 1847   1.734   9.534   1.290
  535WAT     H2 1848   1.667   9.511   1.143
  536WAT      O 1849   5.121   1.105   4.554
  536WAT     H1 1850   5.074   1.039   4.496
  536WAT     H2 1851   5.055   1.173   4.586
  537WAT      O 1852   1.599   7.957   8.380
  537WAT     H1 1853   1.512   7.939   8.426
  537WAT     H2 1854   1.669   7.894   8.414
  538WAT      O 1855   2.387   5.312   5.836
  538WAT     H1 1856   2.397   5.222   5.877
  538WAT     H2 1857   2.477   5.349   5.813
  539WAT      O 1858   6.667   1.708   9.185
  539WAT     H1 1859   6.749   1.690   9.240
  539WAT     H2 1860   6.683   1.678   9.091
  540WAT      O 1861   4.460   8.425   4.672
  540WAT     H1 1862   4.488   8.399   4.764
  540WAT     H2 1863   4.443   8.523   4.669
  541WAT      O 1864   2.474   8.346   5.110
  541WAT     H1 1865   2.425   8.333   5.197
  541WAT     H2 1866   2.511   8.258   5.080
  542WAT      O 1867   6.673   7.623   0.016
  542WAT     H1 1868   6.649   7.704   0.070
  542WAT     H2 1869   6.660   7.541   0.071
  543WAT      O 1870   5.472   6.211   7.019
  543WAT     H1 1871   5.402   6.140   7.026
  543WAT     H2 1872   5.428   6.301   7.013
  544WAT      O 1873   4.635   3.749   5.306
  544WAT     H1 1874   4.670   3.685   5.238
  544WAT     H2 1875   4.609   3.835   5.262
  545WAT      O 1876   9.516   4.520   0.662
  545WAT     H1 1877   9.532   4.442   0.722
  545WAT     H2 1878   9.453   4.493   0.589
  546WAT      O 1879   8.664   1.526   9.119
  546WAT     H1 1880   8.661   1.427   9.106
  546WAT     H2 1881   8.731   1.566   9.057
  547WAT      O 1882   9.008   6.096   1.905
  547WAT     H1 1883   8.922   6.130   1.944
  547WAT     H2 1884   9.003   6.099   1.805
  548WAT      O 1885   5.776   1.585   9.312
  548WAT     H1 1886   5.768   1.684   9.322
  548WAT     H2 1887   5.812   1.563   9.221
  549WAT      O 1888   9.170   6.015   3.109
  549WAT     H1 1889   9.162   5.918   3.086
  549WAT     H2 1890   9.211   6.024   3.200
  550WAT      O 1891   6.001   0.204   7.959
  550WAT     H1 1892   5.910   0.232   7.989
  550WAT     H2 1893   6.049   0.159   8.035
  551WAT      O 1894   9.327   7.434   3.681
  551WAT     H1 1895   9.350   7.468   3.590
  551WAT     H2 1896   9.410   7.427   3.736
  552WAT      O 1897   6.734   2.864   0.269
  552WAT     H1 1898   6.764   2.867   0.174
  552WAT     H2 1899   6.719   2.769   0.297
  553WAT      O 1900   4.980   1.597   9.430
  553WAT     H1 1901   5.041   1.673   9.453
  553WAT     H2 1902   4.994   1.522   9.495
  554WAT      O 1903   3.692   1.586   5.977
  554WAT     H1 1904   3.622   1.578   6.049
  554WAT     H2 1905   3.761   1.516   5.990
  555WAT      O 1906   6.554   1.844   6.825
  555WAT     H1 1907   6.464   1.845   6.780
  555WAT     H2 1908   6.615   1.783   6.775
  556WAT      O 1909   6.787   8.020   7.348
  556WAT     H1 1910   6.760   8.081   7.422
  556WAT     H2 1911   6.716   7.952   7.333
  557WAT      O 1912   6.385   7.514   1.182
  557WAT     H1 1913   6.302   7.479   1.227
  557WAT     H2 1914   6.465   7.479   1.229
  558WAT      O 1915   6.223   7.338   6.962
  558WAT     H1 1916   6.310   7.317   6.917
  558WAT     H2 1917   6.156   7.267   6.940
  559WAT      O 1918   6.916   7.779   6.387
  559WAT     H1 1919   7.016   7.773   6.378
  559WAT     H2 1920   6.893   7.853   6.451
  560WAT      O 1921   3.193   5.427   4.159
  560WAT     H1 1922   3.257   5.451   4.232
  560WAT     H2 1923   3.197   5.496   4.087
  561WAT      O 1924   9.229   8.763   3.009
  561WAT     H1 1925   9.149   8.804   2.965
  561WAT     H2 1926   9.311   8.785   2.955
  562WAT      O 1927   3.305   0.466   4.250
  562WAT     H1 1928   3.268   0.420   4.331
  562WAT     H2 1929   3.381   0.524   4.276
  563WAT      O 1930   5.865   7.355   5.879
  563WAT     H1 1931   5.874   7.318   5.971
  563WAT     H2 1932   5.890   7.452   5.879
  564WAT      O 1933   5.805   1.632   2.459
  564WAT     H1 1934   5.780   1.535   2.459
  564WAT     H2 1935   5.722   1.687   2.451
  565WAT      O 1936   4.286   3.474   0.144
  565WAT     H1 1937   4.346   3.533   0.198
  565WAT     H2 1938   4.210   3.528   0.108
  566WAT      O 1939   9.618   3.270   7.890
  566WAT     H1 1940   9.545   3.225   7.839
  566WAT     H2 1941   9.675   3.201   7.935
  567WAT      O 1942   6.088   7.576   8.377
  567WAT     H1 1943   6.133   7.664   8.364
  567WAT     H2 1944   6.104   7.543   8.470
  568WAT      O 1945   2.864   2.711   9.305
  568WAT     H1 1946   2.855   2.657   9.221
  568WAT     H2 1947   2.883   2.649   9.381
  569WAT      O 1948   7.509   2.390   9.228
  569WAT     H1 1949   7.497   2.432   9.318
  569WAT     H2 1950   7.602   2.409   9.195
  570WAT      O 1951   9.125   9.024   2.169
  570WAT     H1 1952   9.047   8.976   2.209
  570WAT     H2 1953   9.100   9.057   2.078
  571WAT      O 1954   9.690   4.262   4.353
  571WAT     H1 1955   9.688   4.278   4.255
  571WAT     H2 1956   9.739   4.337   4.398
  572WAT      O 1957   7.684   6.901   3.238
  572WAT     H1 1958   7.707   6.998   3.227
  572WAT     H2 1959   7.595   6.882   3.195
  573WAT      O 1960   5.025   6.771   5.279
  573WAT     H1 1961   5.108   6.720   5.257
  573WAT     H2 1962   4.946   6.711   5.273
  574WAT      O 1963   4.931   8.820   4.662
  574WAT     H1 1964   4.888   8.740   4.621
  574WAT     H2 1965   4.998   8.858   4.599
  575WAT      O 1966   6.316   2.418   0.836
  575WAT     H1 1967   6.249   2.469   0.891
  575WAT     H2 1968   6.269   2.375   0.759
  576WAT      O 1969   0.783   6.808   0.586
  576WAT     H1 1970   0.802   6.775   0.493
  576WAT     H2 1971   0.868   6.839   0.628
  577WAT      O 1972   1.505   7.108   5.317
  577WAT     H1 1973   1.577   7.121   5.386
  577WAT     H2 1974   1.545   7.119   5.225
  578WAT      O 1975   9.154   1.079   5.234
  578WAT     H1 1976   9.122   1.127   5.315
  578WAT     H2 1977   9.254   1.078   5.233
  579WAT      O 1978   8.134   7.380   0.175
  579WAT     H1 1979   8.132   7.295   0.227
  579WAT     H2 1980   8.042   7.402   0.142
  580WAT      O 1981   6.757   3.885   9.271
  580WAT     H1 1982   6.727   3.966   9.221
  580WAT     H2 1983   6.833   3.842   9.223
  581WAT      O 1984   9.514   8.500   4.933
  581WAT     H1 1985   9.595   8.558   4.924
  581WAT     H2 1986   9.468   8.519   5.020
  582WAT      O 1987   0.557   0.576   3.513
  582WAT     H1 1988   0.565   0.564   3.414
  582WAT     H2 1989   0.479   0.525   3.548
  583WAT      O 1990   5.592   2.691   3.940
  583WAT     H1 1991   5.542   2.771   3.975
  583WAT     H2 1992   5.667   2.669   4.001
  584WAT      O 1993   2.200   2.465   3.012
  584WAT     H1 1994   2.187   2.407   3.092
  584WAT     H2 1995   2.279   2.432   2.959
  585WAT      O 1996   5.056   5.971   1.808
  585WAT     H1 1997   5.055   5.911   1.728
  585WAT     H2 1998   4.983   5.944   1.871
  586WAT      O 1999   7.038   2.537   0.148
  586WAT     H1 2000   7.111   2.476   0.179
  586WAT     H2 2001   7.035   2.617   0.207
  587WAT      O 2002   0.175   1.574   8.866
  587WAT     H1 2003   0.144   1.479   8.863
  587WAT     H2 2004   0.099   1.634   8.889
  588WAT      O 2005   8.987   2.244   6.675
  588WAT     H1 2006   8.918   2.262   6.604
  588WAT     H2 2007   8.968   2.156   6.719
  589WAT      O 2008   3.782   5.047   1.679
  589WAT     H1 2009   3.862   5.103   1.657
  589WAT     H2 2010   3.750   5.070   1.771
  590WAT      O 2011   7.006   6.384   0.204
  590WAT     H1 2012   7.053   6.304   0.168
  590WAT     H2 2013   6.961   6.360   0.290
  591WAT      O 2014   7.902   0.418   7.028
  591WAT     H1 2015   7.897   0.507   6.982
  591WAT     H2 2016   7.998   0.398   7.050
  592WAT      O 2017   3.007   2.538   6.485
  592WAT     H1 2018   2.929   2.483   6.455
  592WAT     H2 2019   3.055   2.492   6.559
  593WAT      O 2020   9.683   3.938   2.455
  593WAT     H1 2021   9.689   3.842   2.427
  593WAT     H2 2022   9.587   3.966   2.458
  594WAT      O 2023   5.885   5.120   0.780
  594WAT     H1 2024   5.824   5.197   0.797
  594WAT     H2 2025   5.902   5.071   0.866
  595WAT      O 2026   5.627   4.458   0.769
  595WAT     H1 2027   5.610   4.369   0.727
  595WAT     H2 2028   5.725   4.478   0.767
  596WAT      O 2029   8.434   4.420   5.028
  596WAT     H1 2030   8.422   4.404   4.930
  596WAT     H2 2031   8.415   4.335   5.078
  597WAT      O 2032   8.575   8.712   7.092
  597WAT     H1 2033   8.487   8.721   7.138
  597WAT     H2 2034   8.628   8.796   7.107
  598WAT      O 2035   5.448   5.226   3.785
  598WAT     H1 2036   5.412   5.284   3.858
  598WAT     H2 2037   5.545   5.206   3.804
  599WAT      O 2038   7.434   7.245   9.809
  599WAT     H1 2039   7.475   7.288   9.728
  599WAT     H2 2040   7.466   7.151   9.816
  600WAT      O 2041   2.192   8.826   4.583
  600WAT     H1 2042   2.181   8.867   4.673
  600WAT     H2 2043   2.107   8.835   4.532
  601WAT      O 2044   2.439   7.655   7.007
  601WAT     H1 2045   2.398   7.565   6.997
  601WAT     H2 2046   2.388   7.722   6.952
  602WAT      O 2047   9.817   2.955   3.706
  602WAT     H1 2048   9.766   2.895   3.645
  602WAT     H2 2049   9.820   3.047   3.667
  603WAT      O 2050   9.836   6.825   7.181
  603WAT     H1 2051   9.810   6.730   7.162
  603WAT     H2 2052   9.759   6.885   7.160
  604WAT      O 2053   4.422   1.359   4.538
  604WAT     H1 2054   4.337   1.408   4.558
  604WAT     H2 2055   4.445   1.299   4.615
  605WAT      O 2056   0.308   2.418   3.477
  605WAT     H1 2057   0.347   2.444   3.389
  605WAT     H2 2058   0.219   2.374   3.462
  606WAT      O 2059   9.046   1.937   4.060
  606WAT     H1 2060   9.126   1.979   4.018
  606WAT     H2 2061   9.073   1.852   4.106
  607WAT      O 2062   8.254   7.484   0.407
  607WAT     H1 2063   8.221   7.416   0.472
  607WAT     H2 2064   8.225   7.460   0.315
  608WAT      O 2065   2.895   3.504   8.977
  608WAT     H1 2066   2.995   3.510   8.972
  608WAT     H2 2067   2.858   3.491   8.885
  609WAT      O 2068   9.055   4.627   7.229
  609WAT     H1 2069   9.112   4.553   7.192
  609WAT     H2 2070   8.960   4.598   7.230
  610WAT      O 2071   8.245   6.560   3.942
  610WAT     H1 2072   8.315   6.617   3.986
  610WAT     H2 2073   8.288   6.476   3.907
  611WAT      O 2074   6.656   9.842   7.817
  611WAT     H1 2075   6.741   9.865   7.864
  611WAT     H2 2076   6.637   9.745   7.828
  612WAT      O 2077   2.011   6.867   8.008
  612WAT     H1 2078   1.932   6.884   8.066
  612WAT     H2 2079   1.988   6.886   7.913
  613WAT      O 2080   9.391   2.459   9.435
  613WAT     H1 2081   9.293   2.455   9.458
  613WAT     H2 2082   9.440   2.388   9.486
  614WAT      O 2083   1.757   1.956   5.917
  614WAT     H1 2084   1.666   1.996   5.915
  614WAT     H2 2085   1.813   2.002   5.986
  615WAT      O 2086   5.339   3.114   0.116
  615WAT     H1 2087   5.269   3.154   0.057
  615WAT     H2 2088   5.304   3.108   0.210
  616WAT      O 2089   7.056   9.799   7.293
  616WAT     H1 2090   7.028   9.875   7.234
  616WAT     H2 2091   7.151   9.812   7.321
  617WAT      O 2092   9.383   3.795   6.924
  617WAT     H1 2093   9.477   3.810   6.955
  617WAT     H2 2094   9.372   3.828   6.830
  618WAT      O 2095   2.965   8.709   8.098
  618WAT     H1 2096   2.966   8.634   8.033
  618WAT     H2 2097   2.872   8.744   8.108
  619WAT      O 2098   8.389   9.277   6.274
  619WAT     H1 2099   8.340   9.209   6.327
  619WAT     H2 2100   8.446   9.231   6.205
  620WAT      O 2101   1.933   7.227   6.776
  620WAT     H1 2102   1.856   7.273   6.731
  620WAT     H2 2103   2.017   7.279   6.759
  621WAT      O 2104   9.790   9.676   6.257
  621WAT     H1 2105   9.821   9.765   6.290
  621WAT     H2 2106   9.740   9.629   6.330
  622WAT      O 2107   2.557   5.190   9.027
  622WAT     H1 2108   2.617   5.121   8.986
  622WAT     H2 2109   2.568   5.277   8.979
  623WAT      O 2110   3.889   2.690   1.704
  623WAT     H1 2111   3.855   2.666   1.795
  623WAT     H2 2112   3.818   2.740   1.655
  624WAT      O 2113   0.096   3.604   7.767
  624WAT     H1 2114   0.029   3.677   7.755
  624WAT     H2 2115   0.128   3.572   7.677
  625WAT      O 2116   3.590   9.361   0.542
  625WAT     H1 2117   3.512   9.323   0.593
  625WAT     H2 2118   3.563   9.377   0.447
  626WAT      O 2119   0.187   4.099   1.714
  626WAT     H1 2120   0.223   4.183   1.756
  626WAT     H2 2121   0.091   4.112   1.692
  627WAT      O 2122   8.673   5.425   1.504
  627WAT     H1 2123   8.684   5.326   1.511
  627WAT     H2 2124   8.643   5.462   1.591
  628WAT      O 2125   9.804   5.729   5.912
  628WAT     H1 2126   9.811   5.746   6.010
  628WAT     H2 2127   9.710   5.742   5.882
  629WAT      O 2128   8.368   3.124   6.339
  629WAT     H1 2129   8.375   3.051   6.406
  629WAT     H2 2130   8.390   3.089   6.248
  630WAT      O 2131   6.385   1.392   5.854
  630WAT     H1 2132   6.478   1.362   5.874
  630WAT     H2 2133   6.352   1.452   5.927
  631WAT      O 2134   8.840   3.274   3.596
  631WAT     H1 2135   8.801   3.198   3.648
  631WAT     H2 2136   8.889   3.238   3.516
  632WAT      O 2137   1.914   4.304   6.841
  632WAT     H1 2138   1.822   4.329   6.812
  632WAT     H2 2139   1.915   4.289   6.940
  633WAT      O 2140   3.962   8.401   7.861
  633WAT     H1 2141   3.877   8.418   7.811
  633WAT     H2 2142   4.033   8.373   7.797
  634WAT      O 2143   3.979   3.101   8.219
  634WAT     H1 2144   4.000   3.003   8.218
  634WAT     H2 2145   3.880   3.114   8.215
  635WAT      O 2146   6.641   5.044   5.273
  635WAT     H1 2147   6.721   4.996   5.239
  635WAT     H2 2148   6.653   5.063   5.371
  636WAT      O 2149   5.507   2.991   3.394
  636WAT     H1 2150   5.488   3.085   3.364
  636WAT     H2 2151   5.422   2.942   3.407
  637WAT      O 2152   6.369   8.467   0.010
  637WAT     H1 2153   6.359   8.411   0.092
  637WAT     H2 2154   6.342   8.413  -0.070
  638WAT      O 2155   1.605   7.860   6.572
  638WAT     H1 2156   1.695   7.885   6.605
  638WAT     H2 2157   1.538   7.870   6.646
  639WAT      O 2158   8.013   0.818   1.972
  639WAT     H1 2159   7.999   0.731   1.923
  639WAT     H2 2160   8.036   0.889   1.906
  640WAT      O 2161   4.333   8.166   1.162
  640WAT     H1 2162   4.393   8.106   1.215
  640WAT     H2 2163   4.389   8.234   1.114
  641WAT      O 2164   2.677   4.976   4.115
  641WAT     H1 2165   2.663   5.000   4.019
  641WAT     H2 2166   2.755   4.913   4.122
  642WAT      O 2167   5.639   8.761   0.609
  642WAT     H1 2168   5.645   8.824   0.532
  642WAT     H2 2169   5.731   8.743   0.645
  643WAT      O 2170   1.353   1.842   5.342
  643WAT     H1 2171   1.307   1.755   5.358
  643WAT     H2 2172   1.437   1.827   5.289
  644WAT      O 2173   0.344   0.951   3.646
  644WAT     H1 2174   0.290   0.875   3.610
  644WAT     H2 2175   0.406   0.985   3.574
  645WAT      O 2176   2.052   8.434   6.427
  645WAT     H1 2177   2.140   8.388   6.411
  645WAT     H2 2178   2.012   8.400   6.512
  646WAT      O 2179   2.304   6.745   5.038
  646WAT     H1 2180   2.336   6.811   5.107
  646WAT     H2 2181   2.273   6.795   4.957
  647WAT      O 2182   1.734   7.664   1.655
  647WAT     H1 2183   1.834   7.674   1.658
  647WAT     H2 2184   1.701   7.682   1.562
  648WAT      O 2185   7.980   9.076   7.448
  648WAT     H1 2186   7.969   9.116   7.358
  648WAT     H2 2187   8.061   9.114   7.493
  649WAT      O 2188   7.441   7.431   7.010
  649WAT     H1 2189   7.393   7.488   7.077
  649WAT     H2 2190   7.433   7.335   7.037
  650WAT      O 2191   5.474   3.169   6.496
  650WAT     H1 2192   5.566   3.134   6.514
  650WAT     H2 2193   5.420   3.099   6.450
  651WAT      O 2194   1.855   8.587   2.765
  651WAT     H1 2195   1.813   8.670   2.804
  651WAT     H2 2196   1.862   8.517   2.836
  652WAT      O 2197   7.108   0.359   8.607
  652WAT     H1 2198   7.188   0.417   8.594
  652WAT     H2 2199   7.026   0.407   8.574
  653WAT      O 2200   2.780   0.521   8.606
  653WAT     H1 2201   2.735   0.609   8.622
  653WAT     H2 2202   2.839   0.498   8.684
  654WAT      O 2203   9.811   9.442   5.619
  654WAT     H1 2204   9.875   9.376   5.658
  654WAT     H2 2205   9.781   9.412   5.529
  655WAT      O 2206   4.516   2.766   8.166
  655WAT     H1 2207   4.574   2.688   8.189
  655WAT     H2 2208   4.528   2.838   8.235
  656WAT      O 2209   2.968   6.443   7.809
  656WAT     H1 2210   2.873   6.419   7.793
  656WAT     H2 2211   2.973   6.526   7.865
  657WAT      O 2212   9.858   0.427   4.721
  657WAT     H1 2213   9.769   0.431   4.675
  657WAT     H2 2214   9.850   0.377   4.807
  658WAT      O 2215   6.791   9.837   1.847
  658WAT     H1 2216   6.720   9.907   1.840
  658WAT     H2 2217   6.752   9.747   1.826
  659WAT      O 2218   3.885   5.759   7.924
  659WAT     H1 2219   3.891   5.707   7.839
  659WAT     H2 2220   3.949   5.721   7.991
  660WAT      O 2221   6.122   1.574   0.937
  660WAT     H1 2222   6.104   1.497   0.875
  660WAT     H2 2223   6.218   1.570   0.967
  661WAT      O 2224   1.377   8.920   1.754
  661WAT     H1 2225   1.450   8.946   1.818
  661WAT     H2 2226   1.381   8.822   1.737
  662WAT      O 2227   9.255   8.183   9.895
  662WAT     H1 2228   9.190   8.123   9.850
  662WAT     H2 2229   9.299   8.241   9.825
  663WAT      O 2230   6.046   5.923   9.370
  663WAT     H1 2231   6.097   5.841   9.345
  663WAT     H2 2232   6.104   6.003   9.356
  664WAT      O 2233   2.271   8.209   6.221
  664WAT     H1 2234   2.214   8.137   6.262
  664WAT     H2 2235   2.299   8.273   6.292
  665WAT      O 2236   6.037   1.729   9.016
  665WAT     H1 2237   5.944   1.765   9.010
  665WAT     H2 2238   6.062   1.687   8.929
  666WAT      O 2239   2.842   5.332   5.381
  666WAT     H1 2240   2.764   5.394   5.387
  666WAT     H2 2241   2.927   5.384   5.392
  667WAT      O 2242   3.543   5.532   8.340
  667WAT     H1 2243   3.576   5.592   8.414
  667WAT     H2 2244   3.607   5.536   8.263
  668WAT      O 2245   8.299   0.356   2.402
  668WAT     H1 2246   8.314   0.420   2.327
  668WAT     H2 2247   8.291   0.406   2.488
  669WAT      O 2248   1.090   4.916   5.032
  669WAT     H1 2249   1.018   4.863   5.076
  669WAT     H2 2250   1.159   4.942   5.099
  670WAT      O 2251   5.524   1.088   0.519
  670WAT     H1 2252   5.538   0.996   0.556
  670WAT     H2 2253   5.507   1.152   0.595
  671WAT      O 2254   3.136   4.283   0.650
  671WAT     H1 2255   3.212   4.330   0.605
  671WAT     H2 2256   3.068   4.349   0.681
  672WAT      O 2257   7.698   6.433   3.693
  672WAT     H1 2258   7.602   6.412   3.671
  672WAT     H2 2259   7.738   6.356   3.743
  673WAT      O 2260   8.127   1.652   5.474
  673WAT     H1 2261   8.098   1.703   5.394
  673WAT     H2 2262   8.162   1.562   5.446
  674WAT      O 2263   5.339   1.571   7.630
  674WAT     H1 2264   5.300   1.479   7.618
  674WAT     H2 2265   5.438   1.567   7.622
  675WAT      O 2266   2.612   4.063   5.747
  675WAT     H1 2267   2.652   3.994   5.687
  675WAT     H2 2268   2.578   4.019   5.830
  676WAT      O 2269   5.480   0.360   8.614
  676WAT     H1 2270   5.472   0.456   8.585
  676WAT     H2 2271   5.504   0.304   8.535
  677WAT      O 2272   1.262   4.605   2.296
  677WAT     H1 2273   1.321   4.625   2.374
  677WAT     H2 2274   1.168   4.590   2.328
  678WAT      O 2275   5.377   1.593   5.665
  678WAT     H1 2276   5.460   1.647   5.679
  678WAT     H2 2277   5.374   1.519   5.732
  679WAT      O 2278   8.405   3.837   2.271
  679WAT     H1 2279   8.470   3.773   2.313
  679WAT     H2 2280   8.412   3.829   2.171
  680WAT      O 2281   0.949   8.959   1.557
  680WAT     H1 2282   0.963   8.859   1.556
  680WAT     H2 2283   1.021   9.002   1.502
  681WAT      O 2284   2.280   8.593   8.432
  681WAT     H1 2285   2.320   8.506   8.402
  681WAT     H2 2286   2.352   8.663   8.436
  682WAT      O 2287   3.368   1.074   8.860
  682WAT     H1 2288   3.425   1.151   8.887
  682WAT     H2 2289   3.405   0.990   8.899
  683WAT      O 2290   3.103   1.928   0.745
  683WAT     H1 2291   3.008   1.898   0.736
  683WAT     H2 2292   3.109   2.026   0.729
  684WAT      O 2293   9.053   3.734   5.387
  684WAT     H1 2294   8.956   3.754   5.371
  684WAT     H2 2295   9.096   3.709   5.300
  685WAT      O 2296   1.447   9.778   0.555
  685WAT     H1 2297   1.485   9.774   0.647
  685WAT     H2 2298   1.372   9.844   0.553
  686WAT      O 2299   8.963   4.488   1.710
  686WAT     H1 2300   8.981   4.414   1.646
  686WAT     H2 2301   8.927   4.567   1.661
  687WAT      O 2302   6.561   1.180   6.378
  687WAT     H1 2303   6.623   1.253   6.405
  687WAT     H2 2304   6.578   1.099   6.434
  688WAT      O 2305   0.696   9.619   6.873
  688WAT     H1 2306   0.795   9.618   6.860
  688WAT     H2 2307   0.674   9.566   6.955
  689WAT      O 2308   3.002   4.649   8.823
  689WAT     H1 2309   3.045   4.712   8.888
  689WAT     H2 2310   3.065   4.631   8.748
  690WAT      O 2311   3.797   8.284   0.093
  690WAT     H1 2312   3.782   8.259   0.188
  690WAT     H2 2313   3.869   8.226   0.054
  691WAT      O 2314   6.101   5.396   9.771
  691WAT     H1 2315   6.186   5.346   9.787
  691WAT     H2 2316   6.041   5.386   9.851
  692WAT      O 2317   0.579   2.565   5.322
  692WAT     H1 2318   0.626   2.635   5.374
  692WAT     H2 2319   0.572   2.593   5.226
  693WAT      O 2320   6.718   1.354   1.614
  693WAT     H1 2321   6.666   1.333   1.532
  693WAT     H2 2322   6.778   1.432   1.596
  694WAT      O 2323   0.435   3.612   9.735
  694WAT     H1 2324   0.385   3.687   9.691
  694WAT     H2 2325   0.510   3.648   9.789
  695WAT      O 2326   9.110   3.691   8.317
  695WAT     H1 2327   9.034   3.642   8.275
  695WAT     H2 2328   9.076   3.745   8.394
  696WAT      O 2329   4.618   6.395   5.771
  696WAT     H1 2330   4.697   6.359   5.822
  696WAT     H2 2331   4.648   6.472   5.715
  697WAT      O 2332   8.403   2.957   9.192
  697WAT     H1 2333   8.460   2.910   9.259
  697WAT     H2 2334   8.376   3.046   9.228
  698WAT      O 2335   1.122   3.407   1.861
  698WAT     H1 2336   1.206   3.427   1.912
  698WAT     H2 2337   1.130   3.442   1.768
  699WAT      O 2338   1.588   6.003   2.988
  699WAT     H1 2339   1.503   5.995   2.936
  699WAT     H2 2340   1.621   5.911   3.011
  700WAT      O 2341   6.184   7.828   6.250
  700WAT     H1 2342   6.281   7.849   6.263
  700WAT     H2 2343   6.129   7.908   6.273
  701WAT      O 2344   6.021   8.822   2.789
  701WAT     H1 2345   5.924   8.798   2.787
  701WAT     H2 2346   6.076   8.740   2.807
  702WAT      O 2347   6.563   3.768   2.445
  702WAT     H1 2348   6.572   3.730   2.537
  702WAT     H2 2349   6.467   3.788   2.426
  703WAT      O 2350   3.188   2.470   1.655
  703WAT     H1 2351   3.151   2.393   1.603
  703WAT     H2 2352   3.181   2.553   1.599
  704WAT      O 2353   0.337   9.325   8.718
  704WAT     H1 2354   0.294   9.235   8.724
  704WAT     H2 2355   0.290   9.379   8.648
  705WAT      O 2356   8.844   5.548   6.545
  705WAT     H1 2357   8.798   5.468   6.507
  705WAT     H2 2358   8.941   5.547   6.519
  706WAT      O 2359   4.379   6.176   2.566
  706WAT     H1 2360   4.461   6.148   2.516
  706WAT     H2 2361   4.317   6.223   2.503
  707WAT      O 2362   8.041   1.303   0.221
  707WAT     H1 2363   7.975   1.231   0.241
  707WAT     H2 2364   8.001   1.392   0.246
  708WAT      O 2365   6.200   5.148   1.804
  708WAT     H1 2366   6.228   5.187   1.891
  708WAT     H2 2367   6.214   5.215   1.731
  709WAT      O 2368   2.850   6.749   6.292
  709WAT     H1 2369   2.751   6.755   6.282
  709WAT     H2 2370   2.877   6.776   6.384
  710WAT      O 2371   4.766   4.787   1.961
  710WAT     H1 2372   4.815   4.703   1.986
  710WAT     H2 2373   4.831   4.863   1.955
  711WAT      O 2374   2.814   4.110   3.948
  711WAT     H1 2375   2.892   4.172   3.937
  711WAT     H2 2376   2.802   4.088   4.045
  712WAT      O 2377   1.184   5.189   2.849
  712WAT     H1 2378   1.216   5.202   2.755
  712WAT     H2 2379   1.086   5.209   2.853
  713WAT      O 2380   5.754   6.698   9.231
  713WAT     H1 2381   5.690   6.652   9.293
  713WAT     H2 2382   5.847   6.668   9.251
  714WAT      O 2383   0.960   1.175   6.494
  714WAT     H1 2384   0.999   1.143   6.580
  714WAT     H2 2385   0.936   1.097   6.437
  715WAT      O 2386   6.600   2.922   5.025
  715WAT     H1 2387   6.645   2.861   5.091
  715WAT     H2 2388   6.529   2.975   5.072
  716WAT      O 2389   3.579   5.895   4.947
  716WAT     H1 2390   3.606   5.840   5.026
  716WAT     H2 2391   3.506   5.957   4.973
  717WAT      O 2392   2.306   7.788   0.956
  717WAT     H1 2393   2.258   7.843   0.887
  717WAT     H2 2394   2.240   7.755   1.024
  718WAT      O 2395   1.572   6.975   5.726
  718WAT     H1 2396   1.529   7.051   5.775
  718WAT     H2 2397   1.671   6.981   5.735
  719WAT      O 2398   7.253   0.185   7.549
  719WAT     H1 2399   7.301   0.232   7.622
  719WAT     H2 2400   7.167   0.148   7.583
  720WAT      O 2401   5.204   7.298   5.508
  720WAT     H1 2402   5.123   7.253   5.545
  720WAT     H2 2403   5.187   7.396   5.499
  721WAT      O 2404   2.713   0.201   8.562
  721WAT     H1 2405   2.728   0.299   8.549
  721WAT     H2 2406   2.798   0.158   8.593
  722WAT      O 2407   9.864   5.728   3.900
  722WAT     H1 2408   9.839   5.714   3.804
  722WAT     H2 2409   9.867   5.826   3.920
  723WAT      O 2410   7.672   6.751   9.783
  723WAT     H1 2411   7.709   6.836   9.745
  723WAT     H2 2412   7.652   6.687   9.708
  724WAT      O 2413   9.167   6.968   2.849
  724WAT     H1 2414   9.153   7.056   2.804
  724WAT     H2 2415   9.084   6.941   2.897
  725WAT      O 2416   3.659   2.250   9.170
  725WAT     H1 2417   3.671   2.152   9.151
  725WAT     H2 2418   3.647   2.264   9.268
  726WAT      O 2419   8.504   4.000   1.926
  726WAT     H1 2420   8.439   4.030   1.996
  726WAT     H2 2421   8.482   4.044   1.839
  727WAT      O 2422   3.480   6.500   2.466
  727WAT     H1 2423   3.432   6.478   2.381
  727WAT     H2 2424   3.526   6.418   2.500
  728WAT      O 2425   0.568   0.796   8.594
  728WAT     H1 2426   0.559   0.698   8.614
  728WAT     H2 2427   0.652   0.831   8.634
  729WAT      O 2428   2.724   4.577   8.508
  729WAT     H1 2429   2.793   4.642   8.476
  729WAT     H2 2430   2.707   4.510   8.436
  730WAT      O 2431   2.080   7.602   6.402
  730WAT     H1 2432   2.057   7.625   6.496
  730WAT     H2 2433   2.074   7.503   6.389
  731WAT      O 2434   0.099   6.654   4.276
  731WAT     H1 2435   0.105   6.556   4.259
  731WAT     H2 2436   0.175   6.700   4.229
  732WAT      O 2437   6.188   5.228   3.683
  732WAT     H1 2438   6.209   5.325   3.694
  732WAT     H2 2439   6.240   5.190   3.607
  733WAT      O 2440   0.187   0.666   1.640
  733WAT     H1 2441   0.089   0.687   1.643
  733WAT     H2 2442   0.211   0.635   1.548
  734WAT      O 2443   3.085   8.515   3.636
  734WAT     H1 2444   3.057   8.597   3.687
  734WAT     H2 2445   3.172   8.482   3.672
  735WAT      O 2446   3.428   7.645   6.901
  735WAT     H1 2447   3.457   7.661   6.995
  735WAT     H2 2448   3.504   7.666   6.839
  736WAT      O 2449   5.638   3.992   4.982
  736WAT     H1 2450   5.549   4.001   5.026
  736WAT     H2 2451   5.668   4.081   4.947
  737WAT      O 2452   8.857   9.193   4.887
  737WAT     H1 2453   8.827   9.108   4.844
  737WAT     H2 2454   8.780   9.257   4.890
  738WAT      O 2455   2.572   4.411   4.959
  738WAT     H1 2456   2.521   4.326   4.966
  738WAT     H2 2457   2.542   4.474   5.030
  739WAT      O 2458   2.067   6.439   4.078
  739WAT     H1 2459   2.102   6.346   4.069
  739WAT     H2 2460   1.967   6.437   4.086
  740WAT      O 2461   8.715   6.541   6.044
  740WAT     H1 2462   8.712   6.480   6.123
  740WAT     H2 2463   8.622   6.557   6.011
  741WAT      O 2464   9.353   7.485   8.700
  741WAT     H1 2465   9.428   7.548   8.679
  741WAT     H2 2466   9.288   7.529   8.762
  742WAT      O 2467   3.317   6.680   7.224
  742WAT     H1 2468   3.311   6.720   7.133
  742WAT     H2 2469   3.403   6.630   7.234
  743WAT      O 2470   9.233   9.239   4.315
  743WAT     H1 2471   9.305   9.257   4.382
  743WAT     H2 2472   9.206   9.143   4.319
  744WAT      O 2473   9.225   5.536   7.956
  744WAT     H1 2474   9.217   5.615   7.894
  744WAT     H2 2475   9.191   5.561   8.046
  745WAT      O 2476   1.582   0.932   3.038
  745WAT     H1 2477   1.634   1.010   3.004
  745WAT     H2 2478   1.616   0.848   2.996
  746WAT      O 2479   9.075   4.212   2.760
  746WAT     H1 2480   9.033   4.272   2.828
  746WAT     H2 2481   9.142   4.153   2.804
  747WAT      O 2482   3.684   7.692   6.815
  747WAT     H1 2483   3.694   7.783   6.775
  747WAT     H2 2484   3.725   7.691   6.906
  748WAT      O 2485   2.543   0.973   5.294
  748WAT     H1 2486   2.512   1.026   5.215
  748WAT     H2 2487   2.600   1.030   5.352
  749WAT      O 2488   1.966   6.951   5.512
  749WAT     H1 2489   1.916   6.959   5.426
  749WAT     H2 2490   2.017   6.864   5.513
  750WAT      O 2491   0.631   4.250   0.443
  750WAT     H1 2492   0.710   4.308   0.425
  750WAT     H2 2493   0.653   4.184   0.515
  751WAT      O 2494   7.331   7.852   4.407
  751WAT     H1 2495   7.307   7.943   4.374
  751WAT     H2 2496   7.379   7.802   4.334
  752WAT      O 2497   2.054   2.032   8.461
  752WAT     H1 2498   1.993   2.009   8.386
  752WAT     H2 2499   2.099   1.948   8.494
  753WAT      O 2500   2.070   4.886   5.447
  753WAT     H1 2501   1.982   4.858   5.406
  753WAT     H2 2502   2.127   4.805   5.459
  754WAT      O 2503   9.268   2.607   3.663
  754WAT     H1 2504   9.358   2.650   3.668
  754WAT     H2 2505   9.231   2.596   3.755
  755WAT      O 2506   6.672   3.141   1.468
  755WAT     H1 2507   6.716   3.221   1.508
  755WAT     H2 2508   6.576   3.161   1.451
  756WAT      O 2509   9.781   8.481   1.433
  756WAT     H1 2510   9.753   8.487   1.337
  756WAT     H2 2511   9.838   8.400   1.447
  757WAT      O 2512   9.707   0.577   3.321
  757WAT     H1 2513   9.628   0.612   3.371
  757WAT     H2 2514   9.684   0.488   3.281
  758WAT      O 2515   6.635   0.542   8.642
  758WAT     H1 2516   6.685   0.627   8.628
  758WAT     H2 2517   6.700   0.467   8.656
  759WAT      O 2518   5.626   4.851   5.033
  759WAT     H1 2519   5.588   4.850   4.940
  759WAT     H2 2520   5.719   4.888   5.031
  760WAT      O 2521   8.574   7.890   9.876
  760WAT     H1 2522   8.476   7.906   9.886
  760WAT     H2 2523   8.620   7.977   9.858
  761WAT      O 2524   0.621   7.345   5.689
  761WAT     H1 2525   0.686   7.409   5.730
  761WAT     H2 2526   0.657   7.314   5.601
  762WAT      O 2527   2.857   5.134   5.171
  762WAT     H1 2528   2.843   5.212   5.232
  762WAT     H2 2529   2.773   5.079   5.167
  763WAT      O 2530   1.292   6.124   1.053
  763WAT     H1 2531   1.239   6.203   1.022
  763WAT     H2 2532   1.382   6.155   1.084
  764WAT      O 2533   8.142   6.019   2.523
  764WAT     H1 2534   8.149   6.117   2.542
  764WAT     H2 2535   8.189   5.968   2.594
  765WAT      O 2536   3.528   4.345   7.720
  765WAT     H1 2537   3.461   4.418   7.706
  765WAT     H2 2538   3.480   4.259   7.735
  766WAT      O 2539   6.004   8.750   3.585
  766WAT     H1 2540   5.969   8.699   3.664
  766WAT     H2 2541   5.931   8.766   3.520
  767WAT      O 2542   4.663   7.194   2.587
  767WAT     H1 2543   4.640   7.098   2.604
  767WAT     H2 2544   4.704   7.233   2.669
  768WAT      O 2545   0.184   1.351   1.743
  768WAT     H1 2546   0.282   1.330   1.741
  768WAT     H2 2547   0.132   1.267   1.726
  769WAT      O 2548   7.520   8.880   4.594
  769WAT     H1 2549   7.533   8.823   4.513
  769WAT     H2 2550   7.423   8.906   4.602
  770WAT      O 2551   0.265   3.770   5.959
  770WAT     H1 2552   0.213   3.854   5.970
  770WAT     H2 2553   0.359   3.792   5.935
  771WAT      O 2554   2.006   1.147   6.214
  771WAT     H1 2555   1.989   1.141   6.312
  771WAT     H2 2556   2.008   1.056   6.174
  772WAT      O 2557   6.430   6.904   3.523
  772WAT     H1 2558   6.426   6.846   3.442
  772WAT     H2 2559   6.338   6.916   3.560
  773WAT      O 2560   4.409   2.468   9.390
  773WAT     H1 2561   4.317   2.430   9.382
  773WAT     H2 2562   4.434   2.473   9.487
  774WAT      O 2563   7.261   1.064   5.321
  774WAT     H1 2564   7.198   1.086   5.395
  774WAT     H2 2565   7.245   1.126   5.244
  775WAT      O 2566   2.811   0.081   2.950
  775WAT     H1 2567   2.744   0.111   3.017
  775WAT     H2 2568   2.766   0.064   2.863
  776WAT      O 2569   8.196   4.393   0.403
  776WAT     H1 2570   8.196   4.465   0.334
  776WAT     H2 2571   8.122   4.329   0.384
  777WAT      O 2572   9.641   6.911   2.674
  777WAT     H1 2573   9.628   7.003   2.709
  777WAT     H2 2574   9.581   6.896   2.595
  778WAT      O 2575   9.234   9.727   1.291
  778WAT     H1 2576   9.204   9.762   1.203
  778WAT     H2 2577   9.226   9.627   1.293
  779WAT      O 2578   9.248   8.411   1.747
  779WAT     H1 2579   9.254   8.503   1.709
  779WAT     H2 2580   9.288   8.410   1.839
  780WAT      O 2581   6.900   5.486   3.204
  780WAT     H1 2582   6.955   5.539   3.139
  780WAT     H2 2583   6.860   5.407   3.157
  781WAT      O 2584   5.578   6.007   9.689
  781WAT     H1 2585   5.510   5.942   9.721
  781WAT     H2 2586   5.646   5.959   9.633
  782WAT      O 2587   6.536   7.902   9.086
  782WAT     H1 2588   6.632   7.879   9.069
  782WAT     H2 2589   6.488   7.821   9.119
  783WAT      O 2590   9.344   0.476   1.213
  783WAT     H1 2591   9.375   0.500   1.121
  783WAT     H2 2592   9.380   0.542   1.279
  784WAT      O 2593   6.457   4.962   5.064
  784WAT     H1 2594   6.399   4.891   5.103
  784WAT     H2 2595   6.495   5.019   5.137
  785WAT      O 2596   0.107   6.792   3.185
  785WAT     H1 2597   0.112   6.779   3.086
  785WAT     H2 2598   0.151   6.715   3.231
  786WAT      O 2599   7.265   1.269   6.917
  786WAT     H1 2600   7.253   1.225   7.006
  786WAT     H2 2601   7.186   1.328   6.898
  787WAT      O 2602   6.797   9.808   3.919
  787WAT     H1 2603   6.826   9.867   3.993
  787WAT     H2 2604   6.842   9.719   3.928
  788WAT      O 2605   5.469   9.824   6.267
  788WAT     H1 2606   5.489   9.727   6.251
  788WAT     H2 2607   5.411   9.859   6.193
  789WAT      O 2608   4.972   8.466   5.339
  789WAT     H1 2609   4.996   8.529   5.265
  789WAT     H2 2610   4.876   8.477   5.363
  790WAT      O 2611   6.094   7.060   5.055
  790WAT     H1 2612   6.036   6.990   5.098
  790WAT     H2 2613   6.092   7.143   5.111
  791WAT      O 2614   4.705   3.591   1.847
  791WAT     H1 2615   4.712   3.650   1.767
  791WAT     H2 2616   4.759   3.630   1.922
  792WAT      O 2617   2.747   7.146   7.395
  792WAT     H1 2618   2.800   7.101   7.323
  792WAT     H2 2619   2.664   7.094   7.412
  793WAT      O 2620   6.296   4.826   0.180
  793WAT     H1 2621   6.263   4.734   0.158
  793WAT     H2 2622   6.396   4.825   0.186
  794WAT      O 2623   3.587   2.205   2.851
  794WAT     H1 2624   3.649   2.147   2.905
  794WAT     H2 2625   3.524   2.148   2.799
  795WAT      O 2626   2.249   6.143   4.113
  795WAT     H1 2627   2.315   6.070   4.134
  795WAT     H2 2628   2.298   6.223   4.079
  796WAT      O 2629   8.363   6.593   8.007
  796WAT     H1 2630   8.352   6.670   7.944
  796WAT     H2 2631   8.325   6.617   8.096
  797WAT      O 2632   9.732   2.830   4.346
  797WAT     H1 2633   9.717   2.918   4.300
  797WAT     H2 2634   9.821   2.793   4.319
  798WAT      O 2635   5.455   2.975   4.004
  798WAT     H1 2636   5.399   3.058   3.999
  798WAT     H2 2637   5.451   2.937   4.097
  799WAT      O 2638   5.790   3.170   8.990
  799WAT     H1 2639   5.700   3.139   9.021
  799WAT     H2 2640   5.840   3.094   8.950
  800WAT      O 2641   5.822   6.790   5.909
  800WAT     H1 2642   5.760   6.833   5.975
  800WAT     H2 2643   5.871   6.715   5.953
  801WAT      O 2644   6.636   5.958   1.240
  801WAT     H1 2645   6.670   5.865   1.226
  801WAT     H2 2646   6.712   6.023   1.231
  802WAT      O 2647   9.694   3.845   4.805
  802WAT     H1 2648   9.705   3.918   4.871
  802WAT     H2 2649   9.656   3.764   4.850
  803WAT      O 2650   3.833   2.344   6.683
  803WAT     H1 2651   3.778   2.326   6.602
  803WAT     H2 2652   3.885   2.429   6.671
  804WAT      O 2653   9.526   2.177   3.915
  804WAT     H1 2654   9.611   2.227   3.930
  804WAT     H2 2655   9.519   2.151   3.818
  805WAT      O 2656   3.049   9.014   8.096
  805WAT     H1 2657   3.060   8.920   8.128
  805WAT     H2 2658   3.030   9.073   8.174
  806WAT      O 2659   3.287   3.859   1.189
  806WAT     H1 2660   3.360   3.925   1.168
  806WAT     H2 2661   3.289   3.785   1.123
  807WAT      O 2662   0.330   5.987   4.811
  807WAT     H1 2663   0.266   5.923   4.853
  807WAT     H2 2664   0.355   6.057   4.877
  808WAT      O 2665   1.206   3.246   0.618
  808WAT     H1 2666   1.271   3.262   0.543
  808WAT     H2 2667   1.141   3.322   0.623
  809WAT      O 2668   4.605   1.355   1.903
  809WAT     H1 2669   4.567   1.430   1.957
  809WAT     H2 2670   4.541   1.329   1.831
  810WAT      O 2671   8.641   9.224   7.915
  810WAT     H1 2672   8.700   9.166   7.971
  810WAT     H2 2673   8.572   9.167   7.870
  811WAT      O 2674   6.964   0.254   6.890
  811WAT     H1 2675   6.883   0.197   6.906
  811WAT     H2 2676   6.935   0.343   6.855
  812WAT      O 2677   1.720   0.117   4.893
  812WAT     H1 2678   1.730   0.037   4.834
  812WAT     H2 2679   1.629   0.117   4.935
  813WAT      O 2680   3.857   4.033   4.017
  813WAT     H1 2681   3.819   3.995   4.101
  813WAT     H2 2682   3.885   4.128   4.034
  814WAT      O 2683   5.829   6.791   3.813
  814WAT     H1 2684   5.834   6.888   3.837
  814WAT     H2 2685   5.847   6.781   3.715
  815WAT      O 2686   0.166   9.364   0.111
  815WAT     H1 2687   0.158   9.266   0.096
  815WAT     H2 2688   0.098   9.394   0.177
  816WAT      O 2689   2.156   5.663   3.288
  816WAT     H1 2690   2.215   5.743   3.297
  816WAT     H2 2691   2.062   5.692   3.271
  817WAT      O 2692   5.821   5.577   9.447
  817WAT     H1 2693   5.916   5.577   9.477
  817WAT     H2 2694   5.772   5.499   9.486
  818WAT      O 2695   4.552   2.101   6.164
  818WAT     H1 2696   4.470   2.120   6.110
  818WAT     H2 2697   4.611   2.038   6.113
  819WAT      O 2698   3.388   0.096   5.122
  819WAT     H1 2699   3.325   0.122   5.195
  819WAT     H2 2700   3.467   0.048   5.161
  820WAT      O 2701   7.059   2.046   4.816
  820WAT     H1 2702   6.976   2.080   4.860
  820WAT     H2 2703   7.099   1.974   4.872
  821WAT      O 2704   0.187   5.489   8.001
  821WAT     H1 2705   0.185   5.390   8.011
  821WAT     H2 2706   0.115   5.517   7.937
  822WAT      O 2707   4.156   8.194   5.460
  822WAT     H1 2708   4.086   8.259   5.491
  822WAT     H2 2709   4.225   8.184   5.532
  823WAT      O 2710   3.939   2.908   6.203
  823WAT     H1 2711   3.865   2.967   6.237
  823WAT     H2 2712   3.905   2.853   6.127
  824WAT      O 2713   3.265   5.289   5.150
  824WAT     H1 2714   3.261   5.278   5.249
  824WAT     H2 2715   3.289   5.201   5.108
  825WAT      O 2716   7.953   6.414   9.653
  825WAT     H1 2717   7.879   6.367   9.701
  825WAT     H2 2718   8.040   6.374   9.679
  826WAT      O 2719   0.467   9.372   1.777
  826WAT     H1 2720   0.372   9.353   1.750
  826WAT     H2 2721   0.485   9.332   1.867
  827WAT      O 2722   7.405   2.588   5.769
  827WAT     H1 2723   7.378   2.635   5.853
  827WAT     H2 2724   7.361   2.498   5.766
  828WAT      O 2725   6.635   0.160   5.630
  828WAT     H1 2726   6.555   0.147   5.689
  828WAT     H2 2727   6.710   0.197   5.683
  829WAT      O 2728   1.851   1.994   3.210
  829WAT     H1 2729   1.783   1.972   3.279
  829WAT     H2 2730   1.809   1.992   3.119
  830WAT      O 2731   5.206   9.800   2.183
  830WAT     H1 2732   5.146   9.870   2.145
  830WAT     H2 2733   5.205   9.720   2.122
  831WAT      O 2734   7.483   4.395   7.479
  831WAT     H1 2735   7.579   4.388   7.453
  831WAT     H2 2736   7.446   4.304   7.498
  832WAT      O 2737   4.668   0.287   1.172
  832WAT     H1 2738   4.576   0.321   1.192
  832WAT     H2 2739   4.677   0.273   1.073
  833WAT      O 2740   4.423   3.689   1.240
  833WAT     H1 2741   4.415   3.722   1.146
  833WAT     H2 2742   4.488   3.746   1.290
  834WAT      O 2743   7.690   9.455   8.151
  834WAT     H1 2744   7.688   9.383   8.221
  834WAT     H2 2745   7.785   9.485   8.137
  835WAT      O 2746   9.370   2.347   4.735
  835WAT     H1 2747   9.444   2.293   4.777
  835WAT     H2 2748   9.315   2.287   4.677
  836WAT      O 2749   0.679   5.838   6.325
  836WAT     H1 2750   0.580   5.830   6.335
  836WAT     H2 2751   0.721   5.749   6.341
  837WAT      O 2752   5.647   1.032   3.699
  837WAT     H1 2753   5.633   1.128   3.672
  837WAT     H2 2754   5.592   1.013   3.780
  838WAT      O 2755   7.033   1.767   7.753
  838WAT     H1 2756   7.102   1.735   7.817
  838WAT     H2 2757   7.044   1.866   7.738
  839WAT      O 2758   7.598   1.681   4.960
  839WAT     H1 2759   7.668   1.752   4.967
  839WAT     H2 2760   7.578   1.647   5.052
  840WAT      O 2761   8.267   1.937   0.818
  840WAT     H1 2762   8.355   1.922   0.773
  840WAT     H2 2763   8.222   2.016   0.777
  841WAT      O 2764   8.795   8.180   8.120
  841WAT     H1 2765   8.846   8.104   8.158
  841WAT     H2 2766   8.771   8.244   8.194
  842WAT      O 2767   9.610   7.277   1.057
  842WAT     H1 2768   9.601   7.280   0.958
  842WAT     H2 2769   9.521   7.256   1.098
  843WAT      O 2770   3.481   3.340   3.006
  843WAT     H1 2771   3.502   3.391   2.922
  843WAT     H2 2772   3.565   3.301   3.043
  844WAT      O 2773   8.186   7.981   3.734
  844WAT     H1 2774   8.136   8.060   3.699
  844WAT     H2 2775   8.284   8.002   3.736
  845WAT      O 2776   0.523   0.661   7.619
  845WAT     H1 2777   0.466   0.644   7.699
  845WAT     H2 2778   0.566   0.752   7.627
  846WAT      O 2779   1.458   4.919   1.919
  846WAT     H1 2780   1.446   4.994   1.984
  846WAT     H2 2781   1.407   4.939   1.835
  847WAT      O 2782   1.989   4.386   6.115
  847WAT     H1 2783   1.978   4.468   6.060
  847WAT     H2 2784   1.987   4.305   6.056
  848WAT      O 2785   8.967   6.429   4.270
  848WAT     H1 2786   8.910   6.510   4.281
  848WAT     H2 2787   8.922   6.350   4.311
  849WAT      O 2788   8.200   0.024   5.827
  849WAT     H1 2789   8.204  -0.066   5.872
  849WAT     H2 2790   8.254   0.021   5.743
  850WAT      O 2791   0.220   7.349   1.490
  850WAT     H1 2792   0.291   7.418   1.475
  850WAT     H2 2793   0.209   7.293   1.408
  851WAT      O 2794   3.212   3.955   3.737
  851WAT     H1 2795   3.307   3.965   3.767
  851WAT     H2 2796   3.158   3.914   3.811
  852WAT      O 2797   5.443   9.713   6.516
  852WAT     H1 2798   5.463   9.765   6.434
  852WAT     H2 2799   5.512   9.641   6.528
  853WAT      O 2800   7.465   1.946   5.183
  853WAT     H1 2801   7.429   1.916   5.095
  853WAT     H2 2802   7.559   1.978   5.171
  854WAT      O 2803   1.444   6.630   5.491
  854WAT     H1 2804   1.494   6.623   5.577
  854WAT     H2 2805   1.353   6.667   5.508
  855WAT      O 2806   2.113   5.911   6.904
  855WAT     H1 2807   2.199   5.931   6.857
  855WAT     H2 2808   2.067   5.996   6.927
  856WAT      O 2809   1.186   2.112   3.933
  856WAT     H1 2810   1.259   2.170   3.897
  856WAT     H2 2811   1.123   2.088   3.859
  857WAT      O 2812   6.656   2.550   8.514
  857WAT     H1 2813   6.734   2.530   8.573
  857WAT     H2 2814   6.685   2.613   8.441
  858WAT      O 2815   8.764   9.737   4.964
  858WAT     H1 2816   8.803   9.659   5.012
  858WAT     H2 2817   8.837   9.795   4.929
  859WAT      O 2818   7.599   2.375   9.800
  859WAT     H1 2819   7.639   2.426   9.877
  859WAT     H2 2820   7.544   2.300   9.835
  860WAT      O 2821   6.108   7.991   1.583
  860WAT     H1 2822   6.196   8.034   1.601
  860WAT     H2 2823   6.120   7.892   1.579
  861WAT      O 2824   1.141   0.251   4.278
  861WAT     H1 2825   1.241   0.258   4.283
  861WAT     H2 2826   1.100   0.317   4.340
  862WAT      O 2827   4.218   0.439   6.353
  862WAT     H1 2828   4.248   0.492   6.432
  862WAT     H2 2829   4.232   0.341   6.371
  863WAT      O 2830   7.070   0.432   5.329
  863WAT     H1 2831   7.056   0.361   5.260
  863WAT     H2 2832   7.169   0.446   5.342
  864WAT      O 2833   4.267   4.500   9.110
  864WAT     H1 2834   4.239   4.561   9.184
  864WAT     H2 2835   4.359   4.465   9.129
  865WAT      O 2836   0.424   9.199   5.300
  865WAT     H1 2837   0.440   9.291   5.335
  865WAT     H2 2838   0.500   9.139   5.326
  866WAT      O 2839   4.345   3.482   5.603
  866WAT     H1 2840   4.368   3.564   5.551
  866WAT     H2 2841   4.255   3.494   5.645
  867WAT      O 2842   2.440   7.608   8.672
  867WAT     H1 2843   2.540   7.615   8.673
  867WAT     H2 2844   2.403   7.667   8.600
  868WAT      O 2845   1.231   0.108   5.127
  868WAT     H1 2846   1.136   0.088   5.103
  868WAT     H2 2847   1.259   0.051   5.204
  869WAT      O 2848   0.731   2.012   2.484
  869WAT     H1 2849   0.794   1.947   2.527
  869WAT     H2 2850   0.725   2.095   2.540
  870WAT      O 2851   7.157   3.226   1.380
  870WAT     H1 2852   7.177   3.173   1.462
  870WAT     H2 2853   7.058   3.225   1.363
  871WAT      O 2854   3.890   1.134   0.658
  871WAT     H1 2855   3.885   1.155   0.560
  871WAT     H2 2856   3.971   1.079   0.676
  872WAT      O 2857   4.131   7.361   0.250
  872WAT     H1 2858   4.173   7.416   0.178
  872WAT     H2 2859   4.131   7.265   0.223
  873WAT      O 2860   4.694   5.447   6.315
  873WAT     H1 2861   4.699   5.445   6.415
  873WAT     H2 2862   4.782   5.476   6.278
  874WAT      O 2863   5.751   1.280   1.535
  874WAT     H1 2864   5.679   1.297   1.467
  874WAT     H2 2865   5.710   1.265   1.625
  875WAT      O 2866   7.755   9.097   8.791
  875WAT     H1 2867   7.793   9.028   8.730
  875WAT     H2 2868   7.655   9.100   8.780
  876WAT      O 2869   6.058   9.128   0.185
  876WAT     H1 2870   6.072   9.065   0.109
  876WAT     H2 2871   6.091   9.086   0.270
  877WAT      O 2872   4.924   5.111   9.308
  877WAT     H1 2873   4.914   5.032   9.246
  877WAT     H2 2874   4.842   5.167   9.303
  878WAT      O 2875   7.783   8.944   1.916
  878WAT     H1 2876   7.764   9.013   1.985
  878WAT     H2 2877   7.867   8.968   1.867
  879WAT      O 2878   9.427   0.290   2.665
  879WAT     H1 2879   9.338   0.325   2.633
  879WAT     H2 2880   9.471   0.359   2.721
  880WAT      O 2881   8.965   2.041   8.358
  880WAT     H1 2882   8.910   2.018   8.278
  880WAT     H2 2883   8.926   2.120   8.404
  881WAT      O 2884   5.960   6.154   9.848
  881WAT     H1 2885   5.966   6.055   9.836
  881WAT     H2 2886   6.050   6.196   9.831
  882WAT      O 2887   2.278   4.258   2.007
  882WAT     H1 2888   2.213   4.239   2.080
  882WAT     H2 2889   2.257   4.202   1.927
  883WAT      O 2890   8.596   3.974   5.117
  883WAT     H1 2891   8.630   4.046   5.057
  883WAT     H2 2892   8.649   3.890   5.102
  884WAT      O 2893   9.446   7.221   9.285
  884WAT     H1 2894   9.414   7.264   9.370
  884WAT     H2 2895   9.454   7.291   9.214
  885WAT      O 2896   1.866   1.368   3.355
  885WAT     H1 2897   1.839   1.276   3.328
  885WAT     H2 2898   1.790   1.411   3.406
  886WAT      O 2899   8.244   9.716   5.536
  886WAT     H1 2900   8.255   9.813   5.558
  886WAT     H2 2901   8.238   9.705   5.437
  887WAT      O 2902   1.037   8.246   1.707
  887WAT     H1 2903   1.078   8.155   1.699
  887WAT     H2 2904   0.976   8.263   1.630
  888WAT      O 2905   1.465   4.761   6.296
  888WAT     H1 2906   1.485   4.667   6.324
  888WAT     H2 2907   1.406   4.804   6.364
  889WAT      O 2908   0.774   3.664   1.222
  889WAT     H1 2909   0.787   3.597   1.149
  889WAT     H2 2910   0.780   3.756   1.184
  890WAT      O 2911   0.432   5.368   9.680
  890WAT     H1 2912   0.389   5.308   9.612
  890WAT     H2 2913   0.523   5.394   9.649
  891WAT      O 2914   7.519   8.433   0.262
  891WAT     H1 2915   7.548   8.527   0.282
  891WAT     H2 2916   7.470   8.432   0.174
  892WAT      O 2917   9.744   0.655   0.765
  892WAT     H1 2918   9.791   0.674   0.679
  892WAT     H2 2919   9.777   0.718   0.835
  893WAT      O 2920   1.103   2.744   3.505
  893WAT     H1 2921   1.158   2.676   3.457
  893WAT     H2 2922   1.016   2.704   3.531
  894WAT      O 2923   4.525   3.091   7.331
  894WAT     H1 2924   4.603   3.076   7.271
  894WAT     H2 2925   4.551   3.070   7.425
  895WAT      O 2926   4.578   8.518   9.024
  895WAT     H1 2927   4.617   8.429   9.002
  895WAT     H2 2928   4.651   8.584   9.039
  896WAT      O 2929   7.019   5.320   7.703
  896WAT     H1 2930   6.968   5.235   7.686
  896WAT     H2 2931   6.966   5.398   7.671
  897WAT      O 2932   2.975   6.525   6.218
  897WAT     H1 2933   2.945   6.620   6.221
  897WAT     H2 2934   3.036   6.511   6.140
  898WAT      O 2935   0.165   8.473   4.355
  898WAT     H1 2936   0.087   8.414   4.373
  898WAT     H2 2937   0.208   8.446   4.269
  899WAT      O 2938   0.470   1.930   4.149
  899WAT     H1 2939   0.554   1.914   4.098
  899WAT     H2 2940   0.464   2.026   4.176
  900WAT      O 2941   9.478   7.583   0.574
  900WAT     H1 2942   9.517   7.663   0.620
  900WAT     H2 2943   9.378   7.587   0.581
  901WAT      O 2944   8.153   5.993   5.787
  901WAT     H1 2945   8.075   5.952   5.740
  901WAT     H2 2946   8.225   6.015   5.720
  902WAT      O 2947   3.631   3.936   5.306
  902WAT     H1 2948   3.676   3.911   5.393
  902WAT     H2 2949   3.699   3.934   5.233
  903WAT      O 2950   0.965   1.979   4.568
  903WAT     H1 2951   0.937   2.029   4.486
  903WAT     H2 2952   0.910   2.009   4.646
  904WAT      O 2953   5.473   4.731   0.286
  904WAT     H1 2954   5.433   4.645   0.319
  904WAT     H2 2955   5.536   4.766   0.356
  905WAT      O 2956   5.217   6.077   0.027
  905WAT     H1 2957   5.224   6.131  -0.057
  905WAT     H2 2958   5.279   5.998   0.021
  906WAT      O 2959   0.475   3.705   2.160
  906WAT     H1 2960   0.386   3.701   2.206
  906WAT     H2 2961   0.467   3.760   2.077
  907WAT      O 2962   0.480   1.429   9.388
  907WAT     H1 2963   0.491   1.527   9.405
  907WAT     H2 2964   0.470   1.381   9.475
  908WAT      O 2965   3.374   3.271   7.335
  908WAT     H1 2966   3.342   3.363   7.355
  908WAT     H2 2967   3.381   3.219   7.420
  909WAT      O 2968   3.805   8.124   2.323
  909WAT     H1 2969   3.712   8.091   2.308
  909WAT     H2 2970   3.870   8.054   2.294
  910WAT      O 2971   4.025   9.166   1.113
  910WAT     H1 2972   3.961   9.089   1.106
  910WAT     H2 2973   4.022   9.204   1.205
  911WAT      O 2974   7.261   5.872   3.919
  911WAT     H1 2975   7.353   5.852   3.952
  911WAT     H2 2976   7.265   5.944   3.850
  912WAT      O 2977   2.388   4.715   9.124
  912WAT     H1 2978   2.374   4.758   9.214
  912WAT     H2 2979   2.364   4.618   9.131
  913WAT      O 2980   3.899   1.121   0.376
  913WAT     H1 2981   3.968   1.081   0.316
  913WAT     H2 2982   3.845   1.047   0.417
  914WAT      O 2983   2.706   3.071   0.040
  914WAT     H1 2984   2.735   3.062   0.135
  914WAT     H2 2985   2.607   3.054   0.033
  915WAT      O 2986   2.113   2.279   5.316
  915WAT     H1 2987   2.051   2.330   5.257
  915WAT     H2 2988   2.135   2.191   5.274
  916WAT      O 2989   6.780   5.182   5.924
  916WAT     H1 2990   6.808   5.099   5.972
  916WAT     H2 2991   6.860   5.224   5.881
  917WAT      O 2992   0.909   3.270   5.787
  917WAT     H1 2993   0.842   3.343   5.772
  917WAT     H2 2994   0.871   3.203   5.851
  918WAT      O 2995   2.272   0.452   3.772
  918WAT     H1 2996   2.229   0.368   3.739
  918WAT     H2 2997   2.260   0.524   3.703
  919WAT      O 2998   6.896   5.043   8.696
  919WAT     H1 2999   6.818   4.981   8.684
  919WAT     H2 3000   6.966   4.999   8.753
  920WAT      O 3001   3.858   3.015   2.611
  920WAT     H1 3002   3.864   3.046   2.516
  920WAT     H2 3003   3.928   2.946   2.628
  921WAT      O 3004   0.179   6.477   0.006
  921WAT     H1 3005   0.181   6.569   0.047
  921WAT     H2 3006   0.271   6.437   0.009
  922WAT      O 3007   5.106   2.198   4.621
  922WAT     H1 3008   5.040   2.256   4.574
  922WAT     H2 3009   5.064   2.161   4.704
  923WAT      O 3010   8.258   6.256   1.479
  923WAT     H1 3011   8.191   6.224   1.546
  923WAT     H2 3012   8.214   6.267   1.390
  924WAT      O 3013   6.639   8.504   9.223
  924WAT     H1 3014   6.727   8.471   9.189
  924WAT     H2 3015   6.612   8.586   9.173
  925WAT      O 3016   3.435   5.939   8.350
  925WAT     H1 3017   3.502   5.897   8.411
  925WAT     H2 3018   3.474   5.945   8.258
  926WAT      O 3019   1.813   7.863   5.416
  926WAT     H1 3020   1.902   7.908   5.406
  926WAT     H2 3021   1.741   7.932   5.415
  927WAT      O 3022   4.208   3.089   5.649
  927WAT     H1 3023   4.126   3.130   5.608
  927WAT     H2 3024   4.289   3.125   5.603
  928WAT      O 3025   6.207   3.353   7.132
  928WAT     H1 3026   6.292   3.306   7.158
  928WAT     H2 3027   6.165   3.306   7.055
  929WAT      O 3028   0.342   4.078   1.486
  929WAT     H1 3029   0.430   4.051   1.526
  929WAT     H2 3030   0.282   4.114   1.557
  930WAT      O 3031   3.198   3.969   4.987
  930WAT     H1 3032   3.154   3.900   4.930
  930WAT     H2 3033   3.170   4.060   4.958
  931WAT      O 3034   8.021   1.581   8.782
  931WAT     H1 3035   7.961   1.511   8.742
  931WAT     H2 3036   7.974   1.626   8.857
  932WAT      O 3037   5.646   8.045   3.785
  932WAT     H1 3038   5.674   8.125   3.733
  932WAT     H2 3039   5.635   8.070   3.881
  933WAT      O 3040   0.677   2.955   6.910
  933WAT     H1 3041   0.626   3.030   6.867
  933WAT     H2 3042   0.613   2.883   6.937
  934WAT      O 3043   5.138   5.450   2.450
  934WAT     H1 3044   5.116   5.464   2.353
  934WAT     H2 3045   5.099   5.364   2.480
  935WAT      O 3046   2.163   6.255   4.425
  935WAT     H1 3047   2.251   6.294   4.399
  935WAT     H2 3048   2.089   6.318   4.401
  936WAT      O 3049   1.868   3.588   6.489
  936WAT     H1 3050   1.928   3.659   6.526
  936WAT     H2 3051   1.846   3.609   6.394
  937WAT      O 3052   1.893   7.628   5.108
  937WAT     H1 3053   1.957   7.555   5.133
  937WAT     H2 3054   1.939   7.716   5.117
  938WAT      O 3055   2.792   8.427   5.639
  938WAT     H1 3056   2.811   8.330   5.627
  938WAT     H2 3057   2.704   8.438   5.687
  939WAT      O 3058   5.287   3.956   1.887
  939WAT     H1 3059   5.197   3.925   1.918
  939WAT     H2 3060   5.343   3.877   1.860
  940WAT      O 3061   9.176   6.273   7.286
  940WAT     H1 3062   9.248   6.265   7.355
  940WAT     H2 3063   9.196   6.211   7.210
  941WAT      O 3064   2.050   6.643   0.005
  941WAT     H1 3065   2.041   6.741   0.025
  941WAT     H2 3066   1.964   6.597   0.024
  942WAT      O 3067   0.021   8.113   7.820
  942WAT     H1 3068   0.048   8.179   7.890
  942WAT     H2 3069   0.070   8.027   7.836
  943WAT      O 3070   0.228   6.919   0.504
  943WAT     H1 3071   0.320   6.881   0.499
  943WAT     H2 3072   0.231   7.016   0.480
  944WAT      O 3073   9.694   3.928   8.344
  944WAT     H1 3074   9.711   4.026   8.357
  944WAT     H2 3075   9.651   3.913   8.254
  945WAT      O 3076   6.248   7.975   9.693
  945WAT     H1 3077   6.281   7.964   9.786
  945WAT     H2 3078   6.240   7.885   9.649
  946WAT      O 3079   1.358   0.032   2.185
  946WAT     H1 3080   1.350   0.017   2.086
  946WAT     H2 3081   1.452   0.059   2.207
  947WAT      O 3082   5.548   2.509   1.983
  947WAT     H1 3083   5.634   2.464   1.962
  947WAT     H2 3084   5.549   2.540   2.078
  948WAT      O 3085   5.033   3.024   6.920
  948WAT     H1 3086   5.044   3.119   6.890
  948WAT     H2 3087   5.123   2.982   6.931
  949WAT      O 3088   6.755   5.444   7.967
  949WAT     H1 3089   6.713   5.378   7.905
  949WAT     H2 3090   6.691   5.466   8.041
  950WAT      O 3091   8.688   6.363   9.589
  950WAT     H1 3092   8.774   6.360   9.640
  950WAT     H2 3093   8.638   6.277   9.603
  951WAT      O 3094   3.453   9.802   4.213
  951WAT     H1 3095   3.465   9.718   4.160
  951WAT     H2 3096   3.495   9.879   4.164
  952WAT      O 3097   5.572   1.888   8.900
  952WAT     H1 3098   5.557   1.855   8.807
  952WAT     H2 3099   5.485   1.917   8.940
  953WAT      O 3100   9.211   2.246   8.499
  953WAT     H1 3101   9.169   2.334   8.476
  953WAT     H2 3102   9.204   2.184   8.421
  954WAT      O 3103   9.450   3.315   6.738
  954WAT     H1 3104   9.435   3.281   6.645
  954WAT     H2 3105   9.372   3.371   6.766
  955WAT      O 3106   7.321   6.992   9.105
  955WAT     H1 3107   7.408   6.989   9.154
  955WAT     H2 3108   7.246   7.000   9.171
  956WAT      O 3109   3.446   3.568   4.956
  956WAT     H1 3110   3.521   3.533   4.899
  956WAT     H2 3111   3.362   3.519   4.935
  957WAT      O 3112   9.418   2.992   7.936
  957WAT     H1 3113   9.500   2.938   7.952
  957WAT     H2 3114   9.338   2.942   7.969
  958WAT      O 3115   3.691   9.305   0.231
  958WAT     H1 3116   3.675   9.216   0.186
  958WAT     H2 3117   3.755   9.293   0.306
  959WAT      O 3118   9.807   8.173   1.073
  959WAT     H1 3119   9.907   8.173   1.078
  959WAT     H2 3120   9.769   8.129   1.154
  960WAT      O 3121   1.337   6.622   5.044
  960WAT     H1 3122   1.335   6.684   5.122
  960WAT     H2 3123   1.271   6.654   4.975
  961WAT      O 3124   7.923   7.700   7.134
  961WAT     H1 3125   7.846   7.746   7.178
  961WAT     H2 3126   7.915   7.601   7.146
  962WAT      O 3127   0.254   4.294   9.281
  962WAT     H1 3128   0.319   4.369   9.267
  962WAT     H2 3129   0.162   4.331   9.292
  963WAT      O 3130   3.628   5.580   6.141
  963WAT     H1 3131   3.595   5.592   6.048
  963WAT     H2 3132   3.641   5.669   6.185
  964WAT      O 3133   1.948   8.740   8.973
  964WAT     H1 3134   1.876   8.737   8.904
  964WAT     H2 3135   1.907   8.755   9.063
  965WAT      O 3136   2.374   0.406   5.063
  965WAT     H1 3137   2.365   0.495   5.017
  965WAT     H2 3138   2.339   0.413   5.157
  966WAT      O 3139   2.725   3.122   8.969
  966WAT     H1 3140   2.655   3.050   8.977
  966WAT     H2 3141   2.809   3.082   8.933
  967WAT      O 3142   5.009   8.123   8.466
  967WAT     H1 3143   5.077   8.194   8.450
  967WAT     H2 3144   4.923   8.147   8.421
  968WAT      O 3145   7.436   6.963   5.645
  968WAT     H1 3146   7.380   6.957   5.563
  968WAT     H2 3147   7.514   6.901   5.637
  969WAT      O 3148   5.408   0.775   9.545
  969WAT     H1 3149   5.313   0.771   9.516
  969WAT     H2 3150   5.419   0.843   9.618
  970WAT      O 3151   8.253   4.214   4.239
  970WAT     H1 3152   8.204   4.196   4.153
  970WAT     H2 3153   8.190   4.206   4.316
  971WAT      O 3154   8.760   9.148   8.571
  971WAT     H1 3155   8.786   9.058   8.608
  971WAT     H2 3156   8.678   9.180   8.619
  972WAT      O 3157   1.314   8.304   5.191
  972WAT     H1 3158   1.337   8.392   5.233
  972WAT     H2 3159   1.215   8.297   5.180
  973WAT      O 3160   9.636   4.105   2.047
  973WAT     H1 3161   9.679   4.185   2.090
  973WAT     H2 3162   9.702   4.031   2.042
  974WAT      O 3163   6.578   4.824   0.196
  974WAT     H1 3164   6.646   4.878   0.148
  974WAT     H2 3165   6.623   4.757   0.255
  975WAT      O 3166   5.345   7.261   0.018
  975WAT     H1 3167   5.373   7.205  -0.060
  975WAT     H2 3168   5.424   7.278   0.077
  976WAT      O 3169   5.518   6.614   9.379
  976WAT     H1 3170   5.550   6.520   9.388
  976WAT     H2 3171   5.421   6.614   9.354
  977WAT      O 3172   4.473   6.629   7.917
  977WAT     H1 3173   4.477   6.603   8.014
  977WAT     H2 3174   4.462   6.546   7.861
  978WAT      O 3175   1.019   2.938   9.576
  978WAT     H1 3176   0.948   2.869   9.561
  978WAT     H2 3177   1.035   2.989   9.491
  979WAT      O 3178   7.180   3.667   9.404
  979WAT     H1 3179   7.106   3.602   9.423
  979WAT     H2 3180   7.172   3.745   9.465
  980WAT      O 3181   6.930   0.788   8.366
  980WAT     H1 3182   6.945   0.885   8.346
  980WAT     H2 3183   6.936   0.734   8.282
  981WAT      O 3184   5.802   8.738   7.875
  981WAT     H1 3185   5.784   8.744   7.973
  981WAT     H2 3186   5.894   8.771   7.856
  982WAT      O 3187   9.493   9.770   1.377
  982WAT     H1 3188   9.398   9.750   1.353
  982WAT     H2 3189   9.548   9.688   1.362
  983WAT      O 3190   0.548   8.859   3.933
  983WAT     H1 3191   0.511   8.942   3.973
  983WAT     H2 3192   0.503   8.779   3.972
  984WAT      O 3193   3.484   5.517   1.131
  984WAT     H1 3194   3.439   5.456   1.066
  984WAT     H2 3195   3.498   5.606   1.088
  985WAT      O 3196   5.048   1.672   4.797
  985WAT     H1 3197   5.048   1.692   4.895
  985WAT     H2 3198   5.075   1.577   4.782
  986WAT      O 3199   1.128   4.559   0.822
  986WAT     H1 3200   1.144   4.466   0.856
  986WAT     H2 3201   1.110   4.620   0.900
  987WAT      O 3202   1.159   4.595   5.847
  987WAT     H1 3203   1.185   4.536   5.770
  987WAT     H2 3204   1.194   4.555   5.932
  988WAT      O 3205   3.476   5.017   2.054
  988WAT     H1 3206   3.482   5.116   2.040
  988WAT     H2 3207   3.393   4.996   2.106
  989WAT      O 3208   6.872   5.079   2.942
  989WAT     H1 3209   6.870   5.028   3.028
  989WAT     H2 3210   6.830   5.168   2.955
  990WAT      O 3211   7.236   3.802   9.169
  990WAT     H1 3212   7.241   3.767   9.263
  990WAT     H2 3213   7.304   3.874   9.157
  991WAT      O 3214   1.939   7.402   0.515
  991WAT     H1 3215   1.992   7.439   0.439
  991WAT     H2 3216   1.845   7.436   0.510
  992WAT      O 3217   8.276   6.603   4.712
  992WAT     H1 3218   8.256   6.697   4.683
  992WAT     H2 3219   8.283   6.600   4.811
  993WAT      O 3220   3.198   7.884   7.756
  993WAT     H1 3221   3.255   7.934   7.691
  993WAT     H2 3222   3.156   7.948   7.820
  994WAT      O 3223   7.267   6.616   3.289
  994WAT     H1 3224   7.284   6.672   3.370
  994WAT     H2 3225   7.187   6.651   3.240
  995WAT      O 3226   6.104   8.758   8.135
  995WAT     H1 3227   6.117   8.774   8.037
  995WAT     H2 3228   6.028   8.694   8.148
  996WAT      O 3229   4.249   0.657   6.206
  996WAT     H1 3230   4.338   0.697   6.224
  996WAT     H2 3231   4.237   0.576   6.263
  997WAT      O 3232   0.379   1.686   1.382
  997WAT     H1 3233   0.391   1.722   1.475
  997WAT     H2 3234   0.445   1.612   1.367
  998WAT      O 3235   0.659   2.091   4.411
  998WAT     H1 3236   0.569   2.058   4.438
  998WAT     H2 3237   0.677   2.179   4.454
  999WAT      O 3238   7.183   2.138   5.190
  999WAT     H1 3239   7.103   2.167   5.137
  999WAT     H2 3240   7.201   2.205   5.262
 1000WAT      O 3241   2.599   5.663   4.494
 1000WAT     H1 3242   2.678   5.640   4.551
 1000WAT     H2 3243   2.529   5.707   4.550
 1001WAT      O 3244   1.372   4.836   9.230
 1001WAT     H1 3245   1.470   4.816   9.235
 1001WAT     H2 3246   1.357   4.919   9.177
 1002WAT      O 3247   1.402   4.767   9.488
 1002WAT     H1 3248   1.390   4.849   9.544
 1002WAT     H2 3249   1.382   4.789   9.392
 1003WAT      O 3250   6.077   5.984   5.321
 1003WAT     H1 3251   6.058   5.991   5.223
 1003WAT     H2 3252   6.065   6.073   5.364
 1004WAT      O 3253   6.519   0.227   0.471
 1004WAT     H1 3254   6.449   0.191   0.409
 1004WAT     H2 3255   6.486   0.222   0.565
 1005WAT      O 3256   6.592   8.394   1.679
 1005WAT     H1 3257   6.691   8.395   1.694
 1005WAT     H2 3258   6.545   8.406   1.766
 1006WAT      O 3259   1.309   2.459   9.360
 1006WAT     H1 3260   1.402   2.493   9.346
 1006WAT     H2 3261   1.301   2.365   9.325
 1007WAT      O 3262   2.840   1.262   9.244
 1007WAT     H1 3263   2.905   1.192   9.273
 1007WAT     H2 3264   2.874   1.352   9.269
 1008WAT      O 3265   0.103   0.141   8.865
 1008WAT     H1 3266   0.059   0.231   8.870
 1008WAT     H2 3267   0.053   0.083   8.801
 1009WAT      O 3268   0.200   2.734   7.487
 1009WAT     H1 3269   0.139   2.759   7.412
 1009WAT     H2 3270   0.293   2.768   7.467
 1010WAT      O 3271   7.093   0.607   0.921
 1010WAT     H1 3272   7.175   0.665   0.913
 1010WAT     H2 3273   7.117   0.521   0.964
 1011WAT      O 3274   3.417   0.598   7.972
 1011WAT     H1 3275   3.497   0.549   8.008
 1011WAT     H2 3276   3.415   0.590   7.873
 1012WAT      O 3277   3.459   8.391   7.354
 1012WAT     H1 3278   3.421   8.483   7.361
 1012WAT     H2 3279   3.468   8.351   7.446
 1013WAT      O 3280   2.660   9.355   9.030
 1013WAT     H1 3281   2.668   9.360   8.930
 1013WAT     H2 3282   2.567   9.380   9.057
 1014WAT      O 3283   5.838   6.288   7.712
 1014WAT     H1 3284   5.858   6.364   7.775
 1014WAT     H2 3285   5.863   6.315   7.619
 1015WAT      O 3286   9.343   5.804   7.511
 1015WAT     H1 3287   9.362   5.706   7.507
 1015WAT     H2 3288   9.251   5.819   7.547
 1016WAT      O 3289   7.931   5.301   7.216
 1016WAT     H1 3290   7.913   5.342   7.305
 1016WAT     H2 3291   7.960   5.372   7.152
 1017WAT      O 3292   5.295   1.791   1.621
 1017WAT     H1 3293   5.343   1.876   1.601
 1017WAT     H2 3294   5.323   1.720   1.555
 1018WAT      O 3295   0.245   5.648   3.899
 1018WAT     H1 3296   0.146   5.663   3.897
 1018WAT     H2 3297   0.265   5.554   3.869
 1019WAT      O 3298   9.810   9.764   1.759
 1019WAT     H1 3299   9.724   9.789   1.802
 1019WAT     H2 3300   9.870   9.720   1.826
 1020WAT      O 3301   0.892   4.486   6.148
 1020WAT     H1 3302   0.835   4.560   6.183
 1020WAT     H2 3303   0.930   4.434   6.224
 1021WAT      O 3304   0.396   0.912   6.721
 1021WAT     H1 3305   0.353   0.925   6.810
 1021WAT     H2 3306   0.488   0.952   6.723
 1022WAT      O 3307   9.069   9.740   5.457
 1022WAT     H1 3308   9.058   9.765   5.553
 1022WAT     H2 3309   8.982   9.708   5.420
 1023WAT      O 3310   9.580   1.764   1.067
 1023WAT     H1 3311   9.535   1.836   1.119
 1023WAT     H2 3312   9.661   1.802   1.021
 1024WAT      O 3313   0.538   1.988   4.976
 1024WAT     H1 3314   0.611   1.951   5.034
 1024WAT     H2 3315   0.507   1.917   4.912
 1025WAT      O 3316   3.383   5.535   6.248
 1025WAT     H1 3317   3.335   5.591   6.180
 1025WAT     H2 3318   3.481   5.535   6.227
 1026WAT      O 3319   0.597   1.981   0.643
 1026WAT     H1 3320   0.582   1.898   0.590
 1026WAT     H2 3321   0.680   1.971   0.698
 1027WAT      O 3322   8.994   0.826   8.814
 1027WAT     H1 3323   9.046   0.741   8.819
 1027WAT     H2 3324   9.041   0.890   8.754
 1028WAT      O 3325   8.519   2.113   0.251
 1028WAT     H1 3326   8.599   2.060   0.223
 1028WAT     H2 3327   8.491   2.172   0.176
 1029WAT      O 3328   3.124   4.510   4.497
 1029WAT     H1 3329   3.170   4.441   4.552
 1029WAT     H2 3330   3.170   4.598   4.508
 1030WAT      O 3331   6.660   0.720   8.023
 1030WAT     H1 3332   6.675   0.802   7.967
 1030WAT     H2 3333   6.562   0.707   8.038
 1031WAT      O 3334   0.736   7.491   6.508
 1031WAT     H1 3335   0.649   7.502   6.461
 1031WAT     H2 3336   0.771   7.580   6.535
 1032WAT      O 3337   7.378   6.012   2.246
 1032WAT     H1 3338   7.358   5.914   2.244
 1032WAT     H2 3339   7.424   6.035   2.332
 1033WAT      O 3340   6.492   5.679   2.065
 1033WAT     H1 3341   6.398   5.678   2.030
 1033WAT     H2 3342   6.526   5.586   2.073
 1034WAT      O 3343   9.237   5.292   5.487
 1034WAT     H1 3344   9.195   5.201   5.490
 1034WAT     H2 3345   9.308   5.298   5.557
 1035WAT      O 3346   9.864   7.669   3.899
 1035WAT     H1 3347   9.767   7.677   3.877
 1035WAT     H2 3348   9.915   7.738   3.847
 1036WAT      O 3349   5.377   6.794   0.320
 1036WAT     H1 3350   5.456   6.794   0.258
 1036WAT     H2 3351   5.406   6.824   0.411
 1037WAT      O 3352   5.052   6.994   1.949
 1037WAT     H1 3353   4.992   7.027   2.022
 1037WAT     H2 3354   5.116   7.067   1.924
 1038WAT      O 3355   5.463   5.625   1.402
 1038WAT     H1 3356   5.370   5.642   1.369
 1038WAT     H2 3357   5.481   5.527   1.403
 1039WAT      O 3358   7.094   5.978   8.119
 1039WAT     H1 3359   7.109   5.905   8.052
 1039WAT     H2 3360   7.183   6.007   8.156
 1040WAT      O 3361   7.621   1.247   1.736
 1040WAT     H1 3362   7.619   1.277   1.641
 1040WAT     H2 3363   7.537   1.275   1.782
 1041WAT      O 3364   8.278   1.251   9.639
 1041WAT     H1 3365   8.249   1.197   9.560
 1041WAT     H2 3366   8.375   1.275   9.629
 1042WAT      O 3367   4.582   9.627   8.880
 1042WAT     H1 3368   4.654   9.602   8.814
 1042WAT     H2 3369   4.597   9.576   8.965
 1043WAT      O 3370   0.002   0.068   0.424
 1043WAT     H1 3371   0.042   0.032   0.340
 1043WAT     H2 3372  -0.052  -0.004   0.468
 1044WAT      O 3373   2.403   3.662   6.988
 1044WAT     H1 3374   2.503   3.668   6.981
 1044WAT     H2 3375   2.370   3.732   7.052
 1045WAT      O 3376   9.683   1.638   2.023
 1045WAT     H1 3377   9.587   1.614   2.039
 1045WAT     H2 3378   9.739   1.604   2.098
 1046WAT      O 3379   8.148   9.701   8.195
 1046WAT     H1 3380   8.057   9.742   8.204
 1046WAT     H2 3381   8.199   9.716   8.280
 1047WAT      O 3382   7.713   3.067   6.614
 1047WAT     H1 3383   7.753   3.101   6.529
 1047WAT     H2 3384   7.614   3.062   6.605
 1048WAT      O 3385   6.560   2.253   5.486
 1048WAT     H1 3386   6.576   2.325   5.553
 1048WAT     H2 3387   6.559   2.164   5.533
 1049WAT      O 3388   2.374   6.616   7.576
 1049WAT     H1 3389   2.458   6.670   7.564
 1049WAT     H2 3390   2.319   6.622   7.494
 1050WAT      O 3391   2.304   2.636   1.716
 1050WAT     H1 3392   2.289   2.662   1.811
 1050WAT     H2 3393   2.377   2.567   1.712
 1051WAT      O 3394   0.214   0.496   0.428
 1051WAT     H1 3395   0.167   0.448   0.355
 1051WAT     H2 3396   0.310   0.470   0.429
 1052WAT      O 3397   8.973   1.088   5.708
 1052WAT     H1 3398   8.995   1.155   5.779
 1052WAT     H2 3399   8.908   1.022   5.744
 1053WAT      O 3400   5.380   0.293   5.973
 1053WAT     H1 3401   5.442   0.340   5.910
 1053WAT     H2 3402   5.299   0.263   5.923
 1054WAT      O 3403   9.055   7.560   7.328
 1054WAT     H1 3404   9.095   7.602   7.247
 1054WAT     H2 3405   8.967   7.603   7.348
 1055WAT      O 3406   9.204   4.722   3.383
 1055WAT     H1 3407   9.296   4.750   3.410
 1055WAT     H2 3408   9.207   4.675   3.295
 1056WAT      O 3409   1.696   9.740   8.818
 1056WAT     H1 3410   1.742   9.655   8.793
 1056WAT     H2 3411   1.613   9.719   8.869
 1057WAT      O 3412   5.860   3.017   4.746
 1057WAT     H1 3413   5.842   2.919   4.739
 1057WAT     H2 3414   5.782   3.068   4.710
 1058WAT      O 3415   4.834   1.295   6.313
 1058WAT     H1 3416   4.817   1.392   6.331
 1058WAT     H2 3417   4.748   1.250   6.290
 1059WAT      O 3418   5.436   0.310   9.299
 1059WAT     H1 3419   5.501   0.280   9.368
 1059WAT     H2 3420   5.460   0.271   9.210
 1060WAT      O 3421   3.022   1.555   7.891
 1060WAT     H1 3422   2.929   1.570   7.925
 1060WAT     H2 3423   3.032   1.462   7.858
 1061WAT      O 3424   8.580   6.539   3.998
 1061WAT     H1 3425   8.631   6.623   3.985
 1061WAT     H2 3426   8.635   6.474   4.050
 1062WAT      O 3427   6.379   8.009   5.523
 1062WAT     H1 3428   6.375   7.928   5.582
 1062WAT     H2 3429   6.348   7.985   5.431
 1063WAT      O 3430   0.717   2.831   8.017
 1063WAT     H1 3431   0.661   2.787   8.087
 1063WAT     H2 3432   0.807   2.853   8.055
 1064WAT      O 3433   8.220   0.399   2.847
 1064WAT     H1 3434   8.213   0.397   2.947
 1064WAT     H2 3435   8.255   0.311   2.814
 1065WAT      O 3436   0.222   2.918   7.827
 1065WAT     H1 3437   0.253   2.945   7.919
 1065WAT     H2 3438   0.258   2.827   7.805
 1066WAT      O 3439   6.001   4.175   8.096
 1066WAT     H1 3440   5.960   4.114   8.029
 1066WAT     H2 3441   5.945   4.177   8.178
 1067WAT      O 3442   1.847   4.265   5.031
 1067WAT     H1 3443   1.916   4.207   4.987
 1067WAT     H2 3444   1.758   4.249   4.988
 1068WAT      O 3445   3.191   5.777   4.459
 1068WAT     H1 3446   3.178   5.691   4.509
 1068WAT     H2 3447   3.160   5.765   4.365
 1069WAT      O 3448   1.794   2.900   6.050
 1069WAT     H1 3449   1.776   2.811   6.092
 1069WAT     H2 3450   1.888   2.927   6.070
 1070WAT      O 3451   4.250   6.351   0.177
 1070WAT     H1 3452   4.342   6.321   0.155
 1070WAT     H2 3453   4.238   6.447   0.152
 1071WAT      O 3454   4.219   8.345   1.337
 1071WAT     H1 3455   4.212   8.321   1.434
 1071WAT     H2 3456   4.262   8.270   1.287
 1072WAT      O 3457   2.306   1.143   6.500
 1072WAT     H1 3458   2.391   1.121   6.549
 1072WAT     H2 3459   2.305   1.094   6.413
 1073WAT      O 3460   8.342   0.451   5.117
 1073WAT     H1 3461   8.430   0.498   5.126
 1073WAT     H2 3462   8.354   0.369   5.061
 1074WAT      O 3463   1.548   8.087   1.294
 1074WAT     H1 3464   1.565   8.027   1.216
 1074WAT     H2 3465   1.563   8.035   1.379
 1075WAT      O 3466   5.859   5.347   3.577
 1075WAT     H1 3467   5.849   5.264   3.523
 1075WAT     H2 3468   5.949   5.348   3.622
 1076WAT      O 3469   8.515   8.931   0.284
 1076WAT     H1 3470   8.422   8.893   0.288
 1076WAT     H2 3471   8.517   9.018   0.334
 1077WAT      O 3472   9.647   9.419   3.865
 1077WAT     H1 3473   9.747   9.430   3.866
 1077WAT     H2 3474   9.604   9.507   3.844
 1078WAT      O 3475   2.248   8.928   9.335
 1078WAT     H1 3476   2.327   8.893   9.283
 1078WAT     H2 3477   2.226   8.864   9.408
 1079WAT      O 3478   6.454   3.857   5.985
 1079WAT     H1 3479   6.456   3.758   5.967
 1079WAT     H2 3480   6.383   3.877   6.052
 1080WAT      O 3481   2.739   5.022   8.927
 1080WAT     H1 3482   2.831   5.025   8.966
 1080WAT     H2 3483   2.705   4.928   8.931
 1081WAT      O 3484   2.934   4.286   0.077
 1081WAT     H1 3485   2.928   4.187   0.070
 1081WAT     H2 3486   2.958   4.324  -0.012
 1082WAT      O 3487   3.707   3.592   3.726
 1082WAT     H1 3488   3.750   3.542   3.650
 1082WAT     H2 3489   3.632   3.537   3.763
 1083WAT      O 3490   1.305   5.545   4.634
 1083WAT     H1 3491   1.244   5.562   4.556
 1083WAT     H2 3492   1.358   5.628   4.653
 1084WAT      O 3493   2.234   4.512   5.789
 1084WAT     H1 3494   2.256   4.531   5.884
 1084WAT     H2 3495   2.136   4.493   5.780
 1085WAT      O 3496   8.557   5.102   3.122
 1085WAT     H1 3497   8.464   5.123   3.092
 1085WAT     H2 3498   8.615   5.181   3.104
 1086WAT      O 3499   9.284   1.834   2.920
 1086WAT     H1 3500   9.362   1.887   2.952
 1086WAT     H2 3501   9.300   1.804   2.825
 1087WAT      O 3502   9.412   2.811   6.983
 1087WAT     H1 3503   9.403   2.775   7.076
 1087WAT     H2 3504   9.409   2.911   6.986
 1088WAT      O 3505   5.387   0.011   1.432
 1088WAT     H1 3506   5.355  -0.041   1.352
 1088WAT     H2 3507   5.333  -0.016   1.512
 1089WAT      O 3508   0.555   1.928   7.092
 1089WAT     H1 3509   0.542   1.872   7.174
 1089WAT     H2 3510   0.474   1.923   7.034
 1090WAT      O 3511   3.009   5.873   8.972
 1090WAT     H1 3512   3.017   5.885   9.071
 1090WAT     H2 3513   3.100   5.862   8.933
 1091WAT      O 3514   5.841   8.808   3.391
 1091WAT     H1 3515   5.849   8.906   3.372
 1091WAT     H2 3516   5.745   8.781   3.387
 1092WAT      O 3517   5.452   1.391   8.401
 1092WAT     H1 3518   5.352   1.385   8.401
 1092WAT     H2 3519   5.485   1.410   8.494
 1093WAT      O 3520   0.648   0.075   6.681
 1093WAT     H1 3521   0.670   0.021   6.600
 1093WAT     H2 3522   0.552   0.102   6.678
 1094WAT      O 3523   3.160   1.640   7.657
 1094WAT     H1 3524   3.251   1.600   7.645
 1094WAT     H2 3525   3.117   1.602   7.739
 1095WAT      O 3526   4.646   4.717   4.611
 1095WAT     H1 3527   4.587   4.666   4.549
 1095WAT     H2 3528   4.590   4.767   4.677
 1096WAT      O 3529   2.913   9.030   4.565
 1096WAT     H1 3530   2.981   9.055   4.635
 1096WAT     H2 3531   2.895   9.109   4.506
 1097WAT      O 3532   8.948   7.949   7.782
 1097WAT     H1 3533   8.983   7.946   7.688
 1097WAT     H2 3534   8.950   7.857   7.822
 1098WAT      O 3535   3.164   2.409   1.298
 1098WAT     H1 3536   3.066   2.401   1.277
 1098WAT     H2 3537   3.185   2.355   1.379
 1099WAT      O 3538   6.221   1.787   9.217
 1099WAT     H1 3539   6.151   1.796   9.146
 1099WAT     H2 3540   6.229   1.691   9.244
 1100WAT      O 3541   2.730   3.052   2.965
 1100WAT     H1 3542   2.711   3.093   3.054
 1100WAT     H2 3543   2.732   3.124   2.895
 1101WAT      O 3544   3.358   0.781   2.841
 1101WAT     H1 3545   3.449   0.798   2.878
 1101WAT     H2 3546   3.360   0.788   2.741
 1102WAT      O 3547   9.753   4.020   0.049
 1102WAT     H1 3548   9.755   4.120   0.053
 1102WAT     H2 3549   9.684   3.991  -0.018
 1103WAT      O 3550   2.902   7.766   6.741
 1103WAT     H1 3551   2.868   7.747   6.649
 1103WAT     H2 3552   2.960   7.691   6.771
 1104WAT      O 3553   4.068   1.310   8.580
 1104WAT     H1 3554   4.053   1.316   8.679
 1104WAT     H2 3555   3.980   1.310   8.533
 1105WAT      O 3556   6.619   4.276   0.450
 1105WAT     H1 3557   6.581   4.272   0.543
 1105WAT     H2 3558   6.588   4.197   0.398
 1106WAT      O 3559   8.560   3.221   5.013
 1106WAT     H1 3560   8.513   3.222   4.925
 1106WAT     H2 3561   8.533   3.141   5.065
 1107WAT      O 3562   2.802   5.494   0.605
 1107WAT     H1 3563   2.708   5.461   0.614
 1107WAT     H2 3564   2.842   5.506   0.695
 1108WAT      O 3565   2.406   0.931   6.866
 1108WAT     H1 3566   2.447   0.874   6.938
 1108WAT     H2 3567   2.327   0.979   6.903
 1109WAT      O 3568   4.763   4.405   0.166
 1109WAT     H1 3569   4.686   4.462   0.197
 1109WAT     H2 3570   4.736   4.357   0.082
 1110WAT      O 3571   7.660   3.733   0.158
 1110WAT     H1 3572   7.564   3.706   0.145
 1110WAT     H2 3573   7.720   3.667   0.113
 1111WAT      O 3574   4.295   9.827   7.642
 1111WAT     H1 3575   4.345   9.758   7.695
 1111WAT     H2 3576   4.261   9.898   7.704
 1112WAT      O 3577   7.192   7.262   4.375
 1112WAT     H1 3578   7.263   7.233   4.311
 1112WAT     H2 3579   7.235   7.294   4.460
 1113WAT      O 3580   4.158   2.929   3.744
 1113WAT     H1 3581   4.060   2.913   3.734
 1113WAT     H2 3582   4.174   2.988   3.824
 1114WAT      O 3583   4.872   3.164   7.658
 1114WAT     H1 3584   4.875   3.187   7.561
 1114WAT     H2 3585   4.948   3.102   7.680
 1115WAT      O 3586   6.679   7.077   3.736
 1115WAT     H1 3587   6.608   7.046   3.799
 1115WAT     H2 3588   6.643   7.078   3.643
 1116WAT      O 3589   3.479   1.507   6.130
 1116WAT     H1 3590   3.402   1.540   6.075
 1116WAT     H2 3591   3.501   1.413   6.102
 1117WAT      O 3592   9.775   4.151   1.007
 1117WAT     H1 3593   9.769   4.211   0.927
 1117WAT     H2 3594   9.869   4.120   1.019
 1118WAT      O 3595   4.962   5.847   7.036
 1118WAT     H1 3596   4.878   5.814   6.994
 1118WAT     H2 3597   5.011   5.770   7.078
 1119WAT      O 3598   4.805   3.402   3.882
 1119WAT     H1 3599   4.844   3.481   3.834
 1119WAT     H2 3600   4.709   3.392   3.856
 1120WAT      O 3601   8.096   5.170   6.246
 1120WAT     H1 3602   8.093   5.148   6.344
 1120WAT     H2 3603   8.154   5.249   6.231
 1121WAT      O 3604   3.755   9.432   2.688
 1121WAT     H1 3605   3.818   9.506   2.662
 1121WAT     H2 3606   3.766   9.413   2.786
 1122WAT      O 3607   3.987   4.591   6.102
 1122WAT     H1 3608   4.054   4.640   6.159
 1122WAT     H2 3609   3.993   4.493   6.120
 1123WAT      O 3610   7.747   0.603   3.493
 1123WAT     H1 3611   7.818   0.615   3.425
 1123WAT     H2 3612   7.693   0.522   3.471
 1124WAT      O 3613   4.412   6.793   5.302
 1124WAT     H1 3614   4.391   6.870   5.362
 1124WAT     H2 3615   4.477   6.822   5.232
 1125WAT      O 3616   0.565   1.507   7.479
 1125WAT     H1 3617   0.647   1.510   7.422
 1125WAT     H2 3618   0.537   1.600   7.501
 1126WAT      O 3619   1.410   2.432   0.900
 1126WAT     H1 3620   1.449   2.346   0.867
 1126WAT     H2 3621   1.419   2.502   0.829
 1127WAT      O 3622   5.121   1.455   6.789
 1127WAT     H1 3623   5.081   1.503   6.710
 1127WAT     H2 3624   5.102   1.507   6.872
 1128WAT      O 3625   7.209   8.717   7.193
 1128WAT     H1 3626   7.115   8.685   7.207
 1128WAT     H2 3627   7.245   8.679   7.108
 1129WAT      O 3628   6.449   8.615   6.440
 1129WAT     H1 3629   6.391   8.615   6.521
 1129WAT     H2 3630   6.392   8.619   6.358
 1130WAT      O 3631   2.901   2.880   2.810
 1130WAT     H1 3632   2.830   2.930   2.859
 1130WAT     H2 3633   2.863   2.841   2.726
 1131WAT      O 3634   0.206   8.175   7.428
 1131WAT     H1 3635   0.213   8.199   7.332
 1131WAT     H2 3636   0.297   8.164   7.467
 1132WAT      O 3637   2.360   4.966   5.407
 1132WAT     H1 3638   2.366   5.041   5.473
 1132WAT     H2 3639   2.298   4.991   5.333
 1133WAT      O 3640   5.308   5.437   0.042
 1133WAT     H1 3641   5.301   5.407   0.138
 1133WAT     H2 3642   5.271   5.530   0.035
 1134WAT      O 3643   2.980   9.533   2.875
 1134WAT     H1 3644   2.882   9.519   2.863
 1134WAT     H2 3645   2.996   9.605   2.942
 1135WAT      O 3646   5.952   0.498   8.161
 1135WAT     H1 3647   6.033   0.447   8.135
 1135WAT     H2 3648   5.902   0.525   8.078
 1136WAT      O 3649   8.041   9.066   7.021
 1136WAT     H1 3650   7.971   9.080   7.090
 1136WAT     H2 3651   8.074   9.154   6.987
 1137WAT      O 3652   8.232   8.387   2.225
 1137WAT     H1 3653   8.213   8.484   2.213
 1137WAT     H2 3654   8.178   8.334   2.160
 1138WAT      O 3655   3.782   0.740   6.224
 1138WAT     H1 3656   3.770   0.711   6.129
 1138WAT     H2 3657   3.880   0.748   6.244
 1139WAT      O 3658   3.809   3.893   2.850
 1139WAT     H1 3659   3.713   3.914   2.830
 1139WAT     H2 3660   3.818   3.794   2.865
 1140WAT      O 3661   7.106   7.583   2.055
 1140WAT     H1 3662   7.146   7.500   2.014
 1140WAT     H2 3663   7.008   7.586   2.036
 1141WAT      O 3664   1.368   5.873   1.757
 1141WAT     H1 3665   1.435   5.807   1.722
 1141WAT     H2 3666   1.414   5.956   1.787
 1142WAT      O 3667   9.234   4.927   6.499
 1142WAT     H1 3668   9.263   4.839   6.537
 1142WAT     H2 3669   9.306   4.995   6.512
 1143WAT      O 3670   4.171   0.722   1.624
 1143WAT     H1 3671   4.137   0.779   1.548
 1143WAT     H2 3672   4.150   0.767   1.711
 1144WAT      O 3673   5.889   2.352   4.843
 1144WAT     H1 3674   5.908   2.395   4.754
 1144WAT     H2 3675   5.864   2.423   4.909
 1145WAT      O 3676   2.411   9.498   4.823
 1145WAT     H1 3677   2.450   9.462   4.908
 1145WAT     H2 3678   2.416   9.597   4.824
 1146WAT      O 3679   2.029   4.260   4.610
 1146WAT     H1 3680   2.077   4.199   4.547
 1146WAT     H2 3681   2.095   4.300   4.673
 1147WAT      O 3682   4.749   8.226   8.370
 1147WAT     H1 3683   4.655   8.194   8.358
 1147WAT     H2 3684   4.750   8.302   8.436
 1148WAT      O 3685   1.721   7.469   4.704
 1148WAT     H1 3686   1.721   7.537   4.777
 1148WAT     H2 3687   1.734   7.515   4.616
 1149WAT      O 3688   3.393   9.065   8.751
 1149WAT     H1 3689   3.484   9.106   8.752
 1149WAT     H2 3690   3.394   8.982   8.697
 1150WAT      O 3691   6.698   9.104   4.560
 1150WAT     H1 3692   6.768   9.172   4.538
 1150WAT     H2 3693   6.710   9.023   4.502
 1151WAT      O 3694   3.169   2.066   0.396
 1151WAT     H1 3695   3.185   2.112   0.309
 1151WAT     H2 3696   3.155   1.968   0.381
 1152WAT      O 3697   7.150   4.760   6.704
 1152WAT     H1 3698   7.085   4.723   6.638
 1152WAT     H2 3699   7.232   4.703   6.706
 1153WAT      O 3700   0.441   8.467   6.411
 1153WAT     H1 3701   0.366   8.402   6.398
 1153WAT     H2 3702   0.526   8.418   6.430
 1154WAT      O 3703   4.531   8.817   3.595
 1154WAT     H1 3704   4.458   8.750   3.610
 1154WAT     H2 3705   4.526   8.852   3.502
 1155WAT      O 3706   6.911   9.406   2.186
 1155WAT     H1 3707   6.820   9.365   2.179
 1155WAT     H2 3708   6.942   9.403   2.281
 1156WAT      O 3709   9.412   5.219   2.535
 1156WAT     H1 3710   9.391   5.171   2.450
 1156WAT     H2 3711   9.338   5.205   2.601
 1157WAT      O 3712   3.262   7.686   0.206
 1157WAT     H1 3713   3.178   7.647   0.168
 1157WAT     H2 3714   3.247   7.783   0.228
 1158WAT      O 3715   2.585   2.676   5.683
 1158WAT     H1 3716   2.586   2.775   5.696
 1158WAT     H2 3717   2.667   2.649   5.633
 1159WAT      O 3718   5.274   6.249   8.145
 1159WAT     H1 3719   5.280   6.167   8.203
 1159WAT     H2 3720   5.178   6.267   8.123
 1160WAT      O 3721   2.431   8.433   7.739
 1160WAT     H1 3722   2.340   8.467   7.714
 1160WAT     H2 3723   2.450   8.349   7.688
 1161WAT      O 3724   8.930   2.139   4.455
 1161WAT     H1 3725   8.872   2.215   4.487
 1161WAT     H2 3726   8.897   2.107   4.366
 1162WAT      O 3727   8.567   2.591   3.632
 1162WAT     H1 3728   8.530   2.683   3.641
 1162WAT     H2 3729   8.644   2.593   3.567
 1163WAT      O 3730   5.828   3.068   8.618
 1163WAT     H1 3731   5.749   3.075   8.679
 1163WAT     H2 3732   5.912   3.073   8.671
 1164WAT      O 3733   7.386   3.937   4.794
 1164WAT     H1 3734   7.391   4.018   4.853
 1164WAT     H2 3735   7.350   3.962   4.705
 1165WAT      O 3736   5.299   2.850   8.407
 1165WAT     H1 3737   5.290   2.835   8.309
 1165WAT     H2 3738   5.209   2.848   8.450
 1166WAT      O 3739   7.335   8.542   6.557
 1166WAT     H1 3740   7.334   8.543   6.457
 1166WAT     H2 3741   7.264   8.603   6.592
 1167WAT      O 3742   4.077   1.585   5.574
 1167WAT     H1 3743   4.149   1.577   5.643
 1167WAT     H2 3744   3.995   1.538   5.606
 1168WAT      O 3745   1.287   3.736   0.881
 1168WAT     H1 3746   1.213   3.757   0.818
 1168WAT     H2 3747   1.322   3.821   0.921
 1169WAT      O 3748   4.268   1.968   6.032
 1169WAT     H1 3749   4.293   1.877   6.065
 1169WAT     H2 3750   4.301   1.980   5.939
 1170WAT      O 3751   7.148   0.203   7.080
 1170WAT     H1 3752   7.183   0.249   7.161
 1170WAT     H2 3753   7.068   0.251   7.046
 1171WAT      O 3754   6.789   7.093   3.296
 1171WAT     H1 3755   6.715   7.107   3.362
 1171WAT     H2 3756   6.840   7.010   3.320
 1172WAT      O 3757   6.379   4.635   5.822
 1172WAT     H1 3758   6.282   4.638   5.845
 1172WAT     H2 3759   6.404   4.542   5.795
 1173WAT      O 3760   3.046   5.623   3.310
 1173WAT     H1 3761   3.096   5.664   3.387
 1173WAT     H2 3762   3.111   5.597   3.239
 1174WAT      O 3763   8.730   2.309   4.687
 1174WAT     H1 3764   8.754   2.356   4.602
 1174WAT     H2 3765   8.692   2.219   4.665
 1175WAT      O 3766   5.137   5.033   7.760
 1175WAT     H1 3767   5.051   5.041   7.709
 1175WAT     H2 3768   5.122   4.975   7.841
 1176WAT      O 3769   7.016   0.124   7.646
 1176WAT     H1 3770   6.965   0.204   7.615
 1176WAT     H2 3771   6.986   0.043   7.595
 1177WAT      O 3772   7.997   7.415   9.719
 1177WAT     H1 3773   7.982   7.466   9.804
 1177WAT     H2 3774   8.062   7.463   9.662
 1178WAT      O 3775   9.543   2.236   1.113
 1178WAT     H1 3776   9.464   2.176   1.100
 1178WAT     H2 3777   9.608   2.193   1.175
 1179WAT      O 3778   0.031   0.109   9.631
 1179WAT     H1 3779   0.113   0.163   9.614
 1179WAT     H2 3780  -0.047   0.150   9.583
 1180WAT      O 3781   6.474   8.130   7.582
 1180WAT     H1 3782   6.391   8.140   7.529
 1180WAT     H2 3783   6.480   8.203   7.650
 1181WAT      O 3784   0.850   7.681   4.652
 1181WAT     H1 3785   0.884   7.654   4.742
 1181WAT     H2 3786   0.886   7.771   4.629
 1182WAT      O 3787   8.891   5.759   7.618
 1182WAT     H1 3788   8.824   5.729   7.685
 1182WAT     H2 3789   8.878   5.710   7.533
 1183WAT      O 3790   2.667   8.224   2.617
 1183WAT     H1 3791   2.648   8.237   2.520
 1183WAT     H2 3792   2.582   8.201   2.665
 1184WAT      O 3793   8.098   7.746   4.753
 1184WAT     H1 3794   8.033   7.762   4.828
 1184WAT     H2 3795   8.098   7.825   4.691
 1185WAT      O 3796   3.342   7.029   7.540
 1185WAT     H1 3797   3.411   6.961   7.512
 1185WAT     H2 3798   3.342   7.037   7.639
 1186WAT      O 3799   1.349   3.843   1.496
 1186WAT     H1 3800   1.307   3.756   1.468
 1186WAT     H2 3801   1.441   3.849   1.458
 1187WAT      O 3802   8.151   9.671   0.797
 1187WAT     H1 3803   8.132   9.767   0.777
 1187WAT     H2 3804   8.070   9.616   0.775
 1188WAT      O 3805   4.101   3.674   4.649
 1188WAT     H1 3806   4.162   3.600   4.674
 1188WAT     H2 3807   4.147   3.737   4.587
 1189WAT      O 3808   5.301   0.026   0.042
 1189WAT     H1 3809   5.284   0.110   0.094
 1189WAT     H2 3810   5.216  -0.006   0.001
 1190WAT      O 3811   4.016   5.109   6.389
 1190WAT     H1 3812   4.032   5.054   6.471
 1190WAT     H2 3813   4.026   5.206   6.411
 1191WAT      O 3814   7.969   0.023   7.213
 1191WAT     H1 3815   8.055   0.062   7.244
 1191WAT     H2 3816   7.893   0.065   7.263
 1192WAT      O 3817   5.906   7.951   5.326
 1192WAT     H1 3818   5.885   7.908   5.238
 1192WAT     H2 3819   5.901   8.051   5.317
 1193WAT      O 3820   5.299   8.273   0.212
 1193WAT     H1 3821   5.347   8.189   0.238
 1193WAT     H2 3822   5.259   8.315   0.294
 1194WAT      O 3823   8.432   0.828   0.603
 1194WAT     H1 3824   8.471   0.754   0.548
 1194WAT     H2 3825   8.389   0.790   0.684
 1195WAT      O 3826   9.650   3.826   7.025
 1195WAT     H1 3827   9.707   3.878   7.089
 1195WAT     H2 3828   9.687   3.733   7.017
 1196WAT      O 3829   0.792   4.033   2.436
 1196WAT     H1 3830   0.819   4.029   2.532
 1196WAT     H2 3831   0.860   4.084   2.384
 1197WAT      O 3832   1.931   7.606   5.490
 1197WAT     H1 3833   2.029   7.606   5.476
 1197WAT     H2 3834   1.897   7.700   5.491
 1198WAT      O 3835   4.316   9.570   8.981
 1198WAT     H1 3836   4.355   9.487   9.022
 1198WAT     H2 3837   4.336   9.570   8.883
 1199WAT      O 3838   4.883   7.702   9.009
 1199WAT     H1 3839   4.902   7.614   8.967
 1199WAT     H2 3840   4.801   7.695   9.066
 1200WAT      O 3841   3.155   9.641   1.460
 1200WAT     H1 3842   3.250   9.621   1.436
 1200WAT     H2 3843   3.104   9.555   1.466
 1201WAT      O 3844   3.289   9.491   1.670
 1201WAT     H1 3845   3.363   9.553   1.643
 1201WAT     H2 3846   3.203   9.523   1.631
 1202WAT      O 3847   4.323   9.441   8.725
 1202WAT     H1 3848   4.224   9.435   8.728
 1202WAT     H2 3849   4.355   9.437   8.630
 1203WAT      O 3850   2.706   3.431   2.809
 1203WAT     H1 3851   2.624   3.455   2.758
 1203WAT     H2 3852   2.697   3.460   2.904
 1204WAT      O 3853   0.883   6.692   6.486
 1204WAT     H1 3854   0.906   6.782   6.450
 1204WAT     H2 3855   0.801   6.658   6.440
 1205WAT      O 3856   0.197   2.009   9.370
 1205WAT     H1 3857   0.249   2.092   9.390
 1205WAT     H2 3858   0.100   2.027   9.378
 1206WAT      O 3859   3.019   1.623   2.117
 1206WAT     H1 3860   2.972   1.535   2.122
 1206WAT     H2 3861   3.021   1.666   2.208
 1207WAT      O 3862   9.655   0.666   8.259
 1207WAT     H1 3863   9.709   0.725   8.199
 1207WAT     H2 3864   9.607   0.598   8.204
 1208WAT      O 3865   3.766   3.265   2.618
 1208WAT     H1 3866   3.713   3.277   2.534
 1208WAT     H2 3867   3.788   3.169   2.631
 1209WAT      O 3868   7.930   5.005   3.254
 1209WAT     H1 3869   7.957   4.946   3.178
 1209WAT     H2 3870   7.972   5.095   3.243
 1210WAT      O 3871   8.562   9.231   8.216
 1210WAT     H1 3872   8.608   9.151   8.178
 1210WAT     H2 3873   8.618   9.269   8.290
 1211WAT      O 3874   4.894   6.092   5.800
 1211WAT     H1 3875   4.893   6.165   5.868
 1211WAT     H2 3876   4.820   6.107   5.733
 1212WAT      O 3877   3.236   4.891   6.226
 1212WAT     H1 3878   3.326   4.859   6.258
 1212WAT     H2 3879   3.219   4.982   6.262
 1213WAT      O 3880   6.360   3.636   5.144
 1213WAT     H1 3881   6.436   3.698   5.122
 1213WAT     H2 3882   6.350   3.630   5.243
 1214WAT      O 3883   4.105   1.256   6.471
 1214WAT     H1 3884   4.139   1.336   6.520
 1214WAT     H2 3885   4.013   1.273   6.437
 1215WAT      O 3886   3.572   6.949   2.196
 1215WAT     H1 3887   3.521   7.011   2.138
 1215WAT     H2 3888   3.586   6.990   2.286
 1216WAT      O 3889   3.531   3.477   6.471
 1216WAT     H1 3890   3.449   3.533   6.474
 1216WAT     H2 3891   3.583   3.498   6.389
 1217WAT      O 3892   3.393   7.759   9.844
 1217WAT     H1 3893   3.358   7.762   9.938
 1217WAT     H2 3894   3.405   7.664   9.815
 1218WAT      O 3895   2.687   7.536   6.172
 1218WAT     H1 3896   2.768   7.488   6.138
 1218WAT     H2 3897   2.712   7.628   6.201
 1219WAT      O 3898   8.551   4.293   7.677
 1219WAT     H1 3899   8.529   4.196   7.688
 1219WAT     H2 3900   8.481   4.349   7.722
 1220WAT      O 3901   0.351   0.556   9.319
 1220WAT     H1 3902   0.288   0.480   9.302
 1220WAT     H2 3903   0.330   0.631   9.256
 1221WAT      O 3904   7.795   3.242   8.498
 1221WAT     H1 3905   7.871   3.304   8.518
 1221WAT     H2 3906   7.825   3.148   8.513
 1222WAT      O 3907   9.770   6.923   7.645
 1222WAT     H1 3908   9.734   6.853   7.583
 1222WAT     H2 3909   9.850   6.887   7.693
 1223WAT      O 3910   4.879   9.336   0.788
 1223WAT     H1 3911   4.972   9.364   0.764
 1223WAT     H2 3912   4.874   9.317   0.886
 1224WAT      O 3913   5.810   2.205   7.983
 1224WAT     H1 3914   5.725   2.188   8.033
 1224WAT     H2 3915   5.883   2.228   8.047
 1225WAT      O 3916   1.210   6.392   7.808
 1225WAT     H1 3917   1.175   6.459   7.873
 1225WAT     H2 3918   1.194   6.300   7.843
 1226WAT      O 3919   6.841   4.683   6.197
 1226WAT     H1 3920   6.801   4.596   6.168
 1226WAT     H2 3921   6.940   4.680   6.184
 1227WAT      O 3922   2.021   9.627   9.619
 1227WAT     H1 3923   1.982   9.699   9.562
 1227WAT     H2 3924   1.970   9.622   9.705
 1228WAT      O 3925   6.631   3.047   8.165
 1228WAT     H1 3926   6.631   3.049   8.265
 1228WAT     H2 3927   6.548   3.003   8.133
 1229WAT      O 3928   0.215   7.868   4.735
 1229WAT     H1 3929   0.304   7.845   4.774
 1229WAT     H2 3930   0.210   7.967   4.719
 1230WAT      O 3931   2.983   2.277   8.568
 1230WAT     H1 3932   2.995   2.195   8.623
 1230WAT     H2 3933   2.941   2.349   8.623
 1231WAT      O 3934   7.480   0.814   6.834
 1231WAT     H1 3935   7.401   0.867   6.801
 1231WAT     H2 3936   7.464   0.786   6.928
 1232WAT      O 3937   2.782   5.388   1.368
 1232WAT     H1 3938   2.831   5.413   1.451
 1232WAT     H2 3939   2.833   5.419   1.288
 1233WAT      O 3940   0.699   6.950   7.954
 1233WAT     H1 3941   0.765   6.911   7.890
 1233WAT     H2 3942   0.726   6.930   8.048
 1234WAT      O 3943   0.869   2.770   9.817
 1234WAT     H1 3944   0.826   2.851   9.857
 1234WAT     H2 3945   0.838   2.758   9.723
 1235WAT      O 3946   8.210   6.795   0.355
 1235WAT     H1 3947   8.241   6.702   0.376
 1235WAT     H2 3948   8.120   6.792   0.311
 1236WAT      O 3949   0.071   5.554   8.288
 1236WAT     H1 3950   0.112   5.463   8.280
 1236WAT     H2 3951   0.075   5.600   8.199
 1237WAT      O 3952   1.722   1.366   4.619
 1237WAT     H1 3953   1.638   1.341   4.570
 1237WAT     H2 3954   1.737   1.302   4.694
 1238WAT      O 3955   4.028   2.689   5.952
 1238WAT     H1 3956   4.042   2.615   6.018
 1238WAT     H2 3957   4.109   2.698   5.894
 1239WAT      O 3958   1.615   8.054   3.753
 1239WAT     H1 3959   1.556   7.981   3.789
 1239WAT     H2 3960   1.565   8.106   3.683
 1240WAT      O 3961   0.364   8.307   2.200
 1240WAT     H1 3962   0.421   8.385   2.172
 1240WAT     H2 3963   0.285   8.301   2.140
 1241WAT      O 3964   5.472   5.367   2.109
 1241WAT     H1 3965   5.401   5.414   2.057
 1241WAT     H2 3966   5.509   5.428   2.179
 1242WAT      O 3967   3.483   8.227   6.048
 1242WAT     H1 3968   3.538   8.276   6.116
 1242WAT     H2 3969   3.439   8.148   6.091
 1243WAT      O 3970   6.564   4.044   6.990
 1243WAT     H1 3971   6.652   4.080   7.023
 1243WAT     H2 3972   6.573   3.946   6.974
 1244WAT      O 3973   5.868   7.011   9.732
 1244WAT     H1 3974   5.866   6.963   9.819
 1244WAT     H2 3975   5.917   7.098   9.743
 1245WAT      O 3976   0.305   1.310   7.794
 1245WAT     H1 3977   0.400   1.334   7.773
 1245WAT     H2 3978   0.244   1.351   7.726
 1246WAT      O 3979   4.735   2.158   8.078
 1246WAT     H1 3980   4.793   2.084   8.043
 1246WAT     H2 3981   4.683   2.124   8.156
 1247WAT      O 3982   4.681   0.027   2.940
 1247WAT     H1 3983   4.662  -0.070   2.954
 1247WAT     H2 3984   4.620   0.082   2.998
 1248WAT      O 3985   4.401   2.213   2.184
 1248WAT     H1 3986   4.477   2.167   2.229
 1248WAT     H2 3987   4.326   2.148   2.172
 1249WAT      O 3988   4.830   7.773   5.224
 1249WAT     H1 3989   4.910   7.809   5.176
 1249WAT     H2 3990   4.859   7.723   5.306
 1250WAT      O 3991   1.579   4.420   9.172
 1250WAT     H1 3992   1.490   4.464   9.157
 1250WAT     H2 3993   1.643   4.453   9.102
 1251WAT      O 3994   1.492   7.828   0.412
 1251WAT     H1 3995   1.423   7.890   0.448
 1251WAT     H2 3996   1.583   7.865   0.430
 1252WAT      O 3997   4.063   5.793   8.174
 1252WAT     H1 3998   4.157   5.787   8.139
 1252WAT     H2 3999   4.064   5.782   8.273
 1253WAT      O 4000   4.212   4.388   2.556
 1253WAT     H1 4001   4.269   4.310   2.584
 1253WAT     H2 4002   4.159   4.419   2.635
 1254WAT      O 4003   4.038   2.296   9.889
 1254WAT     H1 4004   3.997   2.206   9.902
 1254WAT     H2 4005   3.967   2.361   9.861
 1255WAT      O 4006   7.793   6.239   5.686
 1255WAT     H1 4007   7.835   6.205   5.602
 1255WAT     H2 4008   7.751   6.162   5.734
 1256WAT      O 4009   8.739   6.309   2.675
 1256WAT     H1 4010   8.710   6.323   2.581
 1256WAT     H2 4011   8.831   6.272   2.677
 1257WAT      O 4012   5.441   6.833   3.420
 1257WAT     H1 4013   5.429   6.748   3.370
 1257WAT     H2 4014   5.498   6.817   3.500
 1258WAT      O 4015   7.699   2.121   8.831
 1258WAT     H1 4016   7.748   2.206   8.851
 1258WAT     H2 4017   7.758   2.061   8.778
 1259WAT      O 4018   1.183   5.258   3.141
 1259WAT     H1 4019   1.125   5.333   3.171
 1259WAT     H2 4020   1.145   5.217   3.059
 1260WAT      O 4021   0.781   3.033   3.036
 1260WAT     H1 4022   0.816   2.940   3.033
 1260WAT     H2 4023   0.684   3.033   3.011
 1261WAT      O 4024   0.443   6.016   1.785
 1261WAT     H1 4025   0.397   5.932   1.757
 1261WAT     H2 4026   0.375   6.086   1.805
 1262WAT      O 4027   5.277   0.514   7.186
 1262WAT     H1 4028   5.342   0.485   7.115
 1262WAT     H2 4029   5.217   0.438   7.209
 1263WAT      O 4030   4.588   7.169   5.193
 1263WAT     H1 4031   4.628   7.183   5.102
 1263WAT     H2 4032   4.612   7.246   5.251
 1264WAT      O 4033   8.915   8.016   1.860
 1264WAT     H1 4034   8.967   8.010   1.945
 1264WAT     H2 4035   8.875   8.108   1.853
 1265WAT      O 4036   8.004   8.004   3.017
 1265WAT     H1 4037   8.055   8.053   2.947
 1265WAT     H2 4038   7.911   8.041   3.024
 1266WAT      O 4039   2.368   3.160   3.748
 1266WAT     H1 4040   2.281   3.191   3.787
 1266WAT     H2 4041   2.427   3.124   3.820
 1267WAT      O 4042   4.990   8.656   8.612
 1267WAT     H1 4043   5.031   8.568   8.633
 1267WAT     H2 4044   5.053   8.710   8.556
 1268WAT      O 4045   5.220   8.498   7.200
 1268WAT     H1 4046   5.148   8.439   7.237
 1268WAT     H2 4047   5.191   8.533   7.111
 1269WAT      O 4048   9.160   0.509   6.884
 1269WAT     H1 4049   9.077   0.519   6.938
 1269WAT     H2 4050   9.237   0.549   6.934
 1270WAT      O 4051   8.127   8.607   6.062
 1270WAT     H1 4052   8.110   8.575   6.155
 1270WAT     H2 4053   8.195   8.680   6.064
 1271WAT      O 4054   6.699   0.544   1.753
 1271WAT     H1 4055   6.640   0.508   1.825
 1271WAT     H2 4056   6.698   0.644   1.755
 1272WAT      O 4057   3.100   4.788   8.011
 1272WAT     H1 4058   3.182   4.845   8.011
 1272WAT     H2 4059   3.118   4.703   7.962
 1273WAT      O 4060   4.060   5.318   5.017
 1273WAT     H1 4061   4.071   5.417   5.010
 1273WAT     H2 4062   4.017   5.284   4.934
 1274WAT      O 4063   4.397   1.725   6.127
 1274WAT     H1 4064   4.412   1.759   6.219
 1274WAT     H2 4065   4.474   1.667   6.100
 1275WAT      O 4066   7.806   7.445   9.516
 1275WAT     H1 4067   7.766   7.537   9.518
 1275WAT     H2 4068   7.868   7.435   9.594
 1276WAT      O 4069   0.220   5.955   5.098
 1276WAT     H1 4070   0.282   6.005   5.159
 1276WAT     H2 4071   0.131   6.000   5.096
 1277WAT      O 4072   2.662   6.189   5.055
 1277WAT     H1 4073   2.567   6.162   5.068
 1277WAT     H2 4074   2.670   6.289   5.060
 1278WAT      O 4075   6.779   2.750   8.330
 1278WAT     H1 4076   6.719   2.725   8.254
 1278WAT     H2 4077   6.866   2.702   8.322
 1279WAT      O 4078   7.916   2.958   7.773
 1279WAT     H1 4079   7.928   2.965   7.872
 1279WAT     H2 4080   7.820   2.938   7.753
 1280WAT      O 4081   2.364   5.391   9.259
 1280WAT     H1 4082   2.321   5.361   9.344
 1280WAT     H2 4083   2.433   5.325   9.230
 1281WAT      O 4084   2.879   8.661   5.085
 1281WAT     H1 4085   2.894   8.702   4.995
 1281WAT     H2 4086   2.942   8.703   5.151
 1282WAT      O 4087   9.283   8.518   9.049
 1282WAT     H1 4088   9.361   8.568   9.010
 1282WAT     H2 4089   9.209   8.516   8.983
 1283WAT      O 4090   2.851   1.658   5.261
 1283WAT     H1 4091   2.887   1.697   5.346
 1283WAT     H2 4092   2.785   1.586   5.282
 1284WAT      O 4093   6.464   7.821   4.104
 1284WAT     H1 4094   6.473   7.785   4.011
 1284WAT     H2 4095   6.372   7.802   4.139
 1285WAT      O 4096   2.982   7.262   9.207
 1285WAT     H1 4097   3.066   7.316   9.201
 1285WAT     H2 4098   2.958   7.227   9.117
 1286WAT      O 4099   8.553   4.978   5.494
 1286WAT     H1 4100   8.541   5.054   5.431
 1286WAT     H2 4101   8.540   5.009   5.588
 1287WAT      O 4102   4.812   1.062   0.496
 1287WAT     H1 4103   4.911   1.046   0.503
 1287WAT     H2 4104   4.776   1.011   0.418
 1288WAT      O 4105   3.298   9.392   3.433
 1288WAT     H1 4106   3.263   9.315   3.381
 1288WAT     H2 4107   3.291   9.373   3.531
 1289WAT      O 4108   3.432   4.858   9.296
 1289WAT     H1 4109   3.497   4.802   9.347
 1289WAT     H2 4110   3.482   4.925   9.241
 1290WAT      O 4111   2.181   5.392   6.557
 1290WAT     H1 4112   2.206   5.367   6.464
 1290WAT     H2 4113   2.253   5.449   6.597
 1291WAT      O 4114   5.129   1.709   3.418
 1291WAT     H1 4115   5.090   1.698   3.327
 1291WAT     H2 4116   5.223   1.674   3.419
 1292WAT      O 4117   4.034   4.114   0.731
 1292WAT     H1 4118   3.953   4.064   0.761
 1292WAT     H2 4119   4.006   4.202   0.691
 1293WAT      O 4120   8.132   3.213   5.966
 1293WAT     H1 4121   8.071   3.283   5.928
 1293WAT     H2 4122   8.100   3.123   5.940
 1294WAT      O 4123   4.814   5.137   6.477
 1294WAT     H1 4124   4.732   5.184   6.510
 1294WAT     H2 4125   4.825   5.153   6.379
 1295WAT      O 4126   4.807   8.487   3.155
 1295WAT     H1 4127   4.721   8.449   3.121
 1295WAT     H2 4128   4.871   8.497   3.079
 1296WAT      O 4129   1.534   9.771   8.405
 1296WAT     H1 4130   1.462   9.754   8.472
 1296WAT     H2 4131   1.494   9.775   8.314
 1297WAT      O 4132   8.920   0.020   9.207
 1297WAT     H1 4133   8.854   0.093   9.194
 1297WAT     H2 4134   8.959  -0.007   9.119
 1298WAT      O 4135   2.185   9.618   6.128
 1298WAT     H1 4136   2.095   9.595   6.165
 1298WAT     H2 4137   2.215   9.706   6.165
 1299WAT      O 4138   9.057   1.842   4.778
 1299WAT     H1 4139   9.137   1.890   4.815
 1299WAT     H2 4140   9.015   1.788   4.850
 1300WAT      O 4141   8.714   5.806   5.086
 1300WAT     H1 4142   8.794   5.776   5.033
 1300WAT     H2 4143   8.716   5.765   5.177
 1301WAT      O 4144   2.645   9.711   5.176
 1301WAT     H1 4145   2.683   9.770   5.104
 1301WAT     H2 4146   2.689   9.732   5.263
 1302WAT      O 4147   9.367   3.388   0.676
 1302WAT     H1 4148   9.399   3.436   0.594
 1302WAT     H2 4149   9.268   3.400   0.683
 1303WAT      O 4150   6.849   2.532   3.181
 1303WAT     H1 4151   6.923   2.598   3.168
 1303WAT     H2 4152   6.885   2.439   3.172
 1304WAT      O 4153   6.542   8.621   5.197
 1304WAT     H1 4154   6.510   8.587   5.109
 1304WAT     H2 4155   6.474   8.682   5.236
 1305WAT      O 4156   3.887   2.778   0.199
 1305WAT     H1 4157   3.983   2.796   0.222
 1305WAT     H2 4158   3.852   2.853   0.143
 1306WAT      O 4159   0.011   8.084   0.287
 1306WAT     H1 4160  -0.005   8.173   0.244
 1306WAT     H2 4161  -0.024   8.085   0.380
 1307WAT      O 4162   3.879   0.055   0.478
 1307WAT     H1 4163   3.886   0.070   0.577
 1307WAT     H2 4164   3.850  -0.039   0.460
 1308WAT      O 4165   4.535   4.561   0.257
 1308WAT     H1 4166   4.474   4.506   0.314
 1308WAT     H2 4167   4.576   4.633   0.312
 1309WAT      O 4168   1.077   4.933   5.502
 1309WAT     H1 4169   1.147   4.964   5.566
 1309WAT     H2 4170   1.013   4.872   5.549
 1310WAT      O 4171   5.403   0.779   6.426
 1310WAT     H1 4172   5.348   0.862   6.422
 1310WAT     H2 4173   5.398   0.730   6.339
 1311WAT      O 4174   6.584   4.435   3.549
 1311WAT     H1 4175   6.586   4.423   3.450
 1311WAT     H2 4176   6.489   4.442   3.580
 1312WAT      O 4177   0.203   3.126   5.016
 1312WAT     H1 4178   0.301   3.110   5.006
 1312WAT     H2 4179   0.167   3.069   5.089
 1313WAT      O 4180   3.543   6.082   6.038
 1313WAT     H1 4181   3.579   6.014   6.102
 1313WAT     H2 4182   3.483   6.145   6.087
 1314WAT      O 4183   3.516   9.136   4.775
 1314WAT     H1 4184   3.545   9.211   4.834
 1314WAT     H2 4185   3.456   9.170   4.703
 1315WAT      O 4186   5.380   1.987   9.038
 1315WAT     H1 4187   5.416   1.963   9.128
 1315WAT     H2 4188   5.285   1.957   9.031
 1316WAT      O 4189   9.517   7.433   9.058
 1316WAT     H1 4190   9.464   7.516   9.073
 1316WAT     H2 4191   9.608   7.444   9.097
 1317WAT      O 4192   6.630   9.287   1.881
 1317WAT     H1 4193   6.655   9.197   1.847
 1317WAT     H2 4194   6.627   9.286   1.981
 1318WAT      O 4195   7.035   0.358   3.203
 1318WAT     H1 4196   6.937   0.372   3.193
 1318WAT     H2 4197   7.074   0.329   3.116
 1319WAT      O 4198   6.711   9.054   0.130
 1319WAT     H1 4199   6.805   9.022   0.142
 1319WAT     H2 4200   6.687   9.115   0.206
 1320WAT      O 4201   0.749   1.304   0.104
 1320WAT     H1 4202   0.697   1.334   0.184
 1320WAT     H2 4203   0.759   1.205   0.105
 1321WAT      O 4204   7.575   4.131   7.612
 1321WAT     H1 4205   7.523   4.047   7.596
 1321WAT     H2 4206   7.603   4.171   7.525
 1322WAT      O 4207   1.566   2.095   5.242
 1322WAT     H1 4208   1.523   2.128   5.158
 1322WAT     H2 4209   1.609   2.006   5.225
 1323WAT      O 4210   0.084   4.098   5.244
 1323WAT     H1 4211   0.138   4.154   5.180
 1323WAT     H2 4212   0.093   4.002   5.220
 1324WAT      O 4213   9.401   8.733   5.605
 1324WAT     H1 4214   9.416   8.814   5.661
 1324WAT     H2 4215   9.438   8.652   5.651
 1325WAT      O 4216   0.971   0.494   3.831
 1325WAT     H1 4217   1.057   0.477   3.879
 1325WAT     H2 4218   0.987   0.555   3.754
 1326WAT      O 4219   2.822   4.706   1.569
 1326WAT     H1 4220   2.746   4.681   1.509
 1326WAT     H2 4221   2.831   4.805   1.572
 1327WAT      O 4222   2.422   3.808   3.978
 1327WAT     H1 4223   2.351   3.788   4.046
 1327WAT     H2 4224   2.386   3.790   3.887
 1328WAT      O 4225   5.305   8.319   6.180
 1328WAT     H1 4226   5.287   8.228   6.143
 1328WAT     H2 4227   5.375   8.364   6.126
 1329WAT      O 4228   4.954   5.263   8.244
 1329WAT     H1 4229   5.007   5.344   8.220
 1329WAT     H2 4230   5.004   5.181   8.216
 1330WAT      O 4231   4.917   5.450   6.951
 1330WAT     H1 4232   4.834   5.401   6.976
 1330WAT     H2 4233   4.970   5.472   7.033
 1331WAT      O 4234   8.964   1.312   9.799
 1331WAT     H1 4235   8.976   1.294   9.702
 1331WAT     H2 4236   8.959   1.226   9.849
 1332WAT      O 4237   1.737   1.491   7.636
 1332WAT     H1 4238   1.773   1.496   7.729
 1332WAT     H2 4239   1.780   1.416   7.587
 1333WAT      O 4240   1.281   4.894   9.711
 1333WAT     H1 4241   1.374   4.892   9.748
 1333WAT     H2 4242   1.250   4.801   9.695
 1334WAT      O 4243   8.225   6.554   0.678
 1334WAT     H1 4244   8.242   6.543   0.580
 1334WAT     H2 4245   8.284   6.625   0.715
 1335WAT      O 4246   6.241   1.987   1.486
 1335WAT     H1 4247   6.210   2.078   1.462
 1335WAT     H2 4248   6.172   1.942   1.542
 1336WAT      O 4249   9.169   7.250   0.914
 1336WAT     H1 4250   9.194   7.297   0.830
 1336WAT     H2 4251   9.073   7.268   0.935
 1337WAT      O 4252   9.252   7.682   0.138
 1337WAT     H1 4253   9.328   7.712   0.194
 1337WAT     H2 4254   9.209   7.601   0.179
 1338WAT      O 4255   6.388   8.716   5.784
 1338WAT     H1 4256   6.334   8.642   5.744
 1338WAT     H2 4257   6.369   8.801   5.736
 1339WAT      O 4258   5.712   4.856   5.377
 1339WAT     H1 4259   5.776   4.917   5.330
 1339WAT     H2 4260   5.727   4.861   5.476
 1340WAT      O 4261   1.246   4.313   5.991
 1340WAT     H1 4262   1.283   4.221   6.010
 1340WAT     H2 4263   1.311   4.382   6.024
 1341WAT      O 4264   5.824   4.311   9.769
 1341WAT     H1 4265   5.874   4.384   9.816
 1341WAT     H2 4266   5.888   4.256   9.715
 1342WAT      O 4267   9.825   4.967   9.591
 1342WAT     H1 4268   9.889   5.043   9.605
 1342WAT     H2 4269   9.765   4.959   9.670
 1343WAT      O 4270   9.321   3.933   2.177
 1343WAT     H1 4271   9.400   3.873   2.166
 1343WAT     H2 4272   9.326   4.007   2.110
 1344WAT      O 4273   7.770   6.150   6.408
 1344WAT     H1 4274   7.782   6.249   6.421
 1344WAT     H2 4275   7.706   6.116   6.477
 1345WAT      O 4276   4.650   8.272   3.865
 1345WAT     H1 4277   4.577   8.298   3.928
 1345WAT     H2 4278   4.725   8.230   3.917
 1346WAT      O 4279   5.785   7.832   2.023
 1346WAT     H1 4280   5.821   7.821   1.931
 1346WAT     H2 4281   5.704   7.775   2.036
 1347WAT      O 4282   6.386   8.636   4.577
 1347WAT     H1 4283   6.312   8.621   4.643
 1347WAT     H2 4284   6.395   8.733   4.557
 1348WAT      O 4285   5.923   9.215   0.934
 1348WAT     H1 4286   5.969   9.199   1.022
 1348WAT     H2 4287   5.988   9.257   0.870
 1349WAT      O 4288   7.664   5.568   9.221
 1349WAT     H1 4289   7.653   5.628   9.300
 1349WAT     H2 4290   7.667   5.622   9.137
 1350WAT      O 4291   7.425   0.953   7.545
 1350WAT     H1 4292   7.490   0.878   7.529
 1350WAT     H2 4293   7.332   0.917   7.545
 1351WAT      O 4294   3.398   0.011   1.347
 1351WAT     H1 4295   3.370  -0.082   1.369
 1351WAT     H2 4296   3.477   0.008   1.286
 1352WAT      O 4297   0.315   9.543   8.517
 1352WAT     H1 4298   0.249   9.615   8.536
 1352WAT     H2 4299   0.407   9.583   8.514
 1353WAT      O 4300   1.641   8.493   7.796
 1353WAT     H1 4301   1.574   8.459   7.861
 1353WAT     H2 4302   1.660   8.423   7.728
 1354WAT      O 4303   7.184   1.173   9.383
 1354WAT     H1 4304   7.262   1.118   9.413
 1354WAT     H2 4305   7.215   1.241   9.316
 1355WAT      O 4306   9.824   8.860   6.228
 1355WAT     H1 4307   9.854   8.810   6.309
 1355WAT     H2 4308   9.774   8.798   6.167
 1356WAT      O 4309   1.556   3.105   4.282
 1356WAT     H1 4310   1.565   3.100   4.183
 1356WAT     H2 4311   1.588   3.019   4.323
 1357WAT      O 4312   5.095   2.875   3.991
 1357WAT     H1 4313   5.056   2.960   3.956
 1357WAT     H2 4314   5.194   2.885   4.000
 1358WAT      O 4315   3.623   7.377   2.917
 1358WAT     H1 4316   3.656   7.283   2.902
 1358WAT     H2 4317   3.523   7.378   2.909
 1359WAT      O 4318   1.748   0.177   3.279
 1359WAT     H1 4319   1.813   0.169   3.204
 1359WAT     H2 4320   1.719   0.086   3.308
 1360WAT      O 4321   9.426   1.732   3.783
 1360WAT     H1 4322   9.343   1.785   3.766
 1360WAT     H2 4323   9.498   1.762   3.720
 1361WAT      O 4324   5.398   8.367   6.731
 1361WAT     H1 4325   5.413   8.408   6.821
 1361WAT     H2 4326   5.415   8.434   6.660
 1362WAT      O 4327   5.285   4.269   4.736
 1362WAT     H1 4328   5.270   4.362   4.703
 1362WAT     H2 4329   5.330   4.215   4.665
 1363WAT      O 4330   5.559   3.448   1.852
 1363WAT     H1 4331   5.550   3.351   1.875
 1363WAT     H2 4332   5.482   3.476   1.794
 1364WAT      O 4333   6.371   9.757   6.818
 1364WAT     H1 4334   6.439   9.695   6.857
 1364WAT     H2 4335   6.311   9.790   6.891
 1365WAT      O 4336   9.586   4.853   0.366
 1365WAT     H1 4337   9.526   4.930   0.386
 1365WAT     H2 4338   9.681   4.878   0.384
 1366WAT      O 4339   8.341   7.103   8.121
 1366WAT     H1 4340   8.433   7.122   8.089
 1366WAT     H2 4341   8.278   7.171   8.083
 1367WAT      O 4342   9.490   1.927   5.219
 1367WAT     H1 4343   9.506   1.878   5.133
 1367WAT     H2 4344   9.405   1.895   5.261
 1368WAT      O 4345   6.933   5.982   1.900
 1368WAT     H1 4346   6.946   5.914   1.828
 1368WAT     H2 4347   6.840   5.978   1.934
 1369WAT      O 4348   9.679   4.229   2.353
 1369WAT     H1 4349   9.687   4.129   2.356
 1369WAT     H2 4350   9.606   4.259   2.414
 1370WAT      O 4351   2.319   1.883   0.427
 1370WAT     H1 4352   2.292   1.978   0.411
 1370WAT     H2 4353   2.414   1.871   0.399
 1371WAT      O 4354   9.490   0.608   0.642
 1371WAT     H1 4355   9.513   0.552   0.562
 1371WAT     H2 4356   9.573   0.627   0.695
 1372WAT      O 4357   6.987   1.373   0.696
 1372WAT     H1 4358   7.068   1.432   0.700
 1372WAT     H2 4359   6.908   1.422   0.732
 1373WAT      O 4360   6.046   1.451   0.164
 1373WAT     H1 4361   6.126   1.412   0.211
 1373WAT     H2 4362   5.980   1.482   0.232
 1374WAT      O 4363   5.052   3.984   9.386
 1374WAT     H1 4364   4.982   3.928   9.429
 1374WAT     H2 4365   5.015   4.025   9.302
 1375WAT      O 4366   6.760   1.716   8.912
 1375WAT     H1 4367   6.732   1.788   8.848
 1375WAT     H2 4368   6.851   1.737   8.949
 1376WAT      O 4369   0.577   8.716   6.984
 1376WAT     H1 4370   0.637   8.732   6.906
 1376WAT     H2 4371   0.593   8.624   7.020
 1377WAT      O 4372   6.426   9.416   8.423
 1377WAT     H1 4373   6.451   9.353   8.349
 1377WAT     H2 4374   6.331   9.445   8.411
 1378WAT      O 4375   1.567   3.467   2.248
 1378WAT     H1 4376   1.498   3.465   2.321
 1378WAT     H2 4377   1.603   3.560   2.240
 1379WAT      O 4378   0.988   0.778   1.159
 1379WAT     H1 4379   0.980   0.864   1.108
 1379WAT     H2 4380   0.938   0.786   1.245
 1380WAT      O 4381   9.500   3.888   9.184
 1380WAT     H1 4382   9.522   3.980   9.215
 1380WAT     H2 4383   9.493   3.886   9.084
 1381WAT      O 4384   4.987   6.793   4.194
 1381WAT     H1 4385   4.936   6.718   4.152
 1381WAT     H2 4386   5.043   6.757   4.269
 1382WAT      O 4387   3.684   7.823   3.127
 1382WAT     H1 4388   3.714   7.746   3.070
 1382WAT     H2 4389   3.584   7.833   3.120
 1383WAT      O 4390   4.311   8.320   6.045
 1383WAT     H1 4391   4.298   8.407   6.091
 1383WAT     H2 4392   4.239   8.307   5.977
 1384WAT      O 4393   7.957   6.344   1.868
 1384WAT     H1 4394   7.997   6.257   1.899
 1384WAT     H2 4395   7.878   6.366   1.926
 1385WAT      O 4396   7.434   9.795   4.456
 1385WAT     H1 4397   7.464   9.856   4.382
 1385WAT     H2 4398   7.456   9.836   4.544
 1386WAT      O 4399   8.421   2.018   8.968
 1386WAT     H1 4400   8.383   2.095   9.019
 1386WAT     H2 4401   8.353   1.945   8.961
 1387WAT      O 4402   7.149   4.385   2.356
 1387WAT     H1 4403   7.238   4.388   2.400
 1387WAT     H2 4404   7.077   4.377   2.425
 1388WAT      O 4405   2.849   2.600   4.061
 1388WAT     H1 4406   2.947   2.615   4.070
 1388WAT     H2 4407   2.827   2.578   3.966
 1389WAT      O 4408   5.065   7.797   1.861
 1389WAT     H1 4409   5.124   7.777   1.782
 1389WAT     H2 4410   5.066   7.896   1.878
 1390WAT      O 4411   4.573   8.526   7.164
 1390WAT     H1 4412   4.654   8.473   7.191
 1390WAT     H2 4413   4.601   8.602   7.106
 1391WAT      O 4414   4.285   0.614   8.572
 1391WAT     H1 4415   4.348   0.584   8.501
 1391WAT     H2 4416   4.328   0.685   8.628
 1392WAT      O 4417   8.724   1.120   6.698
 1392WAT     H1 4418   8.725   1.020   6.696
 1392WAT     H2 4419   8.642   1.152   6.746
 1393WAT      O 4420   5.476   7.648   3.860
 1393WAT     H1 4421   5.456   7.552   3.838
 1393WAT     H2 4422   5.394   7.703   3.844
 1394WAT      O 4423   8.132   7.551   5.453
 1394WAT     H1 4424   8.149   7.473   5.392
 1394WAT     H2 4425   8.050   7.599   5.423
 1395WAT      O 4426   5.837   6.929   1.106
 1395WAT     H1 4427   5.924   6.890   1.137
 1395WAT     H2 4428   5.819   7.014   1.157
 1396WAT      O 4429   0.537   0.788   6.980
 1396WAT     H1 4430   0.525   0.816   7.075
 1396WAT     H2 4431   0.450   0.756   6.943
 1397WAT      O 4432   4.398   9.525   0.426
 1397WAT     H1 4433   4.401   9.609   0.479
 1397WAT     H2 4434   4.466   9.461   0.460
 1398WAT      O 4435   3.649   2.255   0.382
 1398WAT     H1 4436   3.590   2.188   0.427
 1398WAT     H2 4437   3.737   2.259   0.429
 1399WAT      O 4438   3.733   4.544   7.665
 1399WAT     H1 4439   3.726   4.578   7.759
 1399WAT     H2 4440   3.685   4.457   7.657
 1400WAT      O 4441   8.121   3.970   7.195
 1400WAT     H1 4442   8.209   4.006   7.166
 1400WAT     H2 4443   8.056   3.977   7.119
 1401WAT      O 4444   2.429   2.079   3.884
 1401WAT     H1 4445   2.506   2.123   3.930
 1401WAT     H2 4446   2.351   2.142   3.884
 1402WAT      O 4447   0.866   1.021   3.145
 1402WAT     H1 4448   0.867   0.988   3.240
 1402WAT     H2 4449   0.923   1.102   3.137
 1403WAT      O 4450   1.579   4.191   4.984
 1403WAT     H1 4451   1.574   4.109   5.041
 1403WAT     H2 4452   1.506   4.254   5.011
 1404WAT      O 4453   1.970   6.746   6.957
 1404WAT     H1 4454   1.979   6.668   6.896
 1404WAT     H2 4455   2.052   6.754   7.013
 1405WAT      O 4456   1.977   8.575   2.144
 1405WAT     H1 4457   2.026   8.536   2.222
 1405WAT     H2 4458   2.040   8.631   2.090
 1406WAT      O 4459   6.131   8.513   4.008
 1406WAT     H1 4460   6.165   8.419   4.013
 1406WAT     H2 4461   6.161   8.555   3.923
 1407WAT      O 4462   8.115   7.919   2.666
 1407WAT     H1 4463   8.162   7.839   2.704
 1407WAT     H2 4464   8.113   7.992   2.735
 1408WAT      O 4465   8.204   4.281   8.845
 1408WAT     H1 4466   8.255   4.263   8.760
 1408WAT     H2 4467   8.180   4.378   8.849
 1409WAT      O 4468   2.907   7.796   0.916
 1409WAT     H1 4469   2.901   7.767   0.821
 1409WAT     H2 4470   3.002   7.815   0.939
 1410WAT      O 4471   2.088   2.151   4.566
 1410WAT     H1 4472   2.141   2.198   4.637
 1410WAT     H2 4473   2.136   2.160   4.479
 1411WAT      O 4474   6.085   9.170   1.584
 1411WAT     H1 4475   6.049   9.114   1.659
 1411WAT     H2 4476   6.135   9.248   1.622
 1412WAT      O 4477   9.450   5.914   6.094
 1412WAT     H1 4478   9.355   5.946   6.088
 1412WAT     H2 4479   9.468   5.849   6.019
 1413WAT      O 4480   4.163   2.759   0.618
 1413WAT     H1 4481   4.170   2.843   0.564
 1413WAT     H2 4482   4.248   2.707   0.610
 1414WAT      O 4483   2.522   2.401   9.878
 1414WAT     H1 4484   2.460   2.338   9.832
 1414WAT     H2 4485   2.615   2.388   9.843
 1415WAT      O 4486   2.654   3.829   3.377
 1415WAT     H1 4487   2.635   3.922   3.347
 1415WAT     H2 4488   2.749   3.806   3.355
 1416WAT      O 4489   9.615   7.492   1.344
 1416WAT     H1 4490   9.596   7.415   1.404
 1416WAT     H2 4491   9.707   7.527   1.364
 1417WAT      O 4492   7.901   6.204   1.374
 1417WAT     H1 4493   7.905   6.232   1.470
 1417WAT     H2 4494   7.880   6.283   1.316
 1418WAT      O 4495   1.030   5.980   3.066
 1418WAT     H1 4496   1.007   6.067   3.110
 1418WAT     H2 4497   0.990   5.977   2.974
 1419WAT      O 4498   4.180   9.306   5.418
 1419WAT     H1 4499   4.098   9.252   5.397
 1419WAT     H2 4500   4.235   9.317   5.335
 1420WAT      O 4501   7.278   8.461   5.006
 1420WAT     H1 4502   7.226   8.533   4.960
 1420WAT     H2 4503   7.357   8.501   5.052
 1421WAT      O 4504   0.235   9.557   5.397
 1421WAT     H1 4505   0.209   9.498   5.321
 1421WAT     H2 4506   0.240   9.651   5.366
 1422WAT      O 4507   0.382   6.572   6.070
 1422WAT     H1 4508   0.340   6.627   6.142
 1422WAT     H2 4509   0.473   6.607   6.050
 1423WAT      O 4510   9.418   3.548   8.809
 1423WAT     H1 4511   9.331   3.548   8.859
 1423WAT     H2 4512   9.430   3.637   8.764
 1424WAT      O 4513   1.354   3.265   4.347
 1424WAT     H1 4514   1.380   3.285   4.441
 1424WAT     H2 4515   1.418   3.199   4.307
 1425WAT      O 4516   4.194   8.639   2.664
 1425WAT     H1 4517   4.282   8.685   2.677
 1425WAT     H2 4518   4.184   8.567   2.732
 1426WAT      O 4519   9.577   8.191   1.829
 1426WAT     H1 4520   9.612   8.258   1.764
 1426WAT     H2 4521   9.581   8.229   1.921
 1427WAT      O 4522   3.033   9.632   7.916
 1427WAT     H1 4523   3.111   9.683   7.881
 1427WAT     H2 4524   2.966   9.695   7.955
 1428WAT      O 4525   0.963   6.545   8.678
 1428WAT     H1 4526   0.975   6.628   8.732
 1428WAT     H2 4527   1.048   6.492   8.679
 1429WAT      O 4528   1.106   2.860   6.009
 1429WAT     H1 4529   1.063   2.841   6.097
 1429WAT     H2 4530   1.038   2.851   5.936
 1430WAT      O 4531   6.218   2.200   5.781
 1430WAT     H1 4532   6.186   2.160   5.867
 1430WAT     H2 4533   6.263   2.287   5.800
 1431WAT      O 4534   7.086   4.470   7.603
 1431WAT     H1 4535   7.085   4.477   7.702
 1431WAT     H2 4536   7.068   4.560   7.563
 1432WAT      O 4537   6.856   7.796   4.683
 1432WAT     H1 4538   6.929   7.738   4.648
 1432WAT     H2 4539   6.769   7.748   4.678
 1433WAT      O 4540   2.218   8.943   3.351
 1433WAT     H1 4541   2.147   8.879   3.381
 1433WAT     H2 4542   2.200   8.972   3.257
 1434WAT      O 4543   9.661   3.663   7.530
 1434WAT     H1 4544   9.615   3.600   7.593
 1434WAT     H2 4545   9.608   3.669   7.445
 1435WAT      O 4546   1.278   8.397   1.799
 1435WAT     H1 4547   1.213   8.351   1.739
 1435WAT     H2 4548   1.256   8.376   1.895
 1436WAT      O 4549   0.065   8.859   5.119
 1436WAT     H1 4550  -0.023   8.881   5.161
 1436WAT     H2 4551   0.049   8.812   5.032
 1437WAT      O 4552   4.423   8.500   1.229
 1437WAT     H1 4553   4.463   8.448   1.154
 1437WAT     H2 4554   4.339   8.455   1.259
 1438WAT      O 4555   8.624   6.017   4.659
 1438WAT     H1 4556   8.625   5.940   4.594
 1438WAT     H2 4557   8.616   6.103   4.609
 1439WAT      O 4558   2.008   6.692   4.619
 1439WAT     H1 4559   2.105   6.671   4.632
 1439WAT     H2 4560   1.980   6.761   4.686
 1440WAT      O 4561   7.398   7.497   2.240
 1440WAT     H1 4562   7.487   7.460   2.268
 1440WAT     H2 4563   7.338   7.501   2.320
 1441WAT      O 4564   2.637   5.358   7.904
 1441WAT     H1 4565   2.548   5.331   7.942
 1441WAT     H2 4566   2.697   5.389   7.978
 1442WAT      O 4567   3.462   1.883   5.842
 1442WAT     H1 4568   3.518   1.813   5.797
 1442WAT     H2 4569   3.497   1.974   5.818
 1443WAT      O 4570   7.448   6.102   7.520
 1443WAT     H1 4571   7.512   6.175   7.542
 1443WAT     H2 4572   7.496   6.014   7.520
 1444WAT      O 4573   4.088   7.071   0.244
 1444WAT     H1 4574   4.108   7.063   0.147
 1444WAT     H2 4575   4.169   7.047   0.297
 1445WAT      O 4576   8.697   6.956   6.855
 1445WAT     H1 4577   8.716   6.969   6.952
 1445WAT     H2 4578   8.730   7.036   6.804
 1446WAT      O 4579   6.142   2.997   3.301
 1446WAT     H1 4580   6.167   3.046   3.218
 1446WAT     H2 4581   6.083   2.920   3.277
 1447WAT      O 4582   3.669   2.590   1.050
 1447WAT     H1 4583   3.619   2.639   1.121
 1447WAT     H2 4584   3.680   2.495   1.077
 1448WAT      O 4585   3.794   3.805   2.378
 1448WAT     H1 4586   3.710   3.755   2.355
 1448WAT     H2 4587   3.869   3.741   2.392
 1449WAT      O 4588   2.851   2.439   8.202
 1449WAT     H1 4589   2.918   2.490   8.150
 1449WAT     H2 4590   2.771   2.420   8.145
 1450WAT      O 4591   1.724   2.732   2.876
 1450WAT     H1 4592   1.664   2.756   2.953
 1450WAT     H2 4593   1.705   2.638   2.847
 1451WAT      O 4594   4.324   3.043   8.317
 1451WAT     H1 4595   4.279   2.967   8.271
 1451WAT     H2 4596   4.255   3.102   8.360
 1452WAT      O 4597   2.456   6.029   4.528
 1452WAT     H1 4598   2.546   5.998   4.497
 1452WAT     H2 4599   2.385   5.991   4.468
 1453WAT      O 4600   5.383   3.143   4.489
 1453WAT     H1 4601   5.462   3.087   4.465
 1453WAT     H2 4602   5.300   3.097   4.459
 1454WAT      O 4603   5.650   1.306   3.215
 1454WAT     H1 4604   5.739   1.309   3.260
 1454WAT     H2 4605   5.598   1.388   3.239
 1455WAT      O 4606   8.282   5.936   4.510
 1455WAT     H1 4607   8.276   5.893   4.601
 1455WAT     H2 4608   8.263   6.034   4.518
 1456WAT      O 4609   4.427   0.525   5.014
 1456WAT     H1 4610   4.467   0.590   5.078
 1456WAT     H2 4611   4.461   0.544   4.922
 1457WAT      O 4612   2.069   0.603   5.977
 1457WAT     H1 4613   2.044   0.606   6.074
 1457WAT     H2 4614   2.034   0.685   5.931
 1458WAT      O 4615   5.975   4.048   2.270
 1458WAT     H1 4616   5.962   3.952   2.295
 1458WAT     H2 4617   6.017   4.055   2.180
 1459WAT      O 4618   3.571   8.156   1.753
 1459WAT     H1 4619   3.529   8.203   1.830
 1459WAT     H2 4620   3.657   8.201   1.729
 1460WAT      O 4621   2.479   0.249   7.544
 1460WAT     H1 4622   2.565   0.287   7.577
 1460WAT     H2 4623   2.436   0.196   7.617
 1461WAT      O 4624   7.246   5.728   6.311
 1461WAT     H1 4625   7.207   5.653   6.257
 1461WAT     H2 4626   7.315   5.775   6.257
 1462WAT      O 4627   5.713   5.909   6.211
 1462WAT     H1 4628   5.724   5.835   6.278
 1462WAT     H2 4629   5.763   5.885   6.127
 1463WAT      O 4630   2.612   0.009   3.605
 1463WAT     H1 4631   2.667  -0.009   3.524
 1463WAT     H2 4632   2.552  -0.070   3.623
 1464WAT      O 4633   9.685   6.454   8.084
 1464WAT     H1 4634   9.679   6.552   8.065
 1464WAT     H2 4635   9.648   6.403   8.006
 1465WAT      O 4636   6.236   9.242   0.398
 1465WAT     H1 4637   6.246   9.247   0.497
 1465WAT     H2 4638   6.140   9.225   0.375
 1466WAT      O 4639   2.233   1.555   9.707
 1466WAT     H1 4640   2.211   1.602   9.792
 1466WAT     H2 4641   2.246   1.623   9.634
 1467WAT      O 4642   9.636   2.647   9.415
 1467WAT     H1 4643   9.548   2.602   9.432
 1467WAT     H2 4644   9.654   2.712   9.488
 1468WAT      O 4645   2.199   0.689   5.203
 1468WAT     H1 4646   2.188   0.605   5.256
 1468WAT     H2 4647   2.246   0.757   5.259
 1469WAT      O 4648   0.408   6.045   4.434
 1469WAT     H1 4649   0.486   6.059   4.495
 1469WAT     H2 4650   0.431   5.979   4.363
 1470WAT      O 4651   6.872   3.273   6.303
 1470WAT     H1 4652   6.829   3.183   6.298
 1470WAT     H2 4653   6.807   3.343   6.272
 1471WAT      O 4654   2.445   6.009   7.961
 1471WAT     H1 4655   2.526   6.066   7.971
 1471WAT     H2 4656   2.471   5.922   7.919
 1472WAT      O 4657   6.143   0.928   9.221
 1472WAT     H1 4658   6.212   0.966   9.282
 1472WAT     H2 4659   6.122   0.994   9.149
 1473WAT      O 4660   6.423   7.703   9.270
 1473WAT     H1 4661   6.335   7.750   9.262
 1473WAT     H2 4662   6.406   7.605   9.282
 1474WAT      O 4663   6.370   2.624   1.532
 1474WAT     H1 4664   6.468   2.639   1.546
 1474WAT     H2 4665   6.348   2.528   1.551
 1475WAT      O 4666   8.281   1.728   4.782
 1475WAT     H1 4667   8.322   1.669   4.712
 1475WAT     H2 4668   8.292   1.823   4.756
 1476WAT      O 4669   4.851   6.801   2.791
 1476WAT     H1 4670   4.950   6.790   2.778
 1476WAT     H2 4671   4.803   6.760   2.714
 1477WAT      O 4672   8.662   5.429   7.686
 1477WAT     H1 4673   8.564   5.411   7.684
 1477WAT     H2 4674   8.678   5.528   7.694
 1478WAT      O 4675   2.757   5.751   9.345
 1478WAT     H1 4676   2.748   5.772   9.443
 1478WAT     H2 4677   2.742   5.653   9.331
 1479WAT      O 4678   4.946   1.946   3.934
 1479WAT     H1 4679   4.940   2.044   3.951
 1479WAT     H2 4680   5.031   1.910   3.974
 1480WAT      O 4681   1.371   2.733   0.944
 1480WAT     H1 4682   1.297   2.696   0.999
 1480WAT     H2 4683   1.361   2.832   0.936
 1481WAT      O 4684   2.274   7.532   7.866
 1481WAT     H1 4685   2.271   7.588   7.783
 1481WAT     H2 4686   2.342   7.570   7.929
 1482WAT      O 4687   3.300   8.991   6.245
 1482WAT     H1 4688   3.335   9.082   6.225
 1482WAT     H2 4689   3.373   8.933   6.280
 1483WAT      O 4690   8.398   5.786   2.212
 1483WAT     H1 4691   8.381   5.687   2.209
 1483WAT     H2 4692   8.453   5.812   2.132
 1484WAT      O 4693   0.655   7.131   0.117
 1484WAT     H1 4694   0.654   7.231   0.121
 1484WAT     H2 4695   0.563   7.096   0.137
 1485WAT      O 4696   7.956   8.817   1.382
 1485WAT     H1 4697   7.913   8.834   1.294
 1485WAT     H2 4698   7.889   8.778   1.446
 1486WAT      O 4699   0.265   7.749   2.189
 1486WAT     H1 4700   0.188   7.685   2.182
 1486WAT     H2 4701   0.244   7.833   2.139
 1487WAT      O 4702   2.760   8.011   7.575
 1487WAT     H1 4703   2.821   7.941   7.614
 1487WAT     H2 4704   2.682   7.966   7.533
 1488WAT      O 4705   7.495   9.690   5.491
 1488WAT     H1 4706   7.466   9.745   5.569
 1488WAT     H2 4707   7.577   9.638   5.516
 1489WAT      O 4708   2.997   9.766   3.029
 1489WAT     H1 4709   3.011   9.771   3.128
 1489WAT     H2 4710   2.930   9.836   3.001
 1490WAT      O 4711   7.729   6.165   9.679
 1490WAT     H1 4712   7.773   6.183   9.591
 1490WAT     H2 4713   7.635   6.200   9.676
 1491WAT      O 4714   4.948   2.579   5.937
 1491WAT     H1 4715   4.979   2.674   5.936
 1491WAT     H2 4716   4.849   2.576   5.947
 1492WAT      O 4717   1.077   4.079   7.513
 1492WAT     H1 4718   1.081   4.001   7.575
 1492WAT     H2 4719   1.166   4.125   7.512
 1493WAT      O 4720   8.240   9.145   5.808
 1493WAT     H1 4721   8.176   9.221   5.796
 1493WAT     H2 4722   8.194   9.071   5.858
 1494WAT      O 4723   8.534   7.673   3.399
 1494WAT     H1 4724   8.577   7.584   3.412
 1494WAT     H2 4725   8.502   7.681   3.304
 1495WAT      O 4726   4.182   5.584   6.288
 1495WAT     H1 4727   4.263   5.643   6.282
 1495WAT     H2 4728   4.118   5.623   6.355
 1496WAT      O 4729   7.580   2.508   1.903
 1496WAT     H1 4730   7.480   2.518   1.900
 1496WAT     H2 4731   7.623   2.595   1.880
 1497WAT      O 4732   5.843   6.584   7.507
 1497WAT     H1 4733   5.934   6.550   7.483
 1497WAT     H2 4734   5.851   6.662   7.569
 1498WAT      O 4735   9.254   3.501   6.775
 1498WAT     H1 4736   9.267   3.597   6.749
 1498WAT     H2 4737   9.242   3.495   6.874
 1499WAT      O 4738   3.292   7.353   7.410
 1499WAT     H1 4739   3.285   7.273   7.351
 1499WAT     H2 4740   3.231   7.343   7.487
 1500WAT      O 4741   1.127   8.264   9.365
 1500WAT     H1 4742   1.176   8.177   9.359
 1500WAT     H2 4743   1.110   8.286   9.461
 1501WAT      O 4744   4.891   9.502   3.399
 1501WAT     H1 4745   4.957   9.577   3.408
 1501WAT     H2 4746   4.907   9.435   3.472
 1502WAT      O 4747   2.622   6.473   5.055
 1502WAT     H1 4748   2.550   6.504   4.994
 1502WAT     H2 4749   2.592   6.484   5.150
 1503WAT      O 4750   5.273   6.526   0.384
 1503WAT     H1 4751   5.308   6.534   0.477
 1503WAT     H2 4752   5.274   6.616   0.340
 1504WAT      O 4753   6.750   7.180   9.153
 1504WAT     H1 4754   6.705   7.266   9.127
 1504WAT     H2 4755   6.821   7.158   9.085
 1505WAT      O 4756   1.134   2.729   7.686
 1505WAT     H1 4757   1.093   2.668   7.618
 1505WAT     H2 4758   1.090   2.819   7.681
 1506WAT      O 4759   7.163   3.066   6.146
 1506WAT     H1 4760   7.242   3.081   6.205
 1506WAT     H2 4761   7.193   3.064   6.050
 1507WAT      O 4762   7.781   1.093   0.767
 1507WAT     H1 4763   7.831   1.095   0.680
 1507WAT     H2 4764   7.823   1.158   0.830
 1508WAT      O 4765   9.663   5.836   5.137
 1508WAT     H1 4766   9.636   5.910   5.076
 1508WAT     H2 4767   9.681   5.873   5.228
 1509WAT      O 4768   0.445   6.494   7.596
 1509WAT     H1 4769   0.389   6.435   7.654
 1509WAT     H2 4770   0.538   6.457   7.591
 1510WAT      O 4771   0.793   9.404   8.251
 1510WAT     H1 4772   0.711   9.399   8.194
 1510WAT     H2 4773   0.855   9.329   8.228
 1511WAT      O 4774   2.999   1.549   5.961
 1511WAT     H1 4775   2.977   1.473   5.900
 1511WAT     H2 4776   2.916   1.578   6.009
 1512WAT      O 4777   8.445   4.221   0.251
 1512WAT     H1 4778   8.544   4.237   0.258
 1512WAT     H2 4779   8.403   4.295   0.198
 1513WAT      O 4780   3.109   3.964   2.841
 1513WAT     H1 4781   3.071   3.961   2.933
 1513WAT     H2 4782   3.203   3.998   2.845
 1514WAT      O 4783   2.055   6.683   5.449
 1514WAT     H1 4784   1.966   6.650   5.482
 1514WAT     H2 4785   2.066   6.658   5.353
 1515WAT      O 4786   1.634   2.485   6.435
 1515WAT     H1 4787   1.733   2.471   6.439
 1515WAT     H2 4788   1.591   2.443   6.515
 1516WAT      O 4789   5.492   9.626   8.070
 1516WAT     H1 4790   5.435   9.577   8.135
 1516WAT     H2 4791   5.435   9.665   7.998
 1517WAT      O 4792   6.764   4.241   9.576
 1517WAT     H1 4793   6.849   4.293   9.583
 1517WAT     H2 4794   6.783   4.144   9.587
 1518WAT      O 4795   5.296   7.573   1.980
 1518WAT     H1 4796   5.333   7.492   2.025
 1518WAT     H2 4797   5.210   7.598   2.023
 1519WAT      O 4798   2.842   2.021   1.295
 1519WAT     H1 4799   2.798   2.085   1.358
 1519WAT     H2 4800   2.825   2.050   1.200
 1520WAT      O 4801   7.775   7.655   3.321
 1520WAT     H1 4802   7.721   7.583   3.364
 1520WAT     H2 4803   7.871   7.645   3.347
 1521WAT      O 4804   0.967   2.562   5.388
 1521WAT     H1 4805   0.886   2.507   5.408
 1521WAT     H2 4806   1.013   2.523   5.308
 1522WAT      O 4807   9.721   0.943   2.011
 1522WAT     H1 4808   9.640   0.926   1.955
 1522WAT     H2 4809   9.693   0.964   2.105
 1523WAT      O 4810   4.988   0.766   2.842
 1523WAT     H1 4811   4.921   0.719   2.898
 1523WAT     H2 4812   4.996   0.720   2.753
 1524WAT      O 4813   7.947   6.243   4.218
 1524WAT     H1 4814   7.917   6.313   4.283
 1524WAT     H2 4815   7.909   6.263   4.128
 1525WAT      O 4816   7.424   8.582   2.245
 1525WAT     H1 4817   7.493   8.640   2.288
 1525WAT     H2 4818   7.352   8.639   2.205
 1526WAT      O 4819   8.113   5.113   7.541
 1526WAT     H1 4820   8.174   5.034   7.531
 1526WAT     H2 4821   8.166   5.197   7.532
 1527WAT      O 4822   9.603   2.510   1.018
 1527WAT     H1 4823   9.671   2.519   0.945
 1527WAT     H2 4824   9.609   2.419   1.059
 1528WAT      O 4825   8.686   0.559   0.733
 1528WAT     H1 4826   8.684   0.598   0.641
 1528WAT     H2 4827   8.759   0.602   0.786
 1529WAT      O 4828   5.624   8.292   9.401
 1529WAT     H1 4829   5.666   8.377   9.372
 1529WAT     H2 4830   5.556   8.311   9.472
 1530WAT      O 4831   2.533   3.678   9.876
 1530WAT     H1 4832   2.480   3.669   9.792
 1530WAT     H2 4833   2.472   3.703   9.951
 1531WAT      O 4834   2.048   5.404   2.459
 1531WAT     H1 4835   2.110   5.340   2.504
 1531WAT     H2 4836   2.036   5.377   2.364
 1532WAT      O 4837   7.266   1.729   9.608
 1532WAT     H1 4838   7.346   1.756   9.554
 1532WAT     H2 4839   7.232   1.641   9.575
 1533WAT      O 4840   0.913   5.932   3.439
 1533WAT     H1 4841   1.006   5.927   3.475
 1533WAT     H2 4842   0.879   6.025   3.450
 1534WAT      O 4843   0.758   9.033   3.357
 1534WAT     H1 4844   0.764   8.997   3.264
 1534WAT     H2 4845   0.815   8.977   3.418
 1535WAT      O 4846   7.743   0.661   9.038
 1535WAT     H1 4847   7.696   0.581   9.000
 1535WAT     H2 4848   7.678   0.716   9.089
 1536WAT      O 4849   8.222   5.987   2.262
 1536WAT     H1 4850   8.212   6.012   2.358
 1536WAT     H2 4851   8.283   5.908   2.255
 1537WAT      O 4852   3.277   0.058   1.597
 1537WAT     H1 4853   3.324   0.055   1.509
 1537WAT     H2 4854   3.343   0.077   1.669
 1538WAT      O 4855   0.078   3.558   4.681
 1538WAT     H1 4856   0.070   3.654   4.708
 1538WAT     H2 4857   0.160   3.519   4.724
 1539WAT      O 4858   1.051   4.264   8.282
 1539WAT     H1 4859   1.071   4.327   8.208
 1539WAT     H2 4860   0.971   4.296   8.333
 1540WAT      O 4861   7.301   3.969   3.832
 1540WAT     H1 4862   7.210   3.963   3.873
 1540WAT     H2 4863   7.293   4.006   3.739
 1541WAT      O 4864   6.557   0.890   6.819
 1541WAT     H1 4865   6.483   0.855   6.875
 1541WAT     H2 4866   6.642   0.893   6.873
 1542WAT      O 4867   2.187   8.849   2.401
 1542WAT     H1 4868   2.181   8.834   2.302
 1542WAT     H2 4869   2.102   8.817   2.444
 1543WAT      O 4870   8.346   1.494   2.008
 1543WAT     H1 4871   8.352   1.576   1.952
 1543WAT     H2 4872   8.259   1.493   2.057
 1544WAT      O 4873   7.196   1.158   7.917
 1544WAT     H1 4874   7.207   1.152   7.818
 1544WAT     H2 4875   7.100   1.144   7.941
 1545WAT      O 4876   4.404   0.596   8.335
 1545WAT     H1 4877   4.436   0.689   8.313
 1545WAT     H2 4878   4.480   0.532   8.325
 1546WAT      O 4879   8.961   2.912   7.155
 1546WAT     H1 4880   8.963   2.814   7.139
 1546WAT     H2 4881   9.051   2.944   7.183
 1547WAT      O 4882   8.889   8.249   0.368
 1547WAT     H1 4883   8.814   8.272   0.430
 1547WAT     H2 4884   8.881   8.305   0.285
 1548WAT      O 4885   2.463   1.856   1.640
 1548WAT     H1 4886   2.552   1.852   1.685
 1548WAT     H2 4887   2.408   1.929   1.682
 1549WAT      O 4888   6.000   1.436   2.829
 1549WAT     H1 4889   6.016   1.416   2.732
 1549WAT     H2 4890   6.069   1.501   2.862
 1550WAT      O 4891   4.569   3.152   4.733
 1550WAT     H1 4892   4.556   3.191   4.825
 1550WAT     H2 4893   4.660   3.175   4.700
 1551WAT      O 4894   5.822   8.950   5.243
 1551WAT     H1 4895   5.861   9.041   5.254
 1551WAT     H2 4896   5.729   8.958   5.207
 1552WAT      O 4897   9.759   3.609   5.843
 1552WAT     H1 4898   9.790   3.598   5.938
 1552WAT     H2 4899   9.695   3.536   5.821
 1553WAT      O 4900   5.344   3.218   4.056
 1553WAT     H1 4901   5.377   3.262   4.140
 1553WAT     H2 4902   5.347   3.283   3.981
 1554WAT      O 4903   5.424   4.618   5.043
 1554WAT     H1 4904   5.365   4.588   5.119
 1554WAT     H2 4905   5.433   4.543   4.977
 1555WAT      O 4906   0.517   5.340   3.241
 1555WAT     H1 4907   0.476   5.412   3.296
 1555WAT     H2 4908   0.485   5.348   3.146
 1556WAT      O 4909   4.775   7.234   5.526
 1556WAT     H1 4910   4.721   7.275   5.453
 1556WAT     H2 4911   4.851   7.182   5.487
 1557WAT      O 4912   6.691   3.177   4.729
 1557WAT     H1 4913   6.646   3.225   4.653
 1557WAT     H2 4914   6.643   3.091   4.746
 1558WAT      O 4915   3.652   6.991   0.261
 1558WAT     H1 4916   3.725   7.044   0.303
 1558WAT     H2 4917   3.581   7.052   0.228
 1559WAT      O 4918   7.822   3.870   7.425
 1559WAT     H1 4919   7.731   3.830   7.428
 1559WAT     H2 4920   7.824   3.945   7.359
 1560WAT      O 4921   4.150   6.446   0.901
 1560WAT     H1 4922   4.105   6.449   0.812
 1560WAT     H2 4923   4.129   6.529   0.952
 1561WAT      O 4924   5.857   1.544   5.742
 1561WAT     H1 4925   5.801   1.461   5.748
 1561WAT     H2 4926   5.888   1.570   5.833
 1562WAT      O 4927   6.127   1.500   5.354
 1562WAT     H1 4928   6.146   1.423   5.294
 1562WAT     H2 4929   6.054   1.556   5.314
 1563WAT      O 4930   6.645   1.759   4.193
 1563WAT     H1 4931   6.646   1.809   4.280
 1563WAT     H2 4932   6.596   1.673   4.205
 1564WAT      O 4933   4.765   2.093   9.445
 1564WAT     H1 4934   4.700   2.161   9.481
 1564WAT     H2 4935   4.794   2.121   9.354
 1565WAT      O 4936   0.242   5.891   6.121
 1565WAT     H1 4937   0.328   5.937   6.145
 1565WAT     H2 4938   0.244   5.798   6.157
 1566WAT      O 4939   1.336   8.782   7.974
 1566WAT     H1 4940   1.433   8.808   7.983
 1566WAT     H2 4941   1.284   8.859   7.937
 1567WAT      O 4942   4.738   7.474   1.242
 1567WAT     H1 4943   4.680   7.406   1.288
 1567WAT     H2 4944   4.724   7.467   1.143
 1568WAT      O 4945   6.788   5.295   8.792
 1568WAT     H1 4946   6.856   5.234   8.752
 1568WAT     H2 4947   6.720   5.318   8.723
 1569WAT      O 4948   4.096   7.476   6.650
 1569WAT     H1 4949   4.155   7.501   6.727
 1569WAT     H2 4950   4.110   7.379   6.628
 1570WAT      O 4951   6.539   3.505   7.079
 1570WAT     H1 4952   6.525   3.485   7.176
 1570WAT     H2 4953   6.602   3.438   7.040
 1571WAT      O 4954   7.117   6.129   6.726
 1571WAT     H1 4955   7.146   6.196   6.793
 1571WAT     H2 4956   7.196   6.082   6.687
 1572WAT      O 4957   6.308   9.351   6.918
 1572WAT     H1 4958   6.298   9.430   6.979
 1572WAT     H2 4959   6.393   9.303   6.939
 1573WAT      O 4960   4.013   2.955   5.866
 1573WAT     H1 4961   4.083   3.005   5.917
 1573WAT     H2 4962   4.011   2.860   5.897
 1574WAT      O 4963   1.250   1.857   1.898
 1574WAT     H1 4964   1.324   1.888   1.839
 1574WAT     H2 4965   1.214   1.770   1.865
 1575WAT      O 4966   8.075   3.657   6.041
 1575WAT     H1 4967   8.010   3.660   6.118
 1575WAT     H2 4968   8.161   3.616   6.071
 1576WAT      O 4969   6.155   6.499   5.240
 1576WAT     H1 4970   6.097   6.580   5.244
 1576WAT     H2 4971   6.101   6.421   5.209
 1577WAT      O 4972   0.564   8.168   0.662
 1577WAT     H1 4973   0.649   8.127   0.696
 1577WAT     H2 4974   0.584   8.261   0.628
 1578WAT      O 4975   3.270   8.443   9.515
 1578WAT     H1 4976   3.185   8.409   9.555
 1578WAT     H2 4977   3.254   8.532   9.472
 1579WAT      O 4978   1.011   0.942   5.285
 1579WAT     H1 4979   1.010   0.933   5.384
 1579WAT     H2 4980   0.961   1.024   5.258
 1580WAT      O 4981   9.628   5.269   0.830
 1580WAT     H1 4982   9.530   5.276   0.812
 1580WAT     H2 4983   9.651   5.173   0.850
 1581WAT      O 4984   4.022   0.722   8.521
 1581WAT     H1 4985   3.955   0.649   8.505
 1581WAT     H2 4986   4.114   0.685   8.511
 1582WAT      O 4987   0.181   2.138   7.911
 1582WAT     H1 4988   0.197   2.192   7.829
 1582WAT     H2 4989   0.084   2.141   7.935
 1583WAT      O 4990   3.808   6.898   8.976
 1583WAT     H1 4991   3.777   6.972   8.917
 1583WAT     H2 4992   3.900   6.870   8.948
 1584WAT      O 4993   8.366   1.757   7.156
 1584WAT     H1 4994   8.389   1.663   7.131
 1584WAT     H2 4995   8.351   1.811   7.074
 1585WAT      O 4996   2.426   0.648   8.667
 1585WAT     H1 4997   2.515   0.682   8.699
 1585WAT     H2 4998   2.354   0.711   8.695
 1586WAT      O 4999   0.776   6.576   0.724
 1586WAT     H1 5000   0.761   6.591   0.822
 1586WAT     H2 5001   0.750   6.658   0.673
 1587WAT      O 5002   5.051   8.916   4.167
 1587WAT     H1 5003   5.114   8.850   4.127
 1587WAT     H2 5004   4.963   8.910   4.121
 1588WAT      O 5005   8.586   0.182   5.820
 1588WAT     H1 5006   8.575   0.157   5.916
 1588WAT     H2 5007   8.637   0.110   5.772
 1589WAT      O 5008   5.919   3.368   7.945
 1589WAT     H1 5009   5.914   3.468   7.952
 1589WAT     H2 5010   5.830   3.332   7.919
 1590WAT      O 5011   5.817   3.455   0.973
 1590WAT     H1 5012   5.754   3.380   0.952
 1590WAT     H2 5013   5.829   3.512   0.892
 1591WAT      O 5014   0.990   2.299   7.091
 1591WAT     H1 5015   0.909   2.297   7.032
 1591WAT     H2 5016   1.071   2.321   7.037
 1592WAT      O 5017   4.530   8.902   8.108
 1592WAT     H1 5018   4.562   8.930   8.199
 1592WAT     H2 5019   4.435   8.931   8.096
 1593WAT      O 5020   1.203   7.107   3.551
 1593WAT     H1 5021   1.263   7.164   3.495
 1593WAT     H2 5022   1.112   7.103   3.508
 1594WAT      O 5023   5.381   7.109   4.633
 1594WAT     H1 5024   5.381   7.097   4.732
 1594WAT     H2 5025   5.421   7.028   4.589
 1595WAT      O 5026   2.992   5.842   2.644
 1595WAT     H1 5027   3.053   5.815   2.718
 1595WAT     H2 5028   2.961   5.762   2.594
 1596WAT      O 5029   3.166   4.558   2.275
 1596WAT     H1 5030   3.220   4.573   2.192
 1596WAT     H2 5031   3.125   4.645   2.305
 1597WAT      O 5032   4.219   9.161   2.153
 1597WAT     H1 5033   4.216   9.150   2.252
 1597WAT     H2 5034   4.131   9.195   2.120
 1598WAT      O 5035   8.335   6.377   1.981
 1598WAT     H1 5036   8.269   6.397   1.909
 1598WAT     H2 5037   8.417   6.432   1.968
 1599WAT      O 5038   0.229   1.830   8.459
 1599WAT     H1 5039   0.309   1.820   8.400
 1599WAT     H2 5040   0.196   1.739   8.486
 1600WAT      O 5041   5.449   8.428   2.212
 1600WAT     H1 5042   5.437   8.382   2.124
 1600WAT     H2 5043   5.515   8.377   2.267
 1601WAT      O 5044   9.025   0.237   5.060
 1601WAT     H1 5045   9.042   0.184   5.144
 1601WAT     H2 5046   9.016   0.174   4.983
 1602WAT      O 5047   3.125   8.676   6.691
 1602WAT     H1 5048   3.188   8.606   6.726
 1602WAT     H2 5049   3.031   8.644   6.703
 1603WAT      O 5050   7.021   1.805   3.224
 1603WAT     H1 5051   7.116   1.822   3.247
 1603WAT     H2 5052   7.001   1.708   3.237
 1604WAT      O 5053   4.647   6.695   4.235
 1604WAT     H1 5054   4.602   6.630   4.174
 1604WAT     H2 5055   4.699   6.646   4.304
 1605WAT      O 5056   1.751   4.516   0.045
 1605WAT     H1 5057   1.660   4.493   0.012
 1605WAT     H2 5058   1.809   4.543  -0.032
 1606WAT      O 5059   6.306   6.690   2.770
 1606WAT     H1 5060   6.394   6.689   2.818
 1606WAT     H2 5061   6.235   6.650   2.828
 1607WAT      O 5062   6.352   9.065   3.851
 1607WAT     H1 5063   6.306   9.152   3.867
 1607WAT     H2 5064   6.344   9.041   3.754
 1608WAT      O 5065   7.686   2.515   5.267
 1608WAT     H1 5066   7.603   2.495   5.214
 1608WAT     H2 5067   7.744   2.434   5.271
 1609WAT      O 5068   1.571   1.122   2.693
 1609WAT     H1 5069   1.535   1.174   2.770
 1609WAT     H2 5070   1.539   1.163   2.607
 1610WAT      O 5071   3.455   6.189   3.215
 1610WAT     H1 5072   3.479   6.186   3.118
 1610WAT     H2 5073   3.530   6.231   3.267
 1611WAT      O 5074   0.348   3.089   7.635
 1611WAT     H1 5075   0.375   3.029   7.560
 1611WAT     H2 5076   0.306   3.035   7.708
 1612WAT      O 5077   2.710   7.735   0.042
 1612WAT     H1 5078   2.719   7.656  -0.018
 1612WAT     H2 5079   2.668   7.810  -0.009
 1613WAT      O 5080   4.853   6.068   4.113
 1613WAT     H1 5081   4.758   6.041   4.100
 1613WAT     H2 5082   4.914   5.997   4.077
 1614WAT      O 5083   6.352   0.183   7.702
 1614WAT     H1 5084   6.345   0.133   7.788
 1614WAT     H2 5085   6.345   0.120   7.625
 1615WAT      O 5086   6.392   4.395   8.850
 1615WAT     H1 5087   6.440   4.468   8.801
 1615WAT     H2 5088   6.295   4.419   8.858
 1616WAT      O 5089   8.048   1.595   4.180
 1616WAT     H1 5090   8.032   1.560   4.088
 1616WAT     H2 5091   7.965   1.582   4.235
 1617WAT      O 5092   5.111   2.363   5.963
 1617WAT     H1 5093   5.142   2.327   5.874
 1617WAT     H2 5094   5.040   2.432   5.947
 1618WAT      O 5095   9.318   3.460   9.738
 1618WAT     H1 5096   9.344   3.551   9.768
 1618WAT     H2 5097   9.286   3.463   9.643
 1619WAT      O 5098   2.888   8.868   9.164
 1619WAT     H1 5099   2.861   8.960   9.193
 1619WAT     H2 5100   2.845   8.801   9.224
 1620WAT      O 5101   2.083   1.365   1.126
 1620WAT     H1 5102   1.990   1.396   1.103
 1620WAT     H2 5103   2.091   1.268   1.106
 1621WAT      O 5104   4.150   7.277   3.931
 1621WAT     H1 5105   4.190   7.201   3.981
 1621WAT     H2 5106   4.201   7.291   3.845
 1622WAT      O 5107   0.914   0.180   1.364
 1622WAT     H1 5108   0.951   0.165   1.456
 1622WAT     H2 5109   0.944   0.268   1.330
 1623WAT      O 5110   0.936   0.843   8.475
 1623WAT     H1 5111   0.928   0.942   8.477
 1623WAT     H2 5112   1.016   0.815   8.530
 1624WAT      O 5113   6.226   3.835   2.272
 1624WAT     H1 5114   6.151   3.827   2.206
 1624WAT     H2 5115   6.285   3.755   2.264
 1625WAT      O 5116   4.613   7.632   9.662
 1625WAT     H1 5117   4.574   7.602   9.749
 1625WAT     H2 5118   4.707   7.663   9.676
 1626WAT      O 5119   6.942   2.932   3.353
 1626WAT     H1 5120   7.010   2.863   3.380
 1626WAT     H2 5121   6.850   2.895   3.368
 1627WAT      O 5122   8.482   3.293   6.635
 1627WAT     H1 5123   8.513   3.198   6.643
 1627WAT     H2 5124   8.561   3.354   6.639
 1628WAT      O 5125   0.788   4.395   2.772
 1628WAT     H1 5126   0.866   4.380   2.833
 1628WAT     H2 5127   0.797   4.335   2.692
 1629WAT      O 5128   1.631   6.943   6.874
 1629WAT     H1 5129   1.649   6.921   6.778
 1629WAT     H2 5130   1.664   6.869   6.933
 1630WAT      O 5131   6.003   2.781   6.113
 1630WAT     H1 5132   6.093   2.800   6.073
 1630WAT     H2 5133   6.011   2.778   6.212
 1631WAT      O 5134   0.086   3.814   4.756
 1631WAT     H1 5135  -0.010   3.829   4.733
 1631WAT     H2 5136   0.124   3.896   4.798
 1632WAT      O 5137   8.303   5.307   7.497
 1632WAT     H1 5138   8.358   5.336   7.576
 1632WAT     H2 5139   8.244   5.382   7.469
 1633WAT      O 5140   2.432   5.362   5.016
 1633WAT     H1 5141   2.400   5.436   5.075
 1633WAT     H2 5142   2.507   5.396   4.959
 1634WAT      O 5143   2.113   4.785   0.158
 1634WAT     H1 5144   2.029   4.838   0.168
 1634WAT     H2 5145   2.114   4.711   0.225
 1635WAT      O 5146   6.736   3.097   2.692
 1635WAT     H1 5147   6.827   3.129   2.663
 1635WAT     H2 5148   6.736   2.997   2.695
 1636WAT      O 5149   4.136   8.445   0.665
 1636WAT     H1 5150   4.165   8.351   0.648
 1636WAT     H2 5151   4.214   8.499   0.693
 1637WAT      O 5152   1.651   0.514   3.633
 1637WAT     H1 5153   1.706   0.466   3.564
 1637WAT     H2 5154   1.696   0.600   3.657
 1638WAT      O 5155   5.918   0.813   8.780
 1638WAT     H1 5156   5.886   0.754   8.854
 1638WAT     H2 5157   5.866   0.794   8.697
 1639WAT      O 5158   3.167   3.956   4.081
 1639WAT     H1 5159   3.258   3.986   4.054
 1639WAT     H2 5160   3.157   3.965   4.180
 1640WAT      O 5161   4.699   7.072   1.125
 1640WAT     H1 5162   4.647   7.152   1.157
 1640WAT     H2 5163   4.794   7.099   1.110
 1641WAT      O 5164   7.375   4.502   2.211
 1641WAT     H1 5165   7.475   4.509   2.205
 1641WAT     H2 5166   7.350   4.429   2.274
 1642WAT      O 5167   3.273   8.260   1.892
 1642WAT     H1 5168   3.202   8.330   1.880
 1642WAT     H2 5169   3.237   8.171   1.866
 1643WAT      O 5170   2.850   8.117   3.154
 1643WAT     H1 5171   2.810   8.026   3.144
 1643WAT     H2 5172   2.942   8.108   3.192
 1644WAT      O 5173   6.334   6.627   8.770
 1644WAT     H1 5174   6.256   6.660   8.823
 1644WAT     H2 5175   6.375   6.549   8.816
 1645WAT      O 5176   8.780   4.639   8.298
 1645WAT     H1 5177   8.844   4.670   8.369
 1645WAT     H2 5178   8.760   4.542   8.312
 1646WAT      O 5179   4.687   0.893   0.291
 1646WAT     H1 5180   4.690   0.793   0.295
 1646WAT     H2 5181   4.604   0.922   0.242
 1647WAT      O 5182   2.979   4.945   1.924
 1647WAT     H1 5183   3.014   5.038   1.912
 1647WAT     H2 5184   3.056   4.881   1.926
 1648WAT      O 5185   9.502   4.792   0.759
 1648WAT     H1 5186   9.498   4.693   0.744
 1648WAT     H2 5187   9.554   4.835   0.685
 1649WAT      O 5188   3.631   9.434   2.460
 1649WAT     H1 5189   3.688   9.414   2.540
 1649WAT     H2 5190   3.666   9.384   2.380
 1650WAT      O 5191   6.042   1.907   7.712
 1650WAT     H1 5192   6.085   1.851   7.783
 1650WAT     H2 5193   6.059   1.867   7.622
 1651WAT      O 5194   8.168   8.402   3.450
 1651WAT     H1 5195   8.088   8.384   3.393
 1651WAT     H2 5196   8.240   8.335   3.428
 1652WAT      O 5197   8.155   4.870   1.806
 1652WAT     H1 5198   8.124   4.850   1.713
 1652WAT     H2 5199   8.090   4.829   1.871
 1653WAT      O 5200   3.548   3.836   1.797
 1653WAT     H1 5201   3.620   3.778   1.758
 1653WAT     H2 5202   3.478   3.853   1.727
 1654WAT      O 5203   4.727   3.569   8.170
 1654WAT     H1 5204   4.755   3.519   8.252
 1654WAT     H2 5205   4.657   3.636   8.195
 1655WAT      O 5206   5.370   5.273   6.529
 1655WAT     H1 5207   5.298   5.204   6.539
 1655WAT     H2 5208   5.416   5.286   6.617
 1656WAT      O 5209   9.192   2.600   3.928
 1656WAT     H1 5210   9.173   2.677   3.990
 1656WAT     H2 5211   9.283   2.564   3.949
 1657WAT      O 5212   4.273   9.528   4.791
 1657WAT     H1 5213   4.248   9.622   4.814
 1657WAT     H2 5214   4.269   9.515   4.692
 1658WAT      O 5215   5.860   4.121   5.616
 1658WAT     H1 5216   5.799   4.110   5.538
 1658WAT     H2 5217   5.807   4.138   5.699
 1659WAT      O 5218   0.538   2.382   4.731
 1659WAT     H1 5219   0.500   2.293   4.703
 1659WAT     H2 5220   0.465   2.439   4.769
 1660WAT      O 5221   1.097   4.255   7.255
 1660WAT     H1 5222   1.041   4.187   7.208
 1660WAT     H2 5223   1.092   4.239   7.354
 1661WAT      O 5224   3.445   0.308   6.166
 1661WAT     H1 5225   3.409   0.215   6.163
 1661WAT     H2 5226   3.429   0.352   6.078
 1662WAT      O 5227   5.039   7.060   8.142
 1662WAT     H1 5228   4.995   7.000   8.208
 1662WAT     H2 5229   5.000   7.152   8.150
 1663WAT      O 5230   7.561   5.504   8.852
 1663WAT     H1 5231   7.480   5.513   8.911
 1663WAT     H2 5232   7.610   5.420   8.874
 1664WAT      O 5233   7.911   3.220   2.400
 1664WAT     H1 5234   7.882   3.305   2.356
 1664WAT     H2 5235   8.008   3.204   2.384
 1665WAT      O 5236   8.761   5.961   6.533
 1665WAT     H1 5237   8.795   5.923   6.619
 1665WAT     H2 5238   8.666   5.935   6.520
 1666WAT      O 5239   9.797   0.598   2.066
 1666WAT     H1 5240   9.887   0.642   2.055
 1666WAT     H2 5241   9.765   0.612   2.160
 1667WAT      O 5242   3.195   2.794   5.908
 1667WAT     H1 5243   3.103   2.808   5.872
 1667WAT     H2 5244   3.251   2.874   5.887
 1668WAT      O 5245   5.378   5.791   0.586
 1668WAT     H1 5246   5.360   5.725   0.514
 1668WAT     H2 5247   5.474   5.784   0.615
 1669WAT      O 5248   0.642   4.072   4.844
 1669WAT     H1 5249   0.678   4.128   4.770
 1669WAT     H2 5250   0.718   4.025   4.891
 1670WAT      O 5251   3.428   8.459   1.600
 1670WAT     H1 5252   3.520   8.463   1.561
 1670WAT     H2 5253   3.380   8.379   1.565
 1671WAT      O 5254   2.255   3.544   6.240
 1671WAT     H1 5255   2.168   3.566   6.195
 1671WAT     H2 5256   2.321   3.616   6.220
 1672WAT      O 5257   8.303   3.919   3.619
 1672WAT     H1 5258   8.325   3.847   3.685
 1672WAT     H2 5259   8.387   3.970   3.597
 1673WAT      O 5260   9.005   5.063   6.589
 1673WAT     H1 5261   9.013   5.129   6.514
 1673WAT     H2 5262   9.085   5.003   6.588
 1674WAT      O 5263   2.270   9.629   2.714
 1674WAT     H1 5264   2.240   9.699   2.779
 1674WAT     H2 5265   2.358   9.655   2.675
 1675WAT      O 5266   5.102   8.179   1.558
 1675WAT     H1 5267   5.183   8.133   1.522
 1675WAT     H2 5268   5.120   8.209   1.652
 1676WAT      O 5269   1.877   4.731   2.904
 1676WAT     H1 5270   1.972   4.751   2.878
 1676WAT     H2 5271   1.850   4.792   2.978
 1677WAT      O 5272   6.575   2.633   5.109
 1677WAT     H1 5273   6.649   2.647   5.043
 1677WAT     H2 5274   6.492   2.679   5.076
 1678WAT      O 5275   7.194   9.189   5.618
 1678WAT     H1 5276   7.240   9.266   5.662
 1678WAT     H2 5277   7.240   9.168   5.532
 1679WAT      O 5278   3.599   6.600   5.320
 1679WAT     H1 5279   3.601   6.661   5.240
 1679WAT     H2 5280   3.508   6.558   5.327
 1680WAT      O 5281   6.631   4.215   8.395
 1680WAT     H1 5282   6.688   4.146   8.350
 1680WAT     H2 5283   6.685   4.299   8.408
 1681WAT      O 5284   2.735   4.410   5.905
 1681WAT     H1 5285   2.714   4.386   5.999
 1681WAT     H2 5286   2.759   4.327   5.854
 1682WAT      O 5287   9.747   8.702   1.566
 1682WAT     H1 5288   9.775   8.694   1.662
 1682WAT     H2 5289   9.765   8.616   1.519
 1683WAT      O 5290   3.378   4.907   4.718
 1683WAT     H1 5291   3.339   4.907   4.811
 1683WAT     H2 5292   3.469   4.866   4.720
 1684WAT      O 5293   9.122   3.743   2.742
 1684WAT     H1 5294   9.131   3.808   2.817
 1684WAT     H2 5295   9.087   3.656   2.777
 1685WAT      O 5296   5.691   8.316   3.697
 1685WAT     H1 5297   5.594   8.309   3.674
 1685WAT     H2 5298   5.742   8.345   3.617
 1686WAT      O 5299   0.007   1.952   1.247
 1686WAT     H1 5300   0.001   1.937   1.148
 1686WAT     H2 5301  -0.071   2.006   1.278
 1687WAT      O 5302   0.024   4.451   9.348
 1687WAT     H1 5303   0.042   4.484   9.440
 1687WAT     H2 5304   0.006   4.529   9.288
 1688WAT      O 5305   4.960   2.019   2.859
 1688WAT     H1 5306   5.015   2.076   2.798
 1688WAT     H2 5307   4.967   1.923   2.830
 1689WAT      O 5308   3.672   1.821   1.022
 1689WAT     H1 5309   3.678   1.921   1.021
 1689WAT     H2 5310   3.745   1.782   0.966
 1690WAT      O 5311   4.138   1.129   5.740
 1690WAT     H1 5312   4.138   1.054   5.674
 1690WAT     H2 5313   4.202   1.200   5.711
 1691WAT      O 5314   6.407   2.587   2.344
 1691WAT     H1 5315   6.386   2.681   2.370
 1691WAT     H2 5316   6.478   2.550   2.404
 1692WAT      O 5317   6.173   7.422   2.496
 1692WAT     H1 5318   6.188   7.492   2.567
 1692WAT     H2 5319   6.130   7.465   2.416
 1693WAT      O 5320   9.113   4.765   1.029
 1693WAT     H1 5321   9.208   4.733   1.033
 1693WAT     H2 5322   9.099   4.835   1.099
 1694WAT      O 5323   5.060   3.411   4.295
 1694WAT     H1 5324   5.066   3.312   4.276
 1694WAT     H2 5325   5.103   3.431   4.383
 1695WAT      O 5326   1.362   2.110   8.650
 1695WAT     H1 5327   1.289   2.090   8.585
 1695WAT     H2 5328   1.328   2.097   8.743
 1696WAT      O 5329   3.839   1.323   6.513
 1696WAT     H1 5330   3.869   1.409   6.472
 1696WAT     H2 5331   3.740   1.313   6.501
 1697WAT      O 5332   3.002   9.538   4.786
 1697WAT     H1 5333   2.927   9.601   4.808
 1697WAT     H2 5334   3.082   9.560   4.842
 1698WAT      O 5335   8.880   8.343   3.760
 1698WAT     H1 5336   8.891   8.402   3.839
 1698WAT     H2 5337   8.903   8.393   3.677
 1699WAT      O 5338   3.703   1.030   1.931
 1699WAT     H1 5339   3.767   1.053   2.004
 1699WAT     H2 5340   3.754   1.007   1.848
 1700WAT      O 5341   4.786   2.716   6.371
 1700WAT     H1 5342   4.811   2.633   6.321
 1700WAT     H2 5343   4.710   2.695   6.433
 1701WAT      O 5344   5.487   5.174   1.896
 1701WAT     H1 5345   5.457   5.245   1.959
 1701WAT     H2 5346   5.416   5.104   1.889
 1702WAT      O 5347   8.211   8.391   4.823
 1702WAT     H1 5348   8.228   8.335   4.904
 1702WAT     H2 5349   8.118   8.376   4.790
 1703WAT      O 5350   3.392   6.183   4.624
 1703WAT     H1 5351   3.315   6.122   4.610
 1703WAT     H2 5352   3.469   6.131   4.662
 1704WAT      O 5353   7.921   1.694   2.351
 1704WAT     H1 5354   7.959   1.612   2.394
 1704WAT     H2 5355   7.949   1.775   2.402
 1705WAT      O 5356   0.712   1.855   5.173
 1705WAT     H1 5357   0.694   1.757   5.168
 1705WAT     H2 5358   0.786   1.871   5.239
 1706WAT      O 5359   4.305   4.516   1.242
 1706WAT     H1 5360   4.296   4.448   1.315
 1706WAT     H2 5361   4.337   4.602   1.280
 1707WAT      O 5362   8.578   2.857   0.216
 1707WAT     H1 5363   8.491   2.815   0.243
 1707WAT     H2 5364   8.641   2.856   0.294
 1708WAT      O 5365   1.262   9.234   4.668
 1708WAT     H1 5366   1.343   9.266   4.716
 1708WAT     H2 5367   1.269   9.258   4.571
 1709WAT      O 5368   2.107   5.549   7.683
 1709WAT     H1 5369   2.075   5.644   7.683
 1709WAT     H2 5370   2.180   5.539   7.751
 1710WAT      O 5371   7.792   3.950   9.190
 1710WAT     H1 5372   7.845   3.867   9.211
 1710WAT     H2 5373   7.697   3.925   9.171
 1711WAT      O 5374   0.970   0.393   0.140
 1711WAT     H1 5375   0.908   0.453   0.090
 1711WAT     H2 5376   0.937   0.299   0.134
 1712WAT      O 5377   1.394   8.499   0.260
 1712WAT     H1 5378   1.303   8.536   0.241
 1712WAT     H2 5379   1.402   8.477   0.357
 1713WAT      O 5380   1.531   8.106   7.103
 1713WAT     H1 5381   1.565   8.153   7.022
 1713WAT     H2 5382   1.439   8.140   7.125
 1714WAT      O 5383   2.471   0.158   6.313
 1714WAT     H1 5384   2.438   0.167   6.407
 1714WAT     H2 5385   2.569   0.138   6.314
 1715WAT      O 5386   5.506   9.470   7.537
 1715WAT     H1 5387   5.593   9.485   7.490
 1715WAT     H2 5388   5.445   9.417   7.478
 1716WAT      O 5389   6.333   0.845   6.145
 1716WAT     H1 5390   6.263   0.846   6.073
 1716WAT     H2 5391   6.345   0.752   6.180
 1717WAT      O 5392   0.405   7.342   6.677
 1717WAT     H1 5393   0.461   7.335   6.595
 1717WAT     H2 5394   0.462   7.370   6.754
 1718WAT      O 5395   3.463   6.725   8.668
 1718WAT     H1 5396   3.532   6.796   8.654
 1718WAT     H2 5397   3.436   6.687   8.580
 1719WAT      O 5398   7.239   6.646   5.089
 1719WAT     H1 5399   7.229   6.678   4.995
 1719WAT     H2 5400   7.153   6.605   5.120
 1720WAT      O 5401   5.994   2.872   0.073
 1720WAT     H1 5402   6.051   2.928   0.134
 1720WAT     H2 5403   5.901   2.908   0.071
 1721WAT      O 5404   3.209   6.358   2.763
 1721WAT     H1 5405   3.163   6.446   2.753
 1721WAT     H2 5406   3.146   6.292   2.805
 1722WAT      O 5407   9.180   3.489   2.352
 1722WAT     H1 5408   9.276   3.516   2.358
 1722WAT     H2 5409   9.124   3.552   2.405
 1723WAT      O 5410   5.446   5.330   4.162
 1723WAT     H1 5411   5.352   5.299   4.172
 1723WAT     H2 5412   5.454   5.390   4.082
 1724WAT      O 5413   6.717   7.754   5.127
 1724WAT     H1 5414   6.811   7.725   5.146
 1724WAT     H2 5415   6.667   7.678   5.083
 1725WAT      O 5416   9.472   4.906   9.611
 1725WAT     H1 5417   9.526   4.953   9.542
 1725WAT     H2 5418   9.379   4.890   9.577
 1726WAT      O 5419   3.500   6.941   2.985
 1726WAT     H1 5420   3.442   6.956   3.065
 1726WAT     H2 5421   3.550   6.855   2.996
 1727WAT      O 5422   3.322   4.928   7.956
 1727WAT     H1 5423   3.395   4.957   7.895
 1727WAT     H2 5424   3.332   4.975   8.044
 1728WAT      O 5425   9.596   6.306   8.278
 1728WAT     H1 5426   9.627   6.337   8.188
 1728WAT     H2 5427   9.534   6.229   8.267
 1729WAT      O 5428   7.626   5.259   5.987
 1729WAT     H1 5429   7.679   5.326   5.935
 1729WAT     H2 5430   7.534   5.251   5.948
 1730WAT      O 5431   5.743   3.869   7.918
 1730WAT     H1 5432   5.663   3.872   7.978
 1730WAT     H2 5433   5.717   3.903   7.828
 1731WAT      O 5434   6.805   2.905   6.738
 1731WAT     H1 5435   6.755   2.823   6.710
 1731WAT     H2 5436   6.852   2.887   6.824
 1732WAT      O 5437   5.228   2.016   7.763
 1732WAT     H1 5438   5.133   2.047   7.763
 1732WAT     H2 5439   5.271   2.038   7.851
 1733WAT      O 5440   1.250   5.211   2.603
 1733WAT     H1 5441   1.345   5.214   2.573
 1733WAT     H2 5442   1.207   5.300   2.586
 1734WAT      O 5443   5.036   9.066   7.463
 1734WAT     H1 5444   4.946   9.072   7.507
 1734WAT     H2 5445   5.040   8.985   7.406
 1735WAT      O 5446   0.271   6.995   2.830
 1735WAT     H1 5447   0.259   6.907   2.876
 1735WAT     H2 5448   0.358   6.994   2.780
 1736WAT      O 5449   3.926   3.999   1.820
 1736WAT     H1 5450   3.879   4.067   1.763
 1736WAT     H2 5451   3.912   4.021   1.916
 1737WAT      O 5452   9.327   4.737   7.227
 1737WAT     H1 5453   9.229   4.743   7.208
 1737WAT     H2 5454   9.368   4.668   7.166
 1738WAT      O 5455   7.830   8.059   2.324
 1738WAT     H1 5456   7.794   8.146   2.359
 1738WAT     H2 5457   7.757   8.011   2.274
 1739WAT      O 5458   0.775   3.488   5.339
 1739WAT     H1 5459   0.711   3.488   5.416
 1739WAT     H2 5460   0.803   3.394   5.319
 1740WAT      O 5461   4.748   1.000   8.949
 1740WAT     H1 5462   4.830   0.956   8.986
 1740WAT     H2 5463   4.670   0.938   8.957
 1741WAT      O 5464   7.978   9.479   0.656
 1741WAT     H1 5465   7.893   9.434   0.628
 1741WAT     H2 5466   8.035   9.415   0.707
 1742WAT      O 5467   1.546   8.896   0.126
 1742WAT     H1 5468   1.516   8.956   0.052
 1742WAT     H2 5469   1.471   8.836   0.153
 1743WAT      O 5470   9.488   0.856   7.027
 1743WAT     H1 5471   9.573   0.871   6.976
 1743WAT     H2 5472   9.436   0.941   7.029
 1744WAT      O 5473   4.133   9.428   6.534
 1744WAT     H1 5474   4.219   9.459   6.492
 1744WAT     H2 5475   4.077   9.508   6.557
 1745WAT      O 5476   4.924   2.345   5.253
 1745WAT     H1 5477   4.885   2.398   5.328
 1745WAT     H2 5478   4.983   2.403   5.198
 1746WAT      O 5479   8.919   2.478   6.137
 1746WAT     H1 5480   8.907   2.577   6.131
 1746WAT     H2 5481   8.966   2.455   6.222
 1747WAT      O 5482   1.034   7.188   7.610
 1747WAT     H1 5483   0.936   7.201   7.621
 1747WAT     H2 5484   1.069   7.127   7.681
 1748WAT      O 5485   9.477   3.758   0.302
 1748WAT     H1 5486   9.523   3.670   0.285
 1748WAT     H2 5487   9.382   3.741   0.326
 1749WAT      O 5488   7.112   5.294   2.502
 1749WAT     H1 5489   7.172   5.215   2.495
 1749WAT     H2 5490   7.028   5.278   2.449
 1750WAT      O 5491   2.535   5.434   2.698
 1750WAT     H1 5492   2.448   5.410   2.741
 1750WAT     H2 5493   2.526   5.431   2.599
 1751WAT      O 5494   5.993   4.385   4.182
 1751WAT     H1 5495   6.026   4.343   4.097
 1751WAT     H2 5496   5.918   4.448   4.161
 1752WAT      O 5497   1.684   4.776   1.838
 1752WAT     H1 5498   1.607   4.820   1.885
 1752WAT     H2 5499   1.769   4.806   1.880
 1753WAT      O 5500   4.945   9.607   7.956
 1753WAT     H1 5501   5.028   9.583   8.006
 1753WAT     H2 5502   4.963   9.687   7.898
 1754WAT      O 5503   6.527   7.206   6.848
 1754WAT     H1 5504   6.470   7.133   6.810
 1754WAT     H2 5505   6.586   7.169   6.920
 1755WAT      O 5506   8.052   2.489   8.461
 1755WAT     H1 5507   7.964   2.477   8.507
 1755WAT     H2 5508   8.110   2.551   8.514
 1756WAT      O 5509   0.403   9.322   1.378
 1756WAT     H1 5510   0.321   9.368   1.412
 1756WAT     H2 5511   0.436   9.256   1.446
 1757WAT      O 5512   3.109   4.673   4.794
 1757WAT     H1 5513   3.100   4.772   4.787
 1757WAT     H2 5514   3.201   4.645   4.768
 1758WAT      O 5515   5.439   1.832   0.770
 1758WAT     H1 5516   5.389   1.785   0.697
 1758WAT     H2 5517   5.374   1.867   0.838
 1759WAT      O 5518   1.317   6.404   9.860
 1759WAT     H1 5519   1.289   6.311   9.884
 1759WAT     H2 5520   1.242   6.467   9.878
 1760WAT      O 5521   5.600   9.090   9.818
 1760WAT     H1 5522   5.626   9.040   9.735
 1760WAT     H2 5523   5.668   9.161   9.836
 1761WAT      O 5524   5.630   3.016   5.094
 1761WAT     H1 5525   5.654   2.919   5.100
 1761WAT     H2 5526   5.685   3.068   5.160
 1762WAT      O 5527   2.312   4.268   0.014
 1762WAT     H1 5528   2.344   4.301   0.104
 1762WAT     H2 5529   2.313   4.168   0.013
 1763WAT      O 5530   2.654   4.689   2.171
 1763WAT     H1 5531   2.704   4.619   2.119
 1763WAT     H2 5532   2.659   4.776   2.122
 1764WAT      O 5533   4.653   6.907   2.132
 1764WAT     H1 5534   4.694   6.997   2.144
 1764WAT     H2 5535   4.724   6.837   2.133
 1765WAT      O 5536   3.298   7.345   8.882
 1765WAT     H1 5537   3.266   7.253   8.903
 1765WAT     H2 5538   3.275   7.407   8.958
 1766WAT      O 5539   5.928   7.176   8.689
 1766WAT     H1 5540   5.898   7.230   8.610
 1766WAT     H2 5541   6.010   7.124   8.664
 1767WAT      O 5542   8.400   8.861   6.319
 1767WAT     H1 5543   8.307   8.872   6.283
 1767WAT     H2 5544   8.411   8.770   6.358
 1768WAT      O 5545   6.736   0.548   5.228
 1768WAT     H1 5546   6.820   0.583   5.187
 1768WAT     H2 5547   6.712   0.604   5.307
 1769WAT      O 5548   6.960   0.537   4.180
 1769WAT     H1 5549   7.026   0.611   4.192
 1769WAT     H2 5550   6.915   0.547   4.091
 1770WAT      O 5551   2.591   7.190   9.861
 1770WAT     H1 5552   2.640   7.129   9.800
 1770WAT     H2 5553   2.549   7.138   9.935
 1771WAT      O 5554   7.099   1.367   5.232
 1771WAT     H1 5555   7.099   1.405   5.324
 1771WAT     H2 5556   7.137   1.434   5.168
 1772WAT      O 5557   3.558   8.084   7.774
 1772WAT     H1 5558   3.656   8.072   7.790
 1772WAT     H2 5559   3.507   8.037   7.846
 1773WAT      O 5560   0.858   1.418   4.929
 1773WAT     H1 5561   0.818   1.483   4.994
 1773WAT     H2 5562   0.867   1.462   4.839
 1774WAT      O 5563   4.773   5.450   3.544
 1774WAT     H1 5564   4.853   5.390   3.552
 1774WAT     H2 5565   4.742   5.452   3.448
 1775WAT      O 5566   4.480   1.018   0.170
 1775WAT     H1 5567   4.496   1.006   0.072
 1775WAT     H2 5568   4.519   1.105   0.199
 1776WAT      O 5569   9.375   9.068   0.056
 1776WAT     H1 5570   9.292   9.047   0.108
 1776WAT     H2 5571   9.388   9.167   0.054
 1777WAT      O 5572   7.424   4.352   8.118
 1777WAT     H1 5573   7.442   4.295   8.038
 1777WAT     H2 5574   7.508   4.359   8.173
 1778WAT      O 5575   2.390   6.359   3.979
 1778WAT     H1 5576   2.420   6.307   3.898
 1778WAT     H2 5577   2.462   6.357   4.048
 1779WAT      O 5578   1.826   3.169   4.930
 1779WAT     H1 5579   1.823   3.165   4.830
 1779WAT     H2 5580   1.897   3.234   4.958
 1780WAT      O 5581   2.359   8.946   0.333
 1780WAT     H1 5582   2.448   8.982   0.304
 1780WAT     H2 5583   2.287   9.008   0.303
 1781WAT      O 5584   3.182   3.812   7.645
 1781WAT     H1 5585   3.155   3.840   7.737
 1781WAT     H2 5586   3.113   3.751   7.607
 1782WAT      O 5587   5.703   0.314   1.976
 1782WAT     H1 5588   5.652   0.293   2.059
 1782WAT     H2 5589   5.657   0.389   1.927
 1783WAT      O 5590   2.015   3.024   6.123
 1783WAT     H1 5591   2.051   3.108   6.082
 1783WAT     H2 5592   2.083   2.986   6.186
 1784WAT      O 5593   7.111   4.579   4.215
 1784WAT     H1 5594   7.038   4.628   4.262
 1784WAT     H2 5595   7.184   4.643   4.191
 1785WAT      O 5596   7.627   5.649   4.659
 1785WAT     H1 5597   7.599   5.554   4.644
 1785WAT     H2 5598   7.593   5.680   4.748
 1786WAT      O 5599   5.384   0.829   9.221
 1786WAT     H1 5600   5.334   0.902   9.268
 1786WAT     H2 5601   5.391   0.749   9.281
 1787WAT      O 5602   5.855   1.399   6.658
 1787WAT     H1 5603   5.877   1.462   6.732
 1787WAT     H2 5604   5.874   1.443   6.570
 1788WAT      O 5605   9.231   6.628   2.581
 1788WAT     H1 5606   9.249   6.559   2.511
 1788WAT     H2 5607   9.169   6.590   2.649
 1789WAT      O 5608   6.897   2.051   2.165
 1789WAT     H1 5609   6.889   2.043   2.066
 1789WAT     H2 5610   6.929   2.142   2.189
 1790WAT      O 5611   7.160   6.577   8.549
 1790WAT     H1 5612   7.228   6.642   8.583
 1790WAT     H2 5613   7.180   6.554   8.454
 1791WAT      O 5614   3.734   2.324   3.864
 1791WAT     H1 5615   3.811   2.287   3.812
 1791WAT     H2 5616   3.743   2.297   3.960
 1792WAT      O 5617   1.960   2.639   8.149
 1792WAT     H1 5618   1.970   2.541   8.131
 1792WAT     H2 5619   1.866   2.667   8.129
 1793WAT      O 5620   0.108   9.283   7.654
 1793WAT     H1 5621   0.018   9.290   7.612
 1793WAT     H2 5622   0.144   9.190   7.641
 1794WAT      O 5623   1.283   8.387   6.959
 1794WAT     H1 5624   1.280   8.425   7.051
 1794WAT     H2 5625   1.355   8.432   6.907
 1795WAT      O 5626   4.013   3.020   5.075
 1795WAT     H1 5627   3.940   2.955   5.092
 1795WAT     H2 5628   4.044   3.012   4.980
 1796WAT      O 5629   4.841   0.114   4.938
 1796WAT     H1 5630   4.805   0.180   5.004
 1796WAT     H2 5631   4.766   0.069   4.892
 1797WAT      O 5632   7.834   7.451   6.094
 1797WAT     H1 5633   7.755   7.390   6.083
 1797WAT     H2 5634   7.910   7.399   6.132
 1798WAT      O 5635   7.633   9.674   4.939
 1798WAT     H1 5636   7.587   9.625   5.013
 1798WAT     H2 5637   7.635   9.617   4.857
 1799WAT      O 5638   2.808   7.765   7.216
 1799WAT     H1 5639   2.851   7.675   7.226
 1799WAT     H2 5640   2.709   7.754   7.214
 1800WAT      O 5641   8.296   6.509   0.167
 1800WAT     H1 5642   8.329   6.429   0.116
 1800WAT     H2 5643   8.259   6.576   0.102
 1801WAT      O 5644   9.408   0.700   8.619
 1801WAT     H1 5645   9.415   0.781   8.677
 1801WAT     H2 5646   9.318   0.700   8.575
 1802WAT      O 5647   7.604   5.912   7.795
 1802WAT     H1 5648   7.531   5.969   7.834
 1802WAT     H2 5649   7.593   5.909   7.695
 1803WAT      O 5650   2.800   2.906   5.008
 1803WAT     H1 5651   2.827   2.832   5.069
 1803WAT     H2 5652   2.861   2.908   4.929
 1804WAT      O 5653   2.055   6.982   6.513
 1804WAT     H1 5654   2.046   6.978   6.613
 1804WAT     H2 5655   2.075   7.075   6.484
 1805WAT      O 5656   4.511   6.349   7.289
 1805WAT     H1 5657   4.427   6.352   7.235
 1805WAT     H2 5658   4.551   6.440   7.293
 1806WAT      O 5659   2.682   7.613   8.902
 1806WAT     H1 5660   2.590   7.595   8.937
 1806WAT     H2 5661   2.679   7.618   8.802
 1807WAT      O 5662   3.820   3.109   5.776
 1807WAT     H1 5663   3.884   3.036   5.800
 1807WAT     H2 5664   3.849   3.195   5.819
 1808WAT      O 5665   8.964   2.990   6.564
 1808WAT     H1 5666   8.873   2.967   6.529
 1808WAT     H2 5667   9.031   2.924   6.531
 1809WAT      O 5668   0.348   0.171   0.115
 1809WAT     H1 5669   0.274   0.105   0.103
 1809WAT     H2 5670   0.319   0.260   0.080
 1810WAT      O 5671   8.399   5.251   8.822
 1810WAT     H1 5672   8.342   5.275   8.901
 1810WAT     H2 5673   8.351   5.276   8.738
 1811WAT      O 5674   0.871   5.710   8.348
 1811WAT     H1 5675   0.783   5.681   8.385
 1811WAT     H2 5676   0.930   5.742   8.422
 1812WAT      O 5677   5.833   6.541   5.405
 1812WAT     H1 5678   5.852   6.583   5.316
 1812WAT     H2 5679   5.815   6.444   5.392
 1813WAT      O 5680   6.185   8.518   6.511
 1813WAT     H1 5681   6.166   8.480   6.420
 1813WAT     H2 5682   6.110   8.494   6.573
 1814WAT      O 5683   7.810   3.550   9.669
 1814WAT     H1 5684   7.719   3.591   9.664
 1814WAT     H2 5685   7.839   3.523   9.577
 1815WAT      O 5686   0.379   4.666   9.422
 1815WAT     H1 5687   0.433   4.732   9.475
 1815WAT     H2 5688   0.282   4.689   9.429
 1816WAT      O 5689   1.286   6.899   4.780
 1816WAT     H1 5690   1.205   6.848   4.808
 1816WAT     H2 5691   1.305   6.970   4.848
 1817WAT      O 5692   3.743   0.059   6.152
 1817WAT     H1 5693   3.730   0.158   6.158
 1817WAT     H2 5694   3.779   0.035   6.062
 1818WAT      O 5695   8.243   3.210   3.110
 1818WAT     H1 5696   8.318   3.168   3.058
 1818WAT     H2 5697   8.156   3.172   3.079
 1819WAT      O 5698   5.072   6.805   1.230
 1819WAT     H1 5699   5.097   6.727   1.173
 1819WAT     H2 5700   5.102   6.890   1.186
 1820WAT      O 5701   6.249   5.046   5.678
 1820WAT     H1 5702   6.182   4.992   5.728
 1820WAT     H2 5703   6.256   5.014   5.584
 1821WAT      O 5704   8.902   4.604   3.629
 1821WAT     H1 5705   9.002   4.601   3.637
 1821WAT     H2 5706   8.865   4.666   3.698
 1822WAT      O 5707   6.804   8.481   0.465
 1822WAT     H1 5708   6.878   8.430   0.420
 1822WAT     H2 5709   6.733   8.416   0.494
 1823WAT      O 5710   3.290   6.509   1.453
 1823WAT     H1 5711   3.358   6.534   1.383
 1823WAT     H2 5712   3.291   6.410   1.466
 1824WAT      O 5713   8.814   6.236   4.372
 1824WAT     H1 5714   8.800   6.140   4.346
 1824WAT     H2 5715   8.776   6.252   4.463
 1825WAT      O 5716   5.615   7.163   6.708
 1825WAT     H1 5717   5.654   7.091   6.652
 1825WAT     H2 5718   5.559   7.123   6.781
 1826WAT      O 5719   4.760   2.075   5.587
 1826WAT     H1 5720   4.686   2.087   5.520
 1826WAT     H2 5721   4.845   2.114   5.550
 1827WAT      O 5722   3.536   0.980   1.104
 1827WAT     H1 5723   3.538   0.909   1.173
 1827WAT     H2 5724   3.575   1.064   1.141
 1828WAT      O 5725   7.977   8.947   8.077
 1828WAT     H1 5726   7.925   8.905   8.151
 1828WAT     H2 5727   7.948   9.042   8.065
 1829WAT      O 5728   3.486   8.054   5.075
 1829WAT     H1 5729   3.409   8.093   5.024
 1829WAT     H2 5730   3.472   8.067   5.173
 1830WAT      O 5731   8.347   9.264   9.623
 1830WAT     H1 5732   8.417   9.325   9.587
 1830WAT     H2 5733   8.384   9.172   9.633
 1831WAT      O 5734   7.044   2.575   2.048
 1831WAT     H1 5735   7.038   2.588   1.949
 1831WAT     H2 5736   6.965   2.618   2.091
 1832WAT      O 5737   2.735   8.874   8.169
 1832WAT     H1 5738   2.652   8.925   8.147
 1832WAT     H2 5739   2.773   8.908   8.255
 1833WAT      O 5740   0.564   1.854   6.508
 1833WAT     H1 5741   0.537   1.779   6.448
 1833WAT     H2 5742   0.563   1.824   6.603
 1834WAT      O 5743   0.469   8.084   8.018
 1834WAT     H1 5744   0.500   8.142   8.093
 1834WAT     H2 5745   0.373   8.104   7.997
 1835WAT      O 5746   9.689   0.422   6.874
 1835WAT     H1 5747   9.721   0.486   6.943
 1835WAT     H2 5748   9.660   0.337   6.918
 1836WAT      O 5749   8.890   1.534   8.705
 1836WAT     H1 5750   8.827   1.461   8.727
 1836WAT     H2 5751   8.899   1.542   8.605
 1837WAT      O 5752   4.970   6.407   9.274
 1837WAT     H1 5753   5.062   6.373   9.293
 1837WAT     H2 5754   4.934   6.362   9.192
 1838WAT      O 5755   4.608   9.520   9.148
 1838WAT     H1 5756   4.687   9.467   9.179
 1838WAT     H2 5757   4.591   9.596   9.211
 1839WAT      O 5758   8.898   9.262   6.311
 1839WAT     H1 5759   8.861   9.170   6.311
 1839WAT     H2 5760   8.829   9.326   6.345
 1840WAT      O 5761   1.542   8.811   3.122
 1840WAT     H1 5762   1.550   8.739   3.053
 1840WAT     H2 5763   1.504   8.773   3.206
 1841WAT      O 5764   1.716   5.789   9.115
 1841WAT     H1 5765   1.720   5.882   9.153
 1841WAT     H2 5766   1.621   5.767   9.092
 1842WAT      O 5767   2.907   7.858   2.091
 1842WAT     H1 5768   3.001   7.844   2.120
 1842WAT     H2 5769   2.854   7.774   2.106
 1843WAT      O 5770   2.522   8.860   4.092
 1843WAT     H1 5771   2.424   8.874   4.080
 1843WAT     H2 5772   2.565   8.848   4.002
 1844WAT      O 5773   9.102   0.431   2.920
 1844WAT     H1 5774   9.103   0.528   2.947
 1844WAT     H2 5775   9.043   0.380   2.983
 1845WAT      O 5776   2.115   2.488   7.864
 1845WAT     H1 5777   2.053   2.444   7.929
 1845WAT     H2 5778   2.063   2.520   7.784
 1846WAT      O 5779   1.405   9.507   3.367
 1846WAT     H1 5780   1.421   9.605   3.373
 1846WAT     H2 5781   1.420   9.465   3.456
 1847WAT      O 5782   8.648   6.626   8.013
 1847WAT     H1 5783   8.554   6.634   7.980
 1847WAT     H2 5784   8.673   6.709   8.065
 1848WAT      O 5785   1.135   7.188   0.705
 1848WAT     H1 5786   1.108   7.248   0.780
 1848WAT     H2 5787   1.188   7.240   0.638
 1849WAT      O 5788   4.182   6.451   8.682
 1849WAT     H1 5789   4.279   6.439   8.700
 1849WAT     H2 5790   4.129   6.408   8.755
 1850WAT      O 5791   6.829   9.343   4.474
 1850WAT     H1 5792   6.859   9.423   4.527
 1850WAT     H2 5793   6.748   9.366   4.421
 1851WAT      O 5794   2.242   8.207   5.230
 1851WAT     H1 5795   2.270   8.212   5.134
 1851WAT     H2 5796   2.172   8.276   5.248
 1852WAT      O 5797   9.015   7.015   0.047
 1852WAT     H1 5798   9.094   7.009   0.108
 1852WAT     H2 5799   8.951   6.940   0.067
 1853WAT      O 5800   8.763   7.491   0.886
 1853WAT     H1 5801   8.819   7.434   0.946
 1853WAT     H2 5802   8.816   7.571   0.858
 1854WAT      O 5803   0.381   5.178   6.804
 1854WAT     H1 5804   0.294   5.182   6.852
 1854WAT     H2 5805   0.372   5.119   6.723
 1855WAT      O 5806   4.502   2.756   8.773
 1855WAT     H1 5807   4.424   2.759   8.835
 1855WAT     H2 5808   4.471   2.730   8.681
 1856WAT      O 5809   8.653   1.884   9.592
 1856WAT     H1 5810   8.652   1.814   9.520
 1856WAT     H2 5811   8.561   1.898   9.627
 1857WAT      O 5812   0.804   9.830   2.133
 1857WAT     H1 5813   0.837   9.916   2.094
 1857WAT     H2 5814   0.860   9.755   2.099
 1858WAT      O 5815   3.447   3.642   1.514
 1858WAT     H1 5816   3.443   3.568   1.448
 1858WAT     H2 5817   3.394   3.720   1.481
 1859WAT      O 5818   9.698   2.138   2.996
 1859WAT     H1 5819   9.700   2.090   2.909
 1859WAT     H2 5820   9.714   2.235   2.982
 1860WAT      O 5821   5.495   7.599   4.636
 1860WAT     H1 5822   5.486   7.516   4.582
 1860WAT     H2 5823   5.524   7.575   4.729
 1861WAT      O 5824   0.798   8.831   5.445
 1861WAT     H1 5825   0.772   8.738   5.470
 1861WAT     H2 5826   0.887   8.831   5.401
 1862WAT      O 5827   1.311   1.014   3.747
 1862WAT     H1 5828   1.302   1.048   3.840
 1862WAT     H2 5829   1.263   1.075   3.684
 1863WAT      O 5830   2.056   1.491   8.813
 1863WAT     H1 5831   2.009   1.579   8.803
 1863WAT     H2 5832   2.110   1.473   8.730
 1864WAT      O 5833   6.075   4.684   8.731
 1864WAT     H1 5834   6.043   4.730   8.814
 1864WAT     H2 5835   6.015   4.708   8.655
 1865WAT      O 5836   9.831   4.953   0.438
 1865WAT     H1 5837   9.836   5.033   0.498
 1865WAT     H2 5838   9.877   4.972   0.352
 1866WAT      O 5839   2.037   2.302   8.521
 1866WAT     H1 5840   2.069   2.360   8.447
 1866WAT     H2 5841   2.051   2.206   8.497
 1867WAT      O 5842   1.047   5.443   5.043
 1867WAT     H1 5843   1.104   5.491   4.975
 1867WAT     H2 5844   0.980   5.386   4.995
 1868WAT      O 5845   8.698   0.716   4.331
 1868WAT     H1 5846   8.763   0.789   4.311
 1868WAT     H2 5847   8.610   0.757   4.358
 1869WAT      O 5848   4.855   5.706   2.360
 1869WAT     H1 5849   4.839   5.754   2.274
 1869WAT     H2 5850   4.944   5.661   2.357
 1870WAT      O 5851   5.128   4.728   9.757
 1870WAT     H1 5852   5.092   4.705   9.666
 1870WAT     H2 5853   5.217   4.771   9.748
 1871WAT      O 5854   0.801   1.611   6.251
 1871WAT     H1 5855   0.753   1.541   6.303
 1871WAT     H2 5856   0.896   1.583   6.237
 1872WAT      O 5857   2.315   5.630   3.955
 1872WAT     H1 5858   2.398   5.603   3.906
 1872WAT     H2 5859   2.251   5.553   3.959
 1873WAT      O 5860   1.648   6.742   2.696
 1873WAT     H1 5861   1.706   6.668   2.728
 1873WAT     H2 5862   1.703   6.811   2.650
 1874WAT      O 5863   2.545   1.872   0.624
 1874WAT     H1 5864   2.552   1.941   0.551
 1874WAT     H2 5865   2.450   1.863   0.652
 1875WAT      O 5866   4.786   9.824   9.665
 1875WAT     H1 5867   4.746   9.742   9.624
 1875WAT     H2 5868   4.719   9.868   9.724
 1876WAT      O 5869   2.143   9.796   7.446
 1876WAT     H1 5870   2.234   9.757   7.461
 1876WAT     H2 5871   2.151   9.884   7.401
 1877WAT      O 5872   3.822   6.431   2.789
 1877WAT     H1 5873   3.733   6.475   2.798
 1877WAT     H2 5874   3.828   6.356   2.855
 1878WAT      O 5875   8.217   3.080   1.412
 1878WAT     H1 5876   8.310   3.057   1.384
 1878WAT     H2 5877   8.216   3.101   1.510
 1879WAT      O 5878   9.197   7.161   6.612
 1879WAT     H1 5879   9.245   7.099   6.551
 1879WAT     H2 5880   9.241   7.160   6.702
 1880WAT      O 5881   3.291   6.008   2.866
 1880WAT     H1 5882   3.368   6.039   2.922
 1880WAT     H2 5883   3.310   6.028   2.769
 1881WAT      O 5884   8.845   8.540   2.047
 1881WAT     H1 5885   8.841   8.590   1.960
 1881WAT     H2 5886   8.761   8.486   2.058
 1882WAT      O 5887   4.880   1.528   5.109
 1882WAT     H1 5888   4.944   1.456   5.080
 1882WAT     H2 5889   4.840   1.502   5.197
 1883WAT      O 5890   4.436   6.166   5.538
 1883WAT     H1 5891   4.399   6.134   5.451
 1883WAT     H2 5892   4.507   6.104   5.570
 1884WAT      O 5893   5.132   0.335   7.314
 1884WAT     H1 5894   5.081   0.411   7.356
 1884WAT     H2 5895   5.092   0.249   7.344
 1885WAT      O 5896   9.312   8.335   0.206
 1885WAT     H1 5897   9.293   8.302   0.114
 1885WAT     H2 5898   9.362   8.422   0.201
 1886WAT      O 5899   5.568   3.496   7.051
 1886WAT     H1 5900   5.570   3.438   7.132
 1886WAT     H2 5901   5.661   3.508   7.017
 1887WAT      O 5902   7.129   9.060   2.449
 1887WAT     H1 5903   7.090   9.000   2.379
 1887WAT     H2 5904   7.224   9.035   2.465
 1888WAT      O 5905   1.284   6.810   6.860
 1888WAT     H1 5906   1.248   6.826   6.768
 1888WAT     H2 5907   1.248   6.880   6.922
 1889WAT      O 5908   8.136   0.367   0.951
 1889WAT     H1 5909   8.075   0.337   1.025
 1889WAT     H2 5910   8.172   0.287   0.904
 1890WAT      O 5911   4.552   2.393   1.491
 1890WAT     H1 5912   4.619   2.339   1.541
 1890WAT     H2 5913   4.565   2.379   1.392
 1891WAT      O 5914   1.464   7.173   4.107
 1891WAT     H1 5915   1.432   7.263   4.078
 1891WAT     H2 5916   1.386   7.111   4.116
 1892WAT      O 5917   1.210   6.583   6.699
 1892WAT     H1 5918   1.160   6.499   6.721
 1892WAT     H2 5919   1.197   6.650   6.773
 1893WAT      O 5920   8.150   6.000   9.395
 1893WAT     H1 5921   8.230   6.012   9.454
 1893WAT     H2 5922   8.135   6.084   9.342
 1894WAT      O 5923   3.796   2.564   0.363
 1894WAT     H1 5924   3.779   2.493   0.295
 1894WAT     H2 5925   3.823   2.649   0.317
 1895WAT      O 5926   5.900   7.388   0.911
 1895WAT     H1 5927   5.871   7.302   0.869
 1895WAT     H2 5928   5.989   7.375   0.956
 1896WAT      O 5929   4.337   6.270   5.110
 1896WAT     H1 5930   4.342   6.355   5.162
 1896WAT     H2 5931   4.418   6.262   5.051
 1897WAT      O 5932   1.410   8.013   9.007
 1897WAT     H1 5933   1.485   7.949   9.023
 1897WAT     H2 5934   1.323   7.963   9.001
 1898WAT      O 5935   7.850   2.868   3.601
 1898WAT     H1 5936   7.880   2.830   3.514
 1898WAT     H2 5937   7.790   2.803   3.648
 1899WAT      O 5938   9.235   7.650   3.456
 1899WAT     H1 5939   9.164   7.676   3.521
 1899WAT     H2 5940   9.193   7.603   3.378
 1900WAT      O 5941   1.244   8.148   8.421
 1900WAT     H1 5942   1.266   8.089   8.343
 1900WAT     H2 5943   1.268   8.101   8.506
 1901WAT      O 5944   8.256   9.580   5.145
 1901WAT     H1 5945   8.187   9.510   5.127
 1901WAT     H2 5946   8.321   9.545   5.213
 1902WAT      O 5947   7.502   1.719   3.128
 1902WAT     H1 5948   7.424   1.781   3.136
 1902WAT     H2 5949   7.587   1.772   3.133
 1903WAT      O 5950   0.759   7.249   3.515
 1903WAT     H1 5951   0.811   7.189   3.576
 1903WAT     H2 5952   0.823   7.309   3.467
 1904WAT      O 5953   8.266   0.129   5.575
 1904WAT     H1 5954   8.321   0.172   5.503
 1904WAT     H2 5955   8.222   0.200   5.630
 1905WAT      O 5956   8.669   7.447   3.458
 1905WAT     H1 5957   8.722   7.459   3.374
 1905WAT     H2 5958   8.731   7.432   3.535
 1906WAT      O 5959   0.308   8.669   4.460
 1906WAT     H1 5960   0.254   8.598   4.415
 1906WAT     H2 5961   0.398   8.634   4.483
 1907WAT      O 5962   1.303   0.486   4.521
 1907WAT     H1 5963   1.334   0.406   4.571
 1907WAT     H2 5964   1.381   0.545   4.501
 1908WAT      O 5965   3.037   2.017   4.236
 1908WAT     H1 5966   3.093   1.993   4.315
 1908WAT     H2 5967   2.941   1.998   4.257
 1909WAT      O 5968   6.686   3.859   6.148
 1909WAT     H1 5969   6.700   3.761   6.161
 1909WAT     H2 5970   6.590   3.877   6.125
 1910WAT      O 5971   9.857   8.664   1.831
 1910WAT     H1 5972   9.944   8.713   1.828
 1910WAT     H2 5973   9.830   8.650   1.926
 1911WAT      O 5974   5.584   8.738   8.313
 1911WAT     H1 5975   5.542   8.707   8.228
 1911WAT     H2 5976   5.515   8.740   8.385
 1912WAT      O 5977   2.552   8.472   5.824
 1912WAT     H1 5978   2.481   8.498   5.889
 1912WAT     H2 5979   2.606   8.552   5.800
 1913WAT      O 5980   8.739   9.619   9.565
 1913WAT     H1 5981   8.798   9.637   9.487
 1913WAT     H2 5982   8.686   9.701   9.587
 1914WAT      O 5983   5.312   6.638   6.018
 1914WAT     H1 5984   5.382   6.654   5.949
 1914WAT     H2 5985   5.246   6.713   6.016
 1915WAT      O 5986   7.425   4.487   7.758
 1915WAT     H1 5987   7.498   4.447   7.813
 1915WAT     H2 5988   7.440   4.466   7.662
 1916WAT      O 5989   9.707   7.070   7.077
 1916WAT     H1 5990   9.620   7.042   7.036
 1916WAT     H2 5991   9.772   7.094   7.005
 1917WAT      O 5992   1.192   8.302   1.404
 1917WAT     H1 5993   1.190   8.216   1.354
 1917WAT     H2 5994   1.112   8.310   1.463
 1918WAT      O 5995   3.347   1.494   3.667
 1918WAT     H1 5996   3.264   1.448   3.699
 1918WAT     H2 5997   3.385   1.444   3.589
 1919WAT      O 5998   4.441   2.692   2.238
 1919WAT     H1 5999   4.480   2.746   2.163
 1919WAT     H2 6000   4.409   2.604   2.202
 1920WAT      O 6001   8.381   3.269   3.360
 1920WAT     H1 6002   8.317   3.250   3.435
 1920WAT     H2 6003   8.357   3.213   3.281
 1921WAT      O 6004   6.784   6.138   0.137
 1921WAT     H1 6005   6.817   6.049   0.103
 1921WAT     H2 6006   6.686   6.145   0.119
 1922WAT      O 6007   6.314   7.769   0.294
 1922WAT     H1 6008   6.374   7.805   0.223
 1922WAT     H2 6009   6.336   7.673   0.311
 1923WAT      O 6010   0.367   6.131   4.136
 1923WAT     H1 6011   0.382   6.038   4.101
 1923WAT     H2 6012   0.375   6.196   4.060
 1924WAT      O 6013   7.614   8.962   0.380
 1924WAT     H1 6014   7.623   9.058   0.357
 1924WAT     H2 6015   7.534   8.924   0.333
 1925WAT      O 6016   6.691   8.602   5.628
 1925WAT     H1 6017   6.628   8.553   5.568
 1925WAT     H2 6018   6.688   8.700   5.607
 1926WAT      O 6019   6.128   9.548   3.906
 1926WAT     H1 6020   6.227   9.532   3.903
 1926WAT     H2 6021   6.098   9.584   3.818
 1927WAT      O 6022   0.491   8.777   1.598
 1927WAT     H1 6023   0.492   8.730   1.510
 1927WAT     H2 6024   0.401   8.765   1.641
 1928WAT      O 6025   4.020   1.253   1.807
 1928WAT     H1 6026   4.064   1.330   1.760
 1928WAT     H2 6027   3.932   1.233   1.764
 1929WAT      O 6028   7.519   2.833   4.509
 1929WAT     H1 6029   7.490   2.865   4.600
 1929WAT     H2 6030   7.615   2.859   4.495
 1930WAT      O 6031   4.353   3.867   7.850
 1930WAT     H1 6032   4.417   3.918   7.793
 1930WAT     H2 6033   4.333   3.779   7.807
 1931WAT      O 6034   6.416   9.183   2.104
 1931WAT     H1 6035   6.409   9.211   2.200
 1931WAT     H2 6036   6.331   9.140   2.075
 1932WAT      O 6037   0.168   3.907   8.152
 1932WAT     H1 6038   0.135   4.001   8.154
 1932WAT     H2 6039   0.232   3.896   8.076
 1933WAT      O 6040   8.831   8.679   3.821
 1933WAT     H1 6041   8.912   8.681   3.762
 1933WAT     H2 6042   8.783   8.767   3.814
 1934WAT      O 6043   0.290   1.751   7.376
 1934WAT     H1 6044   0.273   1.653   7.362
 1934WAT     H2 6045   0.388   1.769   7.368
 1935WAT      O 6046   5.833   3.151   0.283
 1935WAT     H1 6047   5.786   3.073   0.326
 1935WAT     H2 6048   5.823   3.145   0.184
 1936WAT      O 6049   9.577   9.733   9.521
 1936WAT     H1 6050   9.488   9.695   9.546
 1936WAT     H2 6051   9.572   9.772   9.430
 1937WAT      O 6052   1.700   1.536   5.682
 1937WAT     H1 6053   1.671   1.500   5.770
 1937WAT     H2 6054   1.694   1.636   5.684
 1938WAT      O 6055   7.751   6.702   5.168
 1938WAT     H1 6056   7.735   6.786   5.220
 1938WAT     H2 6057   7.832   6.713   5.111
 1939WAT      O 6058   2.073   9.804   5.723
 1939WAT     H1 6059   2.137   9.874   5.755
 1939WAT     H2 6060   2.002   9.790   5.792
 1940WAT      O 6061   1.305   8.868   1.482
 1940WAT     H1 6062   1.345   8.779   1.463
 1940WAT     H2 6063   1.331   8.897   1.575
 1941WAT      O 6064   3.852   9.443   0.056
 1941WAT     H1 6065   3.815   9.375   0.118
 1941WAT     H2 6066   3.778   9.487   0.006
 1942WAT      O 6067   3.698   1.641   6.604
 1942WAT     H1 6068   3.704   1.732   6.645
 1942WAT     H2 6069   3.698   1.650   6.504
 1943WAT      O 6070   8.055   2.099   2.042
 1943WAT     H1 6071   8.145   2.075   2.077
 1943WAT     H2 6072   7.986   2.044   2.089
 1944WAT      O 6073   7.076   5.617   7.635
 1944WAT     H1 6074   7.066   5.664   7.547
 1944WAT     H2 6075   6.987   5.613   7.681
 1945WAT      O 6076   9.036   6.222   5.722
 1945WAT     H1 6077   8.979   6.301   5.700
 1945WAT     H2 6078   9.101   6.206   5.647
 1946WAT      O 6079   5.509   5.604   7.623
 1946WAT     H1 6080   5.487   5.507   7.636
 1946WAT     H2 6081   5.527   5.621   7.526
 1947WAT      O 6082   7.278   5.183   2.920
 1947WAT     H1 6083   7.343   5.225   2.858
 1947WAT     H2 6084   7.194   5.238   2.923
 1948WAT      O 6085   0.875   8.961   5.966
 1948WAT     H1 6086   0.922   9.039   5.925
 1948WAT     H2 6087   0.857   8.893   5.895
 1949WAT      O 6088   6.957   2.739   0.774
 1949WAT     H1 6089   6.904   2.656   0.793
 1949WAT     H2 6090   7.053   2.715   0.760
 1950WAT      O 6091   8.843   9.204   8.884
 1950WAT     H1 6092   8.802   9.219   8.974
 1950WAT     H2 6093   8.809   9.119   8.844
 1951WAT      O 6094   5.783   1.661   0.780
 1951WAT     H1 6095   5.723   1.739   0.759
 1951WAT     H2 6096   5.855   1.691   0.843
 1952WAT      O 6097   1.762   7.445   9.542
 1952WAT     H1 6098   1.719   7.459   9.452
 1952WAT     H2 6099   1.837   7.510   9.553
 1953WAT      O 6100   0.054   6.518   9.652
 1953WAT     H1 6101   0.086   6.605   9.613
 1953WAT     H2 6102   0.120   6.487   9.720
 1954WAT      O 6103   4.205   7.723   5.847
 1954WAT     H1 6104   4.176   7.633   5.815
 1954WAT     H2 6105   4.214   7.785   5.769
 1955WAT      O 6106   5.995   1.502   3.728
 1955WAT     H1 6107   5.916   1.442   3.730
 1955WAT     H2 6108   6.075   1.452   3.695
 1956WAT      O 6109   9.316   4.462   0.459
 1956WAT     H1 6110   9.240   4.405   0.490
 1956WAT     H2 6111   9.332   4.447   0.362
 1957WAT      O 6112   3.572   8.682   7.003
 1957WAT     H1 6113   3.474   8.681   7.026
 1957WAT     H2 6114   3.583   8.679   6.904
 1958WAT      O 6115   1.513   1.163   0.154
 1958WAT     H1 6116   1.424   1.132   0.188
 1958WAT     H2 6117   1.527   1.129   0.061
 1959WAT      O 6118   3.194   5.721   3.529
 1959WAT     H1 6119   3.277   5.767   3.561
 1959WAT     H2 6120   3.143   5.686   3.607
 1960WAT      O 6121   8.894   7.377   7.949
 1960WAT     H1 6122   8.857   7.468   7.933
 1960WAT     H2 6123   8.892   7.325   7.864
 1961WAT      O 6124   2.998   2.228   4.092
 1961WAT     H1 6125   2.994   2.142   4.144
 1961WAT     H2 6126   3.084   2.275   4.112
 1962WAT      O 6127   1.858   9.582   1.418
 1962WAT     H1 6128   1.953   9.597   1.393
 1962WAT     H2 6129   1.815   9.670   1.439
 1963WAT      O 6130   1.976   3.410   1.189
 1963WAT     H1 6131   2.041   3.476   1.225
 1963WAT     H2 6132   2.002   3.318   1.218
 1964WAT      O 6133   4.072   9.465   1.971
 1964WAT     H1 6134   4.068   9.472   2.071
 1964WAT     H2 6135   4.137   9.393   1.945
 1965WAT      O 6136   2.010   2.242   0.054
 1965WAT     H1 6137   1.949   2.182   0.001
 1965WAT     H2 6138   2.102   2.201   0.057
 1966WAT      O 6139   6.330   1.264   3.396
 1966WAT     H1 6140   6.394   1.308   3.333
 1966WAT     H2 6141   6.351   1.167   3.403
 1967WAT      O 6142   5.609   7.522   4.888
 1967WAT     H1 6143   5.703   7.557   4.890
 1967WAT     H2 6144   5.564   7.546   4.974
 1968WAT      O 6145   4.542   3.818   0.667
 1968WAT     H1 6146   4.599   3.762   0.608
 1968WAT     H2 6147   4.560   3.915   0.650
 1969WAT      O 6148   1.340   9.569   1.846
 1969WAT     H1 6149   1.330   9.515   1.929
 1969WAT     H2 6150   1.371   9.509   1.771
 1970WAT      O 6151   1.833   1.933   0.892
 1970WAT     H1 6152   1.872   2.003   0.951
 1970WAT     H2 6153   1.739   1.958   0.868
 1971WAT      O 6154   5.738   4.806   4.348
 1971WAT     H1 6155   5.753   4.855   4.434
 1971WAT     H2 6156   5.682   4.725   4.365
 1972WAT      O 6157   6.287   5.939   3.170
 1972WAT     H1 6158   6.298   5.991   3.255
 1972WAT     H2 6159   6.212   5.874   3.180
 1973WAT      O 6160   2.885   6.534   8.281
 1973WAT     H1 6161   2.870   6.452   8.337
 1973WAT     H2 6162   2.806   6.549   8.222
 1974WAT      O 6163   2.337   5.950   6.268
 1974WAT     H1 6164   2.237   5.949   6.265
 1974WAT     H2 6165   2.371   5.857   6.271
 1975WAT      O 6166   5.381   6.844   2.185
 1975WAT     H1 6167   5.317   6.865   2.259
 1975WAT     H2 6168   5.329   6.811   2.106
 1976WAT      O 6169   3.375   3.515   8.444
 1976WAT     H1 6170   3.467   3.501   8.481
 1976WAT     H2 6171   3.375   3.593   8.383
 1977WAT      O 6172   5.326   7.747   2.865
 1977WAT     H1 6173   5.317   7.761   2.767
 1977WAT     H2 6174   5.373   7.825   2.906
 1978WAT      O 6175   4.719   9.555   4.452
 1978WAT     H1 6176   4.728   9.463   4.490
 1978WAT     H2 6177   4.725   9.551   4.352
 1979WAT      O 6178   3.114   9.391   3.102
 1979WAT     H1 6179   3.197   9.445   3.114
 1979WAT     H2 6180   3.123   9.330   3.024
 1980WAT      O 6181   3.703   7.471   7.878
 1980WAT     H1 6182   3.669   7.397   7.820
 1980WAT     H2 6183   3.677   7.455   7.973
 1981WAT      O 6184   8.703   5.667   7.795
 1981WAT     H1 6185   8.784   5.671   7.854
 1981WAT     H2 6186   8.621   5.685   7.849
 1982WAT      O 6187   3.238   1.234   8.649
 1982WAT     H1 6188   3.252   1.179   8.731
 1982WAT     H2 6189   3.309   1.212   8.582
 1983WAT      O 6190   6.000   8.114   3.485
 1983WAT     H1 6191   6.040   8.146   3.571
 1983WAT     H2 6192   6.017   8.016   3.476
 1984WAT      O 6193   3.241   7.087   7.300
 1984WAT     H1 6194   3.190   7.007   7.271
 1984WAT     H2 6195   3.278   7.072   7.391
 1985WAT      O 6196   4.637   4.981   0.482
 1985WAT     H1 6197   4.633   5.052   0.411
 1985WAT     H2 6198   4.633   5.024   0.572
 1986WAT      O 6199   0.036   7.933   2.334
 1986WAT     H1 6200   0.038   7.845   2.382
 1986WAT     H2 6201  -0.041   7.988   2.368
 1987WAT      O 6202   1.920   6.487   1.930
 1987WAT     H1 6203   1.935   6.439   2.016
 1987WAT     H2 6204   1.908   6.421   1.856
 1988WAT      O 6205   7.283   4.795   7.011
 1988WAT     H1 6206   7.322   4.725   6.951
 1988WAT     H2 6207   7.255   4.753   7.097
 1989WAT      O 6208   1.304   6.767   0.197
 1989WAT     H1 6209   1.232   6.706   0.229
 1989WAT     H2 6210   1.358   6.721   0.126
 1990WAT      O 6211   7.019   6.335   3.557
 1990WAT     H1 6212   7.025   6.405   3.628
 1990WAT     H2 6213   7.086   6.353   3.486
 1991WAT      O 6214   1.602   1.613   1.963
 1991WAT     H1 6215   1.611   1.593   1.866
 1991WAT     H2 6216   1.505   1.618   1.987
 1992WAT      O 6217   3.848   7.689   7.964
 1992WAT     H1 6218   3.793   7.629   7.906
 1992WAT     H2 6219   3.930   7.641   7.996
 1993WAT      O 6220   3.913   3.115   2.335
 1993WAT     H1 6221   3.882   3.134   2.242
 1993WAT     H2 6222   4.004   3.154   2.348
 1994WAT      O 6223   1.095   8.088   2.924
 1994WAT     H1 6224   1.026   8.051   2.985
 1994WAT     H2 6225   1.175   8.117   2.977
 1995WAT      O 6226   2.195   7.484   0.883
 1995WAT     H1 6227   2.211   7.441   0.971
 1995WAT     H2 6228   2.099   7.513   0.877
 1996WAT      O 6229   9.787   6.117   6.421
 1996WAT     H1 6230   9.742   6.070   6.497
 1996WAT     H2 6231   9.870   6.068   6.396
 1997WAT      O 6232   5.571   4.092   6.347
 1997WAT     H1 6233   5.471   4.091   6.351
 1997WAT     H2 6234   5.606   4.172   6.396
 1998WAT      O 6235   0.559   1.687   9.457
 1998WAT     H1 6236   0.624   1.633   9.404
 1998WAT     H2 6237   0.602   1.717   9.542
 1999WAT      O 6238   8.818   3.511   2.148
 1999WAT     H1 6239   8.909   3.469   2.141
 1999WAT     H2 6240   8.825   3.595   2.202
 2000WAT      O 6241   6.110   8.153   3.729
 2000WAT     H1 6242   6.051   8.130   3.806
 2000WAT     H2 6243   6.199   8.109   3.741
 2001WAT      O 6244   2.053   8.194   1.963
 2001WAT     H1 6245   1.978   8.153   1.910
 2001WAT     H2 6246   2.107   8.121   2.006
 2002WAT      O 6247   5.624   9.325   2.534
 2002WAT     H1 6248   5.595   9.404   2.589
 2002WAT     H2 6249   5.544   9.279   2.497
 2003WAT      O 6250   6.656   2.692   7.397
 2003WAT     H1 6251   6.662   2.621   7.468
 2003WAT     H2 6252   6.627   2.650   7.311
 2004WAT      O 6253   4.691   5.747   6.919
 2004WAT     H1 6254   4.672   5.770   6.824
 2004WAT     H2 6255   4.665   5.652   6.937
 2005WAT      O 6256   0.960   2.190   7.510
 2005WAT     H1 6257   1.022   2.195   7.432
 2005WAT     H2 6258   0.983   2.110   7.566
 2006WAT      O 6259   4.293   3.318   3.040
 2006WAT     H1 6260   4.392   3.310   3.043
 2006WAT     H2 6261   4.251   3.239   3.084
 2007WAT      O 6262   2.415   0.645   7.400
 2007WAT     H1 6263   2.512   0.647   7.377
 2007WAT     H2 6264   2.381   0.551   7.395
 2008WAT      O 6265   7.475   6.109   3.180
 2008WAT     H1 6266   7.429   6.023   3.199
 2008WAT     H2 6267   7.479   6.164   3.263
 2009WAT      O 6268   5.576   9.723   5.547
 2009WAT     H1 6269   5.503   9.656   5.560
 2009WAT     H2 6270   5.650   9.682   5.494
 2010WAT      O 6271   7.834   7.149   6.192
 2010WAT     H1 6272   7.901   7.075   6.192
 2010WAT     H2 6273   7.746   7.114   6.161
 2011WAT      O 6274   2.204   7.957   2.076
 2011WAT     H1 6275   2.188   7.878   2.135
 2011WAT     H2 6276   2.279   7.937   2.013
 2012WAT      O 6277   1.221   2.035   3.177
 2012WAT     H1 6278   1.241   1.946   3.219
 2012WAT     H2 6279   1.229   2.106   3.246
 2013WAT      O 6280   2.451   8.805   0.803
 2013WAT     H1 6281   2.372   8.824   0.746
 2013WAT     H2 6282   2.518   8.880   0.793
 2014WAT      O 6283   6.481   1.563   3.611
 2014WAT     H1 6284   6.520   1.486   3.662
 2014WAT     H2 6285   6.457   1.636   3.674
 2015WAT      O 6286   0.475   6.773   8.279
 2015WAT     H1 6287   0.566   6.814   8.267
 2015WAT     H2 6288   0.451   6.771   8.376
 2016WAT      O 6289   8.551   4.833   9.895
 2016WAT     H1 6290   8.595   4.923   9.892
 2016WAT     H2 6291   8.486   4.825   9.820
 2017WAT      O 6292   5.530   4.911   2.443
 2017WAT     H1 6293   5.579   4.992   2.411
 2017WAT     H2 6294   5.589   4.858   2.503
 2018WAT      O 6295   2.828   3.105   5.698
 2018WAT     H1 6296   2.768   3.183   5.716
 2018WAT     H2 6297   2.898   3.131   5.632
 2019WAT      O 6298   9.352   4.197   3.273
 2019WAT     H1 6299   9.388   4.146   3.195
 2019WAT     H2 6300   9.395   4.163   3.357
 2020WAT      O 6301   8.044   1.825   6.114
 2020WAT     H1 6302   8.108   1.816   6.190
 2020WAT     H2 6303   7.958   1.863   6.146
 2021WAT      O 6304   3.040   6.817   6.949
 2021WAT     H1 6305   2.940   6.812   6.947
 2021WAT     H2 6306   3.071   6.874   6.873
 2022WAT      O 6307   0.463   3.248   0.400
 2022WAT     H1 6308   0.465   3.300   0.485
 2022WAT     H2 6309   0.408   3.166   0.412
 2023WAT      O 6310   7.367   8.073   0.080
 2023WAT     H1 6311   7.421   7.995   0.048
 2023WAT     H2 6312   7.271   8.059   0.056
 2024WAT      O 6313   7.553   1.206   0.672
 2024WAT     H1 6314   7.633   1.160   0.710
 2024WAT     H2 6315   7.472   1.184   0.727
 2025WAT      O 6316   6.414   3.966   4.265
 2025WAT     H1 6317   6.480   3.961   4.340
 2025WAT     H2 6318   6.461   3.946   4.179
 2026WAT      O 6319   8.354   0.743   9.637
 2026WAT     H1 6320   8.449   0.761   9.662
 2026WAT     H2 6321   8.350   0.697   9.548
 2027WAT      O 6322   6.692   4.704   2.931
 2027WAT     H1 6323   6.708   4.629   2.995
 2027WAT     H2 6324   6.775   4.760   2.924
 2028WAT      O 6325   9.281   9.444   5.554
 2028WAT     H1 6326   9.260   9.468   5.459
 2028WAT     H2 6327   9.269   9.345   5.566
 2029WAT      O 6328   4.068   1.331   3.091
 2029WAT     H1 6329   4.034   1.416   3.051
 2029WAT     H2 6330   3.992   1.282   3.135
 2030WAT      O 6331   0.127   5.319   1.777
 2030WAT     H1 6332   0.039   5.367   1.777
 2030WAT     H2 6333   0.120   5.236   1.721
 2031WAT      O 6334   4.644   5.547   2.301
 2031WAT     H1 6335   4.722   5.602   2.331
 2031WAT     H2 6336   4.635   5.466   2.360
 2032WAT      O 6337   5.251   3.869   7.944
 2032WAT     H1 6338   5.223   3.776   7.970
 2032WAT     H2 6339   5.194   3.901   7.868
 2033WAT      O 6340   2.305   4.366   1.636
 2033WAT     H1 6341   2.371   4.425   1.683
 2033WAT     H2 6342   2.266   4.415   1.558
 2034WAT      O 6343   5.701   9.632   7.706
 2034WAT     H1 6344   5.700   9.542   7.751
 2034WAT     H2 6345   5.714   9.620   7.607
 2035WAT      O 6346   6.213   6.067   0.715
 2035WAT     H1 6347   6.132   6.061   0.657
 2035WAT     H2 6348   6.234   5.977   0.753
 2036WAT      O 6349   0.072   7.047   9.744
 2036WAT     H1 6350   0.006   7.029   9.671
 2036WAT     H2 6351   0.155   6.994   9.728
 2037WAT      O 6352   2.217   3.448   7.150
 2037WAT     H1 6353   2.140   3.385   7.158
 2037WAT     H2 6354   2.278   3.435   7.228
 2038WAT      O 6355   8.854   3.130   7.903
 2038WAT     H1 6356   8.764   3.169   7.888
 2038WAT     H2 6357   8.877   3.068   7.827
 2039WAT      O 6358   3.090   2.930   9.679
 2039WAT     H1 6359   3.107   2.901   9.584
 2039WAT     H2 6360   3.171   2.910   9.734
 2040WAT      O 6361   5.706   3.890   6.460
 2040WAT     H1 6362   5.657   3.971   6.429
 2040WAT     H2 6363   5.762   3.854   6.386
 2041WAT      O 6364   1.089   9.122   5.033
 2041WAT     H1 6365   1.023   9.131   5.108
 2041WAT     H2 6366   1.140   9.037   5.043
 2042WAT      O 6367   4.327   8.496   8.232
 2042WAT     H1 6368   4.302   8.557   8.157
 2042WAT     H2 6369   4.253   8.492   8.298
 2043WAT      O 6370   7.641   4.265   8.270
 2043WAT     H1 6371   7.577   4.245   8.344
 2043WAT     H2 6372   7.707   4.190   8.261
 2044WAT      O 6373   6.214   8.989   5.356
 2044WAT     H1 6374   6.196   8.943   5.270
 2044WAT     H2 6375   6.205   9.088   5.344
 2045WAT      O 6376   0.782   4.683   9.652
 2045WAT     H1 6377   0.876   4.705   9.626
 2045WAT     H2 6378   0.780   4.592   9.693
 2046WAT      O 6379   8.376   5.080   9.169
 2046WAT     H1 6380   8.450   5.128   9.122
 2046WAT     H2 6381   8.387   4.981   9.156
 2047WAT      O 6382   3.599   2.827   8.688
 2047WAT     H1 6383   3.541   2.822   8.769
 2047WAT     H2 6384   3.572   2.755   8.623
 2048WAT      O 6385   0.116   2.078   2.739
 2048WAT     H1 6386   0.116   2.035   2.649
 2048WAT     H2 6387   0.183   2.152   2.741
 2049WAT      O 6388   5.934   0.499   6.211
 2049WAT     H1 6389   5.966   0.579   6.261
 2049WAT     H2 6390   6.000   0.474   6.141
 2050WAT      O 6391   6.237   6.473   9.306
 2050WAT     H1 6392   6.285   6.479   9.394
 2050WAT     H2 6393   6.274   6.542   9.243
 2051WAT      O 6394   6.821   7.402   9.498
 2051WAT     H1 6395   6.909   7.436   9.532
 2051WAT     H2 6396   6.755   7.398   9.573
 2052WAT      O 6397   4.368   2.248   7.176
 2052WAT     H1 6398   4.317   2.314   7.121
 2052WAT     H2 6399   4.392   2.169   7.120
 2053WAT      O 6400   7.226   5.743   3.371
 2053WAT     H1 6401   7.293   5.763   3.300
 2053WAT     H2 6402   7.210   5.645   3.376
 2054WAT      O 6403   7.206   3.006   3.163
 2054WAT     H1 6404   7.186   2.970   3.255
 2054WAT     H2 6405   7.260   3.089   3.172
 2055WAT      O 6406   8.462   1.319   2.391
 2055WAT     H1 6407   8.504   1.369   2.315
 2055WAT     H2 6408   8.478   1.221   2.378
 2056WAT      O 6409   1.457   4.839   5.316
 2056WAT     H1 6410   1.472   4.795   5.228
 2056WAT     H2 6411   1.545   4.870   5.353
 2057WAT      O 6412   4.844   4.871   4.703
 2057WAT     H1 6413   4.808   4.962   4.724
 2057WAT     H2 6414   4.770   4.813   4.669
 2058WAT      O 6415   3.310   1.486   4.823
 2058WAT     H1 6416   3.310   1.519   4.728
 2058WAT     H2 6417   3.245   1.538   4.877
 2059WAT      O 6418   5.188   2.634   9.822
 2059WAT     H1 6419   5.192   2.727   9.785
 2059WAT     H2 6420   5.185   2.568   9.746
 2060WAT      O 6421   0.560   1.034   7.460
 2060WAT     H1 6422   0.566   0.981   7.545
 2060WAT     H2 6423   0.646   1.081   7.444
 2061WAT      O 6424   9.743   9.136   7.547
 2061WAT     H1 6425   9.678   9.161   7.477
 2061WAT     H2 6426   9.783   9.046   7.526
 2062WAT      O 6427   0.552   3.842   3.944
 2062WAT     H1 6428   0.626   3.776   3.932
 2062WAT     H2 6429   0.528   3.848   4.041
 2063WAT      O 6430   1.476   2.418   7.794
 2063WAT     H1 6431   1.454   2.323   7.816
 2063WAT     H2 6432   1.460   2.476   7.874
 2064WAT      O 6433   4.345   0.027   9.393
 2064WAT     H1 6434   4.433  -0.013   9.367
 2064WAT     H2 6435   4.271  -0.036   9.369
 2065WAT      O 6436   5.959   9.253   0.617
 2065WAT     H1 6437   6.024   9.193   0.664
 2065WAT     H2 6438   5.997   9.345   0.611
 2066WAT      O 6439   1.459   2.574   7.072
 2066WAT     H1 6440   1.557   2.593   7.077
 2066WAT     H2 6441   1.432   2.561   6.977
 2067WAT      O 6442   1.854   0.962   5.652
 2067WAT     H1 6443   1.942   0.987   5.611
 2067WAT     H2 6444   1.786   1.032   5.630
 2068WAT      O 6445   1.676   9.500   2.142
 2068WAT     H1 6446   1.652   9.468   2.234
 2068WAT     H2 6447   1.775   9.494   2.130
 2069WAT      O 6448   1.686   5.941   5.053
 2069WAT     H1 6449   1.697   6.040   5.044
 2069WAT     H2 6450   1.680   5.899   4.962
 2070WAT      O 6451   9.046   2.106   8.686
 2070WAT     H1 6452   9.111   2.143   8.621
 2070WAT     H2 6453   8.990   2.035   8.642
 2071WAT      O 6454   8.295   0.332   7.878
 2071WAT     H1 6455   8.286   0.378   7.966
 2071WAT     H2 6456   8.255   0.240   7.884
 2072WAT      O 6457   7.593   7.681   6.238
 2072WAT     H1 6458   7.535   7.632   6.302
 2072WAT     H2 6459   7.685   7.692   6.277
 2073WAT      O 6460   2.649   2.574   6.488
 2073WAT     H1 6461   2.634   2.505   6.559
 2073WAT     H2 6462   2.649   2.665   6.530
 2074WAT      O 6463   8.708   9.522   3.473
 2074WAT     H1 6464   8.686   9.585   3.399
 2074WAT     H2 6465   8.673   9.559   3.559
 2075WAT      O 6466   6.481   1.556   1.984
 2075WAT     H1 6467   6.554   1.576   2.050
 2075WAT     H2 6468   6.393   1.581   2.024
 2076WAT      O 6469   4.611   4.632   2.685
 2076WAT     H1 6470   4.529   4.574   2.688
 2076WAT     H2 6471   4.692   4.575   2.678
 2077WAT      O 6472   7.941   3.848   4.308
 2077WAT     H1 6473   7.943   3.749   4.295
 2077WAT     H2 6474   8.023   3.889   4.267
 2078WAT      O 6475   1.667   6.485   4.195
 2078WAT     H1 6476   1.712   6.420   4.134
 2078WAT     H2 6477   1.717   6.490   4.282
 2079WAT      O 6478   2.869   6.753   3.620
 2079WAT     H1 6479   2.776   6.720   3.634
 2079WAT     H2 6480   2.890   6.824   3.687
 2080WAT      O 6481   5.700   7.732   8.687
 2080WAT     H1 6482   5.618   7.758   8.738
 2080WAT     H2 6483   5.676   7.710   8.593
 2081WAT      O 6484   2.020   8.381   1.789
 2081WAT     H1 6485   2.085   8.457   1.790
 2081WAT     H2 6486   2.038   8.321   1.867
 2082WAT      O 6487   9.855   0.683   9.657
 2082WAT     H1 6488   9.824   0.726   9.572
 2082WAT     H2 6489   9.950   0.655   9.648
 2083WAT      O 6490   3.586   3.646   5.467
 2083WAT     H1 6491   3.522   3.688   5.532
 2083WAT     H2 6492   3.552   3.660   5.374
 2084WAT      O 6493   1.431   6.585   0.939
 2084WAT     H1 6494   1.504   6.642   0.978
 2084WAT     H2 6495   1.468   6.495   0.915
 2085WAT      O 6496   5.793   8.813   4.600
 2085WAT     H1 6497   5.783   8.878   4.524
 2085WAT     H2 6498   5.704   8.772   4.620
 2086WAT      O 6499   3.587   9.449   1.080
 2086WAT     H1 6500   3.609   9.352   1.094
 2086WAT     H2 6501   3.602   9.499   1.165
 2087WAT      O 6502   5.606   0.950   0.954
 2087WAT     H1 6503   5.657   0.904   0.882
 2087WAT     H2 6504   5.513   0.970   0.922
 2088WAT      O 6505   0.463   0.837   2.985
 2088WAT     H1 6506   0.408   0.805   2.907
 2088WAT     H2 6507   0.402   0.856   3.062
 2089WAT      O 6508   0.562   7.663   2.560
 2089WAT     H1 6509   0.504   7.715   2.624
 2089WAT     H2 6510   0.653   7.651   2.601
 2090WAT      O 6511   8.609   1.788   3.356
 2090WAT     H1 6512   8.656   1.710   3.395
 2090WAT     H2 6513   8.675   1.861   3.335
 2091WAT      O 6514   4.431   5.876   6.583
 2091WAT     H1 6515   4.393   5.799   6.530
 2091WAT     H2 6516   4.363   5.908   6.649
 2092WAT      O 6517   1.563   6.248   8.119
 2092WAT     H1 6518   1.569   6.298   8.033
 2092WAT     H2 6519   1.644   6.267   8.175
 2093WAT      O 6520   9.008   3.108   4.545
 2093WAT     H1 6521   9.062   3.108   4.629
 2093WAT     H2 6522   8.949   3.189   4.543
 2094WAT      O 6523   5.866   5.397   4.031
 2094WAT     H1 6524   5.801   5.396   4.107
 2094WAT     H2 6525   5.959   5.393   4.067
 2095WAT      O 6526   4.957   2.515   2.707
 2095WAT     H1 6527   4.871   2.508   2.656
 2095WAT     H2 6528   5.022   2.569   2.655
 2096WAT      O 6529   2.825   8.421   2.679
 2096WAT     H1 6530   2.786   8.335   2.646
 2096WAT     H2 6531   2.765   8.460   2.750
 2097WAT      O 6532   5.910   5.846   7.994
 2097WAT     H1 6533   5.873   5.907   7.924
 2097WAT     H2 6534   6.008   5.832   7.978
 2098WAT      O 6535   3.058   9.816   4.528
 2098WAT     H1 6536   3.152   9.824   4.564
 2098WAT     H2 6537   2.999   9.779   4.600
 2099WAT      O 6538   2.389   4.819   1.793
 2099WAT     H1 6539   2.419   4.914   1.795
 2099WAT     H2 6540   2.389   4.781   1.886
 2100WAT      O 6541   3.616   1.145   9.877
 2100WAT     H1 6542   3.677   1.203   9.933
 2100WAT     H2 6543   3.536   1.119   9.931
 2101WAT      O 6544   5.418   0.149   5.394
 2101WAT     H1 6545   5.371   0.224   5.442
 2101WAT     H2 6546   5.379   0.062   5.422
 2102WAT      O 6547   1.562   9.571   7.978
 2102WAT     H1 6548   1.552   9.472   7.969
 2102WAT     H2 6549   1.490   9.607   8.037
 2103WAT      O 6550   2.362   0.318   5.573
 2103WAT     H1 6551   2.300   0.394   5.558
 2103WAT     H2 6552   2.453   0.342   5.539
 2104WAT      O 6553   3.810   8.375   1.033
 2104WAT     H1 6554   3.794   8.340   1.126
 2104WAT     H2 6555   3.896   8.338   0.999
 2105WAT      O 6556   1.442   1.041   4.083
 2105WAT     H1 6557   1.456   1.134   4.048
 2105WAT     H2 6558   1.507   0.979   4.039
 2106WAT      O 6559   1.697   1.874   2.014
 2106WAT     H1 6560   1.770   1.867   2.083
 2106WAT     H2 6561   1.676   1.783   1.979
 2107WAT      O 6562   0.787   3.270   2.644
 2107WAT     H1 6563   0.858   3.254   2.713
 2107WAT     H2 6564   0.825   3.327   2.571
 2108WAT      O 6565   2.650   6.003   2.524
 2108WAT     H1 6566   2.660   5.907   2.496
 2108WAT     H2 6567   2.723   6.026   2.588
 2109WAT      O 6568   0.744   6.318   3.132
 2109WAT     H1 6569   0.670   6.280   3.075
 2109WAT     H2 6570   0.706   6.389   3.191
 2110WAT      O 6571   7.068   3.483   2.040
 2110WAT     H1 6572   6.981   3.445   2.007
 2110WAT     H2 6573   7.051   3.536   2.123
 2111WAT      O 6574   4.952   1.880   6.247
 2111WAT     H1 6575   4.858   1.877   6.281
 2111WAT     H2 6576   5.015   1.877   6.324
 2112WAT      O 6577   4.784   1.576   2.730
 2112WAT     H1 6578   4.791   1.519   2.648
 2112WAT     H2 6579   4.714   1.539   2.791
 2113WAT      O 6580   2.937   6.411   9.489
 2113WAT     H1 6581   2.865   6.474   9.463
 2113WAT     H2 6582   2.902   6.317   9.488
 2114WAT      O 6583   8.218   7.577   4.158
 2114WAT     H1 6584   8.237   7.674   4.143
 2114WAT     H2 6585   8.122   7.566   4.182
 2115WAT      O 6586   9.821   2.767   1.041
 2115WAT     H1 6587   9.754   2.701   1.008
 2115WAT     H2 6588   9.834   2.756   1.140
 2116WAT      O 6589   5.667   7.075   2.869
 2116WAT     H1 6590   5.676   7.019   2.952
 2116WAT     H2 6591   5.713   7.029   2.793
 2117WAT      O 6592   7.277   3.695   4.722
 2117WAT     H1 6593   7.325   3.782   4.736
 2117WAT     H2 6594   7.237   3.693   4.630
 2118WAT      O 6595   0.881   9.232   1.336
 2118WAT     H1 6596   0.979   9.250   1.347
 2118WAT     H2 6597   0.863   9.208   1.240
 2119WAT      O 6598   8.728   3.007   4.561
 2119WAT     H1 6599   8.707   3.021   4.657
 2119WAT     H2 6600   8.802   3.069   4.534
 2120WAT      O 6601   2.536   6.260   5.462
 2120WAT     H1 6602   2.636   6.268   5.464
 2120WAT     H2 6603   2.495   6.336   5.513
 2121WAT      O 6604   5.951   7.260   8.973
 2121WAT     H1 6605   5.961   7.360   8.981
 2121WAT     H2 6606   5.944   7.235   8.877
 2122WAT      O 6607   6.842   5.078   3.909
 2122WAT     H1 6608   6.876   5.013   3.977
 2122WAT     H2 6609   6.805   5.159   3.956
 2123WAT      O 6610   2.385   6.155   4.934
 2123WAT     H1 6611   2.439   6.188   4.856
 2123WAT     H2 6612   2.316   6.224   4.958
 2124WAT      O 6613   5.942   7.080   4.372
 2124WAT     H1 6614   5.975   6.999   4.323
 2124WAT     H2 6615   5.867   7.121   4.320
 2125WAT      O 6616   2.645   8.965   3.833
 2125WAT     H1 6617   2.560   9.016   3.822
 2125WAT     H2 6618   2.711   8.995   3.764
 2126WAT      O 6619   1.385   0.543   1.306
 2126WAT     H1 6620   1.331   0.473   1.352
 2126WAT     H2 6621   1.331   0.584   1.232
 2127WAT      O 6622   5.177   6.870   2.361
 2127WAT     H1 6623   5.089   6.912   2.382
 2127WAT     H2 6624   5.215   6.829   2.444
 2128WAT      O 6625   6.469   8.324   9.338
 2128WAT     H1 6626   6.511   8.372   9.261
 2128WAT     H2 6627   6.434   8.235   9.307
 2129WAT      O 6628   7.118   0.832   4.804
 2129WAT     H1 6629   7.107   0.827   4.704
 2129WAT     H2 6630   7.197   0.778   4.831
 2130WAT      O 6631   0.260   0.534   1.870
 2130WAT     H1 6632   0.227   0.574   1.784
 2130WAT     H2 6633   0.358   0.520   1.864
 2131WAT      O 6634   1.679   1.411   4.100
 2131WAT     H1 6635   1.606   1.355   4.061
 2131WAT     H2 6636   1.648   1.506   4.107
 2132WAT      O 6637   1.015   8.943   2.710
 2132WAT     H1 6638   1.084   8.955   2.639
 2132WAT     H2 6639   0.924   8.953   2.671
 2133WAT      O 6640   3.612   7.027   1.493
 2133WAT     H1 6641   3.611   7.095   1.420
 2133WAT     H2 6642   3.632   6.937   1.454
 2134WAT      O 6643   9.320   4.574   9.391
 2134WAT     H1 6644   9.246   4.508   9.377
 2134WAT     H2 6645   9.385   4.537   9.457
 2135WAT      O 6646   0.609   7.671   4.545
 2135WAT     H1 6647   0.698   7.657   4.588
 2135WAT     H2 6648   0.565   7.583   4.531
 2136WAT      O 6649   0.757   6.014   7.394
 2136WAT     H1 6650   0.664   6.043   7.418
 2136WAT     H2 6651   0.803   5.980   7.476
 2137WAT      O 6652   3.912   2.737   7.342
 2137WAT     H1 6653   3.834   2.674   7.340
 2137WAT     H2 6654   3.996   2.685   7.328
 2138WAT      O 6655   6.058   9.721   6.374
 2138WAT     H1 6656   6.121   9.668   6.318
 2138WAT     H2 6657   6.097   9.735   6.465
 2139WAT      O 6658   7.495   3.964   6.135
 2139WAT     H1 6659   7.433   4.042   6.125
 2139WAT     H2 6660   7.505   3.919   6.046
 2140WAT      O 6661   7.037   3.391   3.458
 2140WAT     H1 6662   7.082   3.441   3.383
 2140WAT     H2 6663   7.012   3.456   3.530
 2141WAT      O 6664   2.082   2.627   1.922
 2141WAT     H1 6665   2.151   2.647   1.992
 2141WAT     H2 6666   2.093   2.533   1.890
 2142WAT      O 6667   6.854   6.561   6.342
 2142WAT     H1 6668   6.793   6.637   6.360
 2142WAT     H2 6669   6.907   6.580   6.259
 2143WAT      O 6670   6.920   5.349   1.915
 2143WAT     H1 6671   6.845   5.283   1.909
 2143WAT     H2 6672   6.883   5.442   1.908
 2144WAT      O 6673   0.980   8.588   9.609
 2144WAT     H1 6674   0.956   8.623   9.699
 2144WAT     H2 6675   1.019   8.497   9.619
 2145WAT      O 6676   5.007   0.980   7.812
 2145WAT     H1 6677   5.040   1.054   7.753
 2145WAT     H2 6678   5.081   0.949   7.872
 2146WAT      O 6679   4.990   3.315   6.979
 2146WAT     H1 6680   5.022   3.402   6.942
 2146WAT     H2 6681   5.059   3.279   7.042
 2147WAT      O 6682   7.585   6.302   2.447
 2147WAT     H1 6683   7.633   6.366   2.507
 2147WAT     H2 6684   7.650   6.254   2.389
 2148WAT      O 6685   0.207   4.882   3.981
 2148WAT     H1 6686   0.247   4.810   4.038
 2148WAT     H2 6687   0.254   4.968   3.998
 2149WAT      O 6688   4.857   9.182   6.262
 2149WAT     H1 6689   4.774   9.136   6.291
 2149WAT     H2 6690   4.841   9.281   6.260
 2150WAT      O 6691   1.290   6.164   6.496
 2150WAT     H1 6692   1.311   6.173   6.594
 2150WAT     H2 6693   1.261   6.253   6.461
 2151WAT      O 6694   7.529   9.686   9.545
 2151WAT     H1 6695   7.452   9.748   9.561
 2151WAT     H2 6696   7.608   9.739   9.513
 2152WAT      O 6697   9.718   5.032   4.710
 2152WAT     H1 6698   9.719   4.981   4.796
 2152WAT     H2 6699   9.765   5.119   4.723
 2153WAT      O 6700   5.695   8.322   0.263
 2153WAT     H1 6701   5.615   8.381   0.250
 2153WAT     H2 6702   5.674   8.230   0.232
 2154WAT      O 6703   0.479   3.580   3.009
 2154WAT     H1 6704   0.506   3.569   2.913
 2154WAT     H2 6705   0.384   3.552   3.020
 2155WAT      O 6706   5.324   7.166   8.163
 2155WAT     H1 6707   5.261   7.194   8.091
 2155WAT     H2 6708   5.301   7.214   8.248
 2156WAT      O 6709   7.827   0.014   9.555
 2156WAT     H1 6710   7.926   0.001   9.555
 2156WAT     H2 6711   7.795   0.030   9.461
 2157WAT      O 6712   2.339   7.948   5.513
 2157WAT     H1 6713   2.381   7.884   5.578
 2157WAT     H2 6714   2.350   8.041   5.547
 2158WAT      O 6715   3.316   3.044   5.882
 2158WAT     H1 6716   3.341   3.087   5.969
 2158WAT     H2 6717   3.216   3.046   5.872
 2159WAT      O 6718   8.031   1.383   4.935
 2159WAT     H1 6719   8.020   1.480   4.914
 2159WAT     H2 6720   7.983   1.361   5.020
 2160WAT      O 6721   7.811   3.478   7.121
 2160WAT     H1 6722   7.761   3.392   7.128
 2160WAT     H2 6723   7.876   3.485   7.197
 2161WAT      O 6724   2.099   2.063   1.947
 2161WAT     H1 6725   2.173   2.043   2.012
 2161WAT     H2 6726   2.073   2.159   1.956
 2162WAT      O 6727   1.953   2.558   7.602
 2162WAT     H1 6728   1.922   2.475   7.556
 2162WAT     H2 6729   1.896   2.635   7.573
 2163WAT      O 6730   5.601   8.072   4.056
 2163WAT     H1 6731   5.693   8.078   4.096
 2163WAT     H2 6732   5.551   7.998   4.098
 2164WAT      O 6733   4.207   2.873   8.110
 2164WAT     H1 6734   4.267   2.807   8.065
 2164WAT     H2 6735   4.126   2.825   8.146
 2165WAT      O 6736   1.788   7.459   3.555
 2165WAT     H1 6737   1.803   7.478   3.458
 2165WAT     H2 6738   1.825   7.369   3.578
 2166WAT      O 6739   5.591   1.346   8.637
 2166WAT     H1 6740   5.607   1.248   8.647
 2166WAT     H2 6741   5.527   1.377   8.708
 2167WAT      O 6742   3.646   0.208   9.763
 2167WAT     H1 6743   3.659   0.142   9.837
 2167WAT     H2 6744   3.615   0.160   9.681
 2168WAT      O 6745   8.612   3.115   7.296
 2168WAT     H1 6746   8.669   3.103   7.215
 2168WAT     H2 6747   8.576   3.208   7.298
 2169WAT      O 6748   5.044   8.588   5.074
 2169WAT     H1 6749   5.121   8.555   5.021
 2169WAT     H2 6750   5.043   8.688   5.074
 2170WAT      O 6751   1.911   5.973   7.384
 2170WAT     H1 6752   1.828   6.010   7.425
 2170WAT     H2 6753   1.983   6.042   7.386
 2171WAT      O 6754   1.127   1.290   4.838
 2171WAT     H1 6755   1.150   1.203   4.882
 2171WAT     H2 6756   1.078   1.272   4.753
 2172WAT      O 6757   0.042   6.343   0.214
 2172WAT     H1 6758   0.078   6.387   0.132
 2172WAT     H2 6759   0.000   6.256   0.190
 2173WAT      O 6760   7.796   8.197   9.527
 2173WAT     H1 6761   7.892   8.216   9.508
 2173WAT     H2 6762   7.757   8.271   9.582
 2174WAT      O 6763   7.030   9.769   4.840
 2174WAT     H1 6764   7.093   9.766   4.762
 2174WAT     H2 6765   7.020   9.677   4.879
 2175WAT      O 6766   2.412   3.250   3.086
 2175WAT     H1 6767   2.398   3.179   3.017
 2175WAT     H2 6768   2.469   3.213   3.160
 2176WAT      O 6769   7.933   8.353   4.252
 2176WAT     H1 6770   8.023   8.393   4.272
 2176WAT     H2 6771   7.876   8.421   4.207
 2177WAT      O 6772   7.626   5.086   2.789
 2177WAT     H1 6773   7.720   5.082   2.756
 2177WAT     H2 6774   7.594   4.993   2.810
 2178WAT      O 6775   4.952   1.762   8.856
 2178WAT     H1 6776   5.045   1.774   8.823
 2178WAT     H2 6777   4.887   1.783   8.783
 2179WAT      O 6778   2.333   0.954   2.698
 2179WAT     H1 6779   2.294   1.015   2.629
 2179WAT     H2 6780   2.288   0.969   2.786
 2180WAT      O 6781   8.924   6.202   2.978
 2180WAT     H1 6782   8.962   6.117   3.014
 2180WAT     H2 6783   8.938   6.206   2.879
 2181WAT      O 6784   0.232   6.978   7.969
 2181WAT     H1 6785   0.157   6.958   7.906
 2181WAT     H2 6786   0.309   6.917   7.949
 2182WAT      O 6787   4.357   8.664   8.660
 2182WAT     H1 6788   4.403   8.700   8.579
 2182WAT     H2 6789   4.425   8.650   8.733
 2183WAT      O 6790   4.226   0.491   9.407
 2183WAT     H1 6791   4.306   0.511   9.351
 2183WAT     H2 6792   4.200   0.395   9.395
 2184WAT      O 6793   9.042   1.442   5.507
 2184WAT     H1 6794   9.043   1.342   5.505
 2184WAT     H2 6795   8.954   1.474   5.472
 2185WAT      O 6796   1.721   6.384   6.554
 2185WAT     H1 6797   1.644   6.446   6.568
 2185WAT     H2 6798   1.698   6.293   6.588
 2186WAT      O 6799   0.944   0.332   7.757
 2186WAT     H1 6800   1.020   0.268   7.770
 2186WAT     H2 6801   0.857   0.283   7.765
 2187WAT      O 6802   3.674   0.377   4.891
 2187WAT     H1 6803   3.651   0.419   4.979
 2187WAT     H2 6804   3.648   0.438   4.817
 2188WAT      O 6805   2.453   6.270   4.677
 2188WAT     H1 6806   2.466   6.187   4.623
 2188WAT     H2 6807   2.497   6.347   4.632
 2189WAT      O 6808   6.145   3.853   4.360
 2189WAT     H1 6809   6.176   3.851   4.264
 2189WAT     H2 6810   6.196   3.784   4.412
 2190WAT      O 6811   0.227   4.677   3.277
 2190WAT     H1 6812   0.232   4.608   3.205
 2190WAT     H2 6813   0.141   4.668   3.326
 2191WAT      O 6814   8.982   0.222   3.068
 2191WAT     H1 6815   8.919   0.149   3.041
 2191WAT     H2 6816   8.931   0.296   3.111
 2192WAT      O 6817   0.126   1.387   0.500
 2192WAT     H1 6818   0.163   1.333   0.575
 2192WAT     H2 6819   0.062   1.331   0.447
 2193WAT      O 6820   4.701   1.705   5.374
 2193WAT     H1 6821   4.697   1.789   5.320
 2193WAT     H2 6822   4.752   1.722   5.458
 2194WAT      O 6823   5.515   2.908   0.352
 2194WAT     H1 6824   5.434   2.917   0.409
 2194WAT     H2 6825   5.488   2.904   0.256
 2195WAT      O 6826   8.788   0.376   5.898
 2195WAT     H1 6827   8.722   0.337   5.834
 2195WAT     H2 6828   8.875   0.391   5.850
 2196WAT      O 6829   2.109   0.434   9.795
 2196WAT     H1 6830   2.100   0.340   9.826
 2196WAT     H2 6831   2.088   0.439   9.697
 2197WAT      O 6832   8.171   7.888   8.228
 2197WAT     H1 6833   8.086   7.841   8.248
 2197WAT     H2 6834   8.243   7.821   8.209
 2198WAT      O 6835   8.475   4.883   1.572
 2198WAT     H1 6836   8.458   4.883   1.670
 2198WAT     H2 6837   8.509   4.793   1.544
 2199WAT      O 6838   7.320   6.903   6.407
 2199WAT     H1 6839   7.381   6.981   6.417
 2199WAT     H2 6840   7.362   6.822   6.446
 2200WAT      O 6841   1.612   3.079   6.518
 2200WAT     H1 6842   1.646   3.162   6.563
 2200WAT     H2 6843   1.686   3.038   6.464
 2201WAT      O 6844   6.559   4.352   2.395
 2201WAT     H1 6845   6.599   4.395   2.314
 2201WAT     H2 6846   6.523   4.423   2.456
 2202WAT      O 6847   5.607   1.289   5.146
 2202WAT     H1 6848   5.637   1.253   5.234
 2202WAT     H2 6849   5.680   1.278   5.079
 2203WAT      O 6850   3.157   1.382   9.415
 2203WAT     H1 6851   3.213   1.364   9.333
 2203WAT     H2 6852   3.063   1.402   9.387
 2204WAT      O 6853   7.633   6.672   8.196
 2204WAT     H1 6854   7.681   6.741   8.142
 2204WAT     H2 6855   7.536   6.672   8.173
 2205WAT      O 6856   1.276   3.286   5.977
 2205WAT     H1 6857   1.327   3.296   5.892
 2205WAT     H2 6858   1.340   3.271   6.053
 2206WAT      O 6859   6.574   1.340   1.845
 2206WAT     H1 6860   6.538   1.423   1.888
 2206WAT     H2 6861   6.639   1.364   1.774
 2207WAT      O 6862   9.818   5.263   7.715
 2207WAT     H1 6863   9.761   5.222   7.643
 2207WAT     H2 6864   9.777   5.243   7.804
 2208WAT      O 6865   5.380   8.773   1.451
 2208WAT     H1 6866   5.439   8.734   1.522
 2208WAT     H2 6867   5.343   8.699   1.395
 2209WAT      O 6868   3.274   7.185   8.014
 2209WAT     H1 6869   3.331   7.241   8.074
 2209WAT     H2 6870   3.216   7.125   8.071
 2210WAT      O 6871   7.347   5.278   9.836
 2210WAT     H1 6872   7.377   5.226   9.916
 2210WAT     H2 6873   7.385   5.371   9.840
 2211WAT      O 6874   1.377   9.419   9.201
 2211WAT     H1 6875   1.337   9.509   9.185
 2211WAT     H2 6876   1.434   9.393   9.122
 2212WAT      O 6877   3.854   0.469   3.265
 2212WAT     H1 6878   3.877   0.551   3.317
 2212WAT     H2 6879   3.807   0.495   3.181
 2213WAT      O 6880   8.351   5.415   9.601
 2213WAT     H1 6881   8.275   5.463   9.558
 2213WAT     H2 6882   8.436   5.434   9.551
 2214WAT      O 6883   4.184   0.329   5.020
 2214WAT     H1 6884   4.250   0.399   5.043
 2214WAT     H2 6885   4.095   0.371   5.003
 2215WAT      O 6886   6.145   9.198   4.908
 2215WAT     H1 6887   6.048   9.181   4.895
 2215WAT     H2 6888   6.163   9.296   4.901
 2216WAT      O 6889   2.929   8.238   8.019
 2216WAT     H1 6890   2.985   8.204   8.095
 2216WAT     H2 6891   2.844   8.276   8.055
 2217WAT      O 6892   4.244   5.332   5.542
 2217WAT     H1 6893   4.232   5.315   5.445
 2217WAT     H2 6894   4.275   5.248   5.588
 2218WAT      O 6895   4.056   9.079   1.870
 2218WAT     H1 6896   4.143   9.034   1.885
 2218WAT     H2 6897   4.066   9.149   1.799
 2219WAT      O 6898   7.824   1.639   5.826
 2219WAT     H1 6899   7.816   1.608   5.921
 2219WAT     H2 6900   7.762   1.587   5.769
 2220WAT      O 6901   1.890   7.486   9.838
 2220WAT     H1 6902   1.956   7.484   9.763
 2220WAT     H2 6903   1.845   7.397   9.844
 2221WAT      O 6904   7.021   7.149   2.542
 2221WAT     H1 6905   7.024   7.112   2.635
 2221WAT     H2 6906   7.011   7.074   2.476
 2222WAT      O 6907   8.050   5.792   9.544
 2222WAT     H1 6908   7.956   5.823   9.559
 2222WAT     H2 6909   8.100   5.861   9.490
 2223WAT      O 6910   6.517   5.192   8.031
 2223WAT     H1 6911   6.577   5.166   7.955
 2223WAT     H2 6912   6.426   5.152   8.017
 2224WAT      O 6913   6.142   4.707   4.752
 2224WAT     H1 6914   6.048   4.689   4.782
 2224WAT     H2 6915   6.144   4.789   4.695
 2225WAT      O 6916   1.405   7.936   6.755
 2225WAT     H1 6917   1.371   8.024   6.720
 2225WAT     H2 6918   1.409   7.940   6.855
 2226WAT      O 6919   5.210   1.651   9.162
 2226WAT     H1 6920   5.195   1.747   9.183
 2226WAT     H2 6921   5.123   1.606   9.144
 2227WAT      O 6922   9.810   9.697   4.535
 2227WAT     H1 6923   9.746   9.651   4.473
 2227WAT     H2 6924   9.895   9.717   4.487
 2228WAT      O 6925   4.448   1.371   5.927
 2228WAT     H1 6926   4.428   1.273   5.919
 2228WAT     H2 6927   4.510   1.398   5.853
 2229WAT      O 6928   2.691   3.754   5.909
 2229WAT     H1 6929   2.769   3.805   5.947
 2229WAT     H2 6930   2.610   3.813   5.909
 2230WAT      O 6931   8.308   2.015   2.769
 2230WAT     H1 6932   8.235   2.073   2.733
 2230WAT     H2 6933   8.269   1.950   2.835
 2231WAT      O 6934   7.952   0.615   5.936
 2231WAT     H1 6935   7.877   0.568   5.983
 2231WAT     H2 6936   7.929   0.626   5.839
 2232WAT      O 6937   8.851   6.340   3.879
 2232WAT     H1 6938   8.941   6.376   3.905
 2232WAT     H2 6939   8.789   6.346   3.957
 2233WAT      O 6940   5.788   0.144   0.466
 2233WAT     H1 6941   5.785   0.213   0.539
 2233WAT     H2 6942   5.736   0.064   0.493
 2234WAT      O 6943   0.574   7.068   0.719
 2234WAT     H1 6944   0.615   7.097   0.632
 2234WAT     H2 6945   0.575   7.144   0.784
 2235WAT      O 6946   1.642   1.711   3.180
 2235WAT     H1 6947   1.660   1.788   3.242
 2235WAT     H2 6948   1.545   1.690   3.180
 2236WAT      O 6949   2.652   0.966   1.723
 2236WAT     H1 6950   2.655   0.888   1.660
 2236WAT     H2 6951   2.709   1.040   1.687
 2237WAT      O 6952   4.498   2.422   8.397
 2237WAT     H1 6953   4.573   2.447   8.336
 2237WAT     H2 6954   4.443   2.350   8.354
 2238WAT      O 6955   5.729   6.404   3.611
 2238WAT     H1 6956   5.658   6.339   3.636
 2238WAT     H2 6957   5.806   6.355   3.568
 2239WAT      O 6958   2.906   4.113   9.027
 2239WAT     H1 6959   2.866   4.204   9.035
 2239WAT     H2 6960   2.945   4.102   8.935
 2240WAT      O 6961   7.856   7.023   7.936
 2240WAT     H1 6962   7.891   7.116   7.937
 2240WAT     H2 6963   7.881   6.979   7.850
 2241WAT      O 6964   1.192   0.133   4.696
 2241WAT     H1 6965   1.276   0.142   4.751
 2241WAT     H2 6966   1.215   0.099   4.605
 2242WAT      O 6967   0.046   5.848   0.358
 2242WAT     H1 6968   0.060   5.795   0.274
 2242WAT     H2 6969  -0.046   5.830   0.393
 2243WAT      O 6970   7.640   9.241   9.763
 2243WAT     H1 6971   7.643   9.215   9.666
 2243WAT     H2 6972   7.630   9.340   9.770
 2244WAT      O 6973   4.414   5.786   3.307
 2244WAT     H1 6974   4.380   5.812   3.217
 2244WAT     H2 6975   4.473   5.859   3.343
 2245WAT      O 6976   9.698   7.838   2.828
 2245WAT     H1 6977   9.728   7.932   2.816
 2245WAT     H2 6978   9.709   7.810   2.923
 2246WAT      O 6979   9.871   9.418   7.405
 2246WAT     H1 6980   9.790   9.392   7.352
 2246WAT     H2 6981   9.934   9.341   7.409
 2247WAT      O 6982   5.286   8.768   0.893
 2247WAT     H1 6983   5.383   8.745   0.902
 2247WAT     H2 6984   5.232   8.703   0.946
 2248WAT      O 6985   8.687   9.683   4.622
 2248WAT     H1 6986   8.787   9.683   4.623
 2248WAT     H2 6987   8.653   9.729   4.704
 2249WAT      O 6988   5.962   9.483   9.367
 2249WAT     H1 6989   6.041   9.531   9.328
 2249WAT     H2 6990   5.933   9.411   9.304
 2250WAT      O 6991   2.842   7.201   5.435
 2250WAT     H1 6992   2.873   7.207   5.530
 2250WAT     H2 6993   2.813   7.107   5.415
 2251WAT      O 6994   7.516   9.730   2.304
 2251WAT     H1 6995   7.507   9.648   2.247
 2251WAT     H2 6996   7.498   9.811   2.248
 2252WAT      O 6997   8.024   5.323   0.174
 2252WAT     H1 6998   7.960   5.365   0.239
 2252WAT     H2 6999   7.982   5.322   0.083
 2253WAT      O 7000   4.826   4.891   0.771
 2253WAT     H1 7001   4.867   4.851   0.688
 2253WAT     H2 7002   4.778   4.975   0.747
 2254WAT      O 7003   7.047   4.412   8.792
 2254WAT     H1 7004   7.138   4.373   8.806
 2254WAT     H2 7005   6.980   4.338   8.787
 2255WAT      O 7006   7.312   8.964   7.262
 2255WAT     H1 7007   7.289   8.873   7.229
 2255WAT     H2 7008   7.239   9.028   7.240
 2256WAT      O 7009   8.900   6.778   9.553
 2256WAT     H1 7010   8.865   6.809   9.641
 2256WAT     H2 7011   8.839   6.707   9.516
 2257WAT      O 7012   4.235   8.728   2.291
 2257WAT     H1 7013   4.286   8.801   2.337
 2257WAT     H2 7014   4.298   8.670   2.241
 2258WAT      O 7015   0.215   8.559   3.876
 2258WAT     H1 7016   0.307   8.527   3.854
 2258WAT     H2 7017   0.219   8.619   3.956
 2259WAT      O 7018   8.008   5.637   0.319
 2259WAT     H1 7019   7.971   5.703   0.385
 2259WAT     H2 7020   7.994   5.545   0.353
 2260WAT      O 7021   7.029   8.134   1.483
 2260WAT     H1 7022   7.041   8.066   1.410
 2260WAT     H2 7023   6.961   8.201   1.454
 2261WAT      O 7024   9.288   2.690   5.830
 2261WAT     H1 7025   9.378   2.648   5.837
 2261WAT     H2 7026   9.254   2.713   5.921
 2262WAT      O 7027   5.751   9.603   2.892
 2262WAT     H1 7028   5.720   9.686   2.938
 2262WAT     H2 7029   5.747   9.526   2.956
 2263WAT      O 7030   4.924   7.547   4.346
 2263WAT     H1 7031   5.014   7.505   4.354
 2263WAT     H2 7032   4.909   7.608   4.423
 2264WAT      O 7033   3.715   6.602   3.711
 2264WAT     H1 7034   3.790   6.547   3.675
 2264WAT     H2 7035   3.673   6.654   3.637
 2265WAT      O 7036   3.602   1.466   5.260
 2265WAT     H1 7037   3.582   1.368   5.263
 2265WAT     H2 7038   3.700   1.481   5.268
 2266WAT      O 7039   5.713   7.327   8.141
 2266WAT     H1 7040   5.785   7.391   8.113
 2266WAT     H2 7041   5.735   7.290   8.231
 2267WAT      O 7042   7.820   0.627   8.132
 2267WAT     H1 7043   7.882   0.583   8.197
 2267WAT     H2 7044   7.872   0.688   8.073
 2268WAT      O 7045   1.908   5.261   6.265
 2268WAT     H1 7046   1.946   5.331   6.205
 2268WAT     H2 7047   1.920   5.289   6.361
 2269WAT      O 7048   3.509   2.965   7.789
 2269WAT     H1 7049   3.535   3.057   7.820
 2269WAT     H2 7050   3.587   2.921   7.745
 2270WAT      O 7051   5.450   9.023   4.808
 2270WAT     H1 7052   5.393   9.064   4.737
 2270WAT     H2 7053   5.447   9.080   4.890
 2271WAT      O 7054   0.386   5.535   3.354
 2271WAT     H1 7055   0.301   5.566   3.311
 2271WAT     H2 7056   0.427   5.610   3.405
 2272WAT      O 7057   0.432   5.679   6.316
 2272WAT     H1 7058   0.474   5.692   6.226
 2272WAT     H2 7059   0.443   5.584   6.344
 2273WAT      O 7060   6.312   7.250   0.209
 2273WAT     H1 7061   6.314   7.195   0.292
 2273WAT     H2 7062   6.218   7.253   0.174
 2274WAT      O 7063   0.663   1.056   9.684
 2274WAT     H1 7064   0.681   1.155   9.688
 2274WAT     H2 7065   0.695   1.020   9.597
 2275WAT      O 7066   3.981   9.003   2.644
 2275WAT     H1 7067   4.049   9.016   2.717
 2275WAT     H2 7068   3.942   8.912   2.651
 2276WAT      O 7069   1.227   2.335   1.901
 2276WAT     H1 7070   1.225   2.432   1.924
 2276WAT     H2 7071   1.227   2.323   1.802
 2277WAT      O 7072   5.036   9.480   9.026
 2277WAT     H1 7073   5.110   9.478   9.094
 2277WAT     H2 7074   5.038   9.568   8.978
 2278WAT      O 7075   5.103   9.705   6.986
 2278WAT     H1 7076   5.084   9.753   7.071
 2278WAT     H2 7077   5.053   9.749   6.911
 2279WAT      O 7078   8.063   4.981   8.971
 2279WAT     H1 7079   7.978   4.944   9.007
 2279WAT     H2 7080   8.045   5.029   8.885
 2280WAT      O 7081   8.699   1.516   1.208
 2280WAT     H1 7082   8.782   1.505   1.263
 2280WAT     H2 7083   8.626   1.460   1.246
 2281WAT      O 7084   7.751   3.517   6.121
 2281WAT     H1 7085   7.744   3.580   6.043
 2281WAT     H2 7086   7.680   3.539   6.188
 2282WAT      O 7087   3.009   9.526   5.465
 2282WAT     H1 7088   3.024   9.525   5.366
 2282WAT     H2 7089   3.094   9.503   5.512
 2283WAT      O 7090   2.049   7.177   0.264
 2283WAT     H1 7091   1.961   7.150   0.224
 2283WAT     H2 7092   2.042   7.269   0.300
 2284WAT      O 7093   0.656   1.456   1.906
 2284WAT     H1 7094   0.684   1.370   1.864
 2284WAT     H2 7095   0.556   1.460   1.909
 2285WAT      O 7096   2.059   1.720   3.145
 2285WAT     H1 7097   1.985   1.658   3.173
 2285WAT     H2 7098   2.053   1.735   3.046
 2286WAT      O 7099   0.649   9.022   7.683
 2286WAT     H1 7100   0.553   9.040   7.662
 2286WAT     H2 7101   0.669   9.049   7.777
 2287WAT      O 7102   6.226   9.017   5.936
 2287WAT     H1 7103   6.140   8.977   5.905
 2287WAT     H2 7104   6.247   9.098   5.882
 2288WAT      O 7105   3.844   4.414   7.024
 2288WAT     H1 7106   3.894   4.328   7.014
 2288WAT     H2 7107   3.874   4.460   7.108
 2289WAT      O 7108   6.391   4.744   9.713
 2289WAT     H1 7109   6.478   4.734   9.759
 2289WAT     H2 7110   6.360   4.654   9.680
 2290WAT      O 7111   2.915   5.580   6.748
 2290WAT     H1 7112   2.982   5.537   6.687
 2290WAT     H2 7113   2.936   5.558   6.843
 2291WAT      O 7114   3.396   8.032   6.807
 2291WAT     H1 7115   3.315   7.982   6.836
 2291WAT     H2 7116   3.468   8.021   6.875
 2292WAT      O 7117   0.543   1.334   3.355
 2292WAT     H1 7118   0.466   1.387   3.319
 2292WAT     H2 7119   0.549   1.247   3.305
 2293WAT      O 7120   4.435   1.908   6.335
 2293WAT     H1 7121   4.373   1.987   6.329
 2293WAT     H2 7122   4.411   1.852   6.414
 2294WAT      O 7123   7.045   6.524   3.727
 2294WAT     H1 7124   7.144   6.542   3.729
 2294WAT     H2 7125   7.004   6.556   3.812
 2295WAT      O 7126   3.201   3.929   4.373
 2295WAT     H1 7127   3.229   4.025   4.375
 2295WAT     H2 7128   3.131   3.912   4.442
 2296WAT      O 7129   9.481   3.721   2.151
 2296WAT     H1 7130   9.579   3.737   2.142
 2296WAT     H2 7131   9.458   3.703   2.246
 2297WAT      O 7132   4.597   1.850   4.152
 2297WAT     H1 7133   4.627   1.939   4.116
 2297WAT     H2 7134   4.592   1.784   4.077
 2298WAT      O 7135   2.995   2.505   3.076
 2298WAT     H1 7136   2.989   2.547   2.985
 2298WAT     H2 7137   2.928   2.546   3.137
 2299WAT      O 7138   8.954   5.475   8.509
 2299WAT     H1 7139   8.902   5.392   8.491
 2299WAT     H2 7140   9.005   5.501   8.426
 2300WAT      O 7141   7.374   0.627   0.548
 2300WAT     H1 7142   7.471   0.632   0.572
 2300WAT     H2 7143   7.332   0.550   0.596
 2301WAT      O 7144   6.062   4.265   1.728
 2301WAT     H1 7145   6.024   4.256   1.820
 2301WAT     H2 7146   5.994   4.307   1.668
 2302WAT      O 7147   8.812   9.245   2.239
 2302WAT     H1 7148   8.907   9.218   2.254
 2302WAT     H2 7149   8.760   9.166   2.207
 2303WAT      O 7150   5.349   1.085   2.146
 2303WAT     H1 7151   5.381   1.131   2.229
 2303WAT     H2 7152   5.302   1.151   2.088
 2304WAT      O 7153   7.374   0.151   4.040
 2304WAT     H1 7154   7.431   0.155   4.122
 2304WAT     H2 7155   7.405   0.076   3.981
 2305WAT      O 7156   5.842   8.135   6.985
 2305WAT     H1 7157   5.929   8.144   6.937
 2305WAT     H2 7158   5.829   8.039   7.012
 2306WAT      O 7159   5.444   3.745   6.999
 2306WAT     H1 7160   5.492   3.664   7.035
 2306WAT     H2 7161   5.502   3.790   6.931
 2307WAT      O 7162   7.785   6.675   3.804
 2307WAT     H1 7163   7.856   6.666   3.873
 2307WAT     H2 7164   7.766   6.586   3.763
 2308WAT      O 7165   2.770   6.012   6.706
 2308WAT     H1 7166   2.721   5.927   6.725
 2308WAT     H2 7167   2.868   5.994   6.703
 2309WAT      O 7168   1.065   4.554   5.431
 2309WAT     H1 7169   1.160   4.576   5.408
 2309WAT     H2 7170   1.010   4.554   5.348
 2310WAT      O 7171   5.412   2.714   0.752
 2310WAT     H1 7172   5.482   2.642   0.758
 2310WAT     H2 7173   5.342   2.687   0.686
 2311WAT      O 7174   4.581   1.872   8.580
 2311WAT     H1 7175   4.521   1.942   8.619
 2311WAT     H2 7176   4.529   1.812   8.520
 2312WAT      O 7177   7.989   1.195   8.605
 2312WAT     H1 7178   8.003   1.169   8.510
 2312WAT     H2 7179   8.057   1.150   8.663
 2313WAT      O 7180   1.451   4.265   6.810
 2313WAT     H1 7181   1.356   4.255   6.783
 2313WAT     H2 7182   1.465   4.223   6.900
 2314WAT      O 7183   6.286   8.020   3.230
 2314WAT     H1 7184   6.211   7.968   3.272
 2314WAT     H2 7185   6.362   7.957   3.209
 2315WAT      O 7186   5.536   4.767   7.767
 2315WAT     H1 7187   5.600   4.697   7.737
 2315WAT     H2 7188   5.549   4.785   7.865
 2316WAT      O 7189   5.367   4.951   6.543
 2316WAT     H1 7190   5.413   5.012   6.478
 2316WAT     H2 7191   5.276   4.987   6.564
 2317WAT      O 7192   6.255   9.562   2.180
 2317WAT     H1 7193   6.291   9.591   2.268
 2317WAT     H2 7194   6.314   9.596   2.107
 2318WAT      O 7195   0.212   5.979   2.445
 2318WAT     H1 7196   0.238   5.887   2.418
 2318WAT     H2 7197   0.181   5.978   2.541
 2319WAT      O 7198   6.845   6.554   1.559
 2319WAT     H1 7199   6.906   6.606   1.500
 2319WAT     H2 7200   6.815   6.471   1.512
 2320WAT      O 7201   4.208   9.024   1.564
 2320WAT     H1 7202   4.171   9.115   1.585
 2320WAT     H2 7203   4.158   8.955   1.617
 2321WAT      O 7204   6.766   5.247   3.152
 2321WAT     H1 7205   6.785   5.207   3.241
 2321WAT     H2 7206   6.667   5.259   3.141
 2322WAT      O 7207   8.131   5.776   7.779
 2322WAT     H1 7208   8.141   5.861   7.830
 2322WAT     H2 7209   8.216   5.756   7.730
 2323WAT      O 7210   3.782   3.549   2.626
 2323WAT     H1 7211   3.802   3.451   2.638
 2323WAT     H2 7212   3.819   3.580   2.538
 2324WAT      O 7213   3.238   1.678   5.251
 2324WAT     H1 7214   3.186   1.727   5.180
 2324WAT     H2 7215   3.277   1.745   5.315
 2325WAT      O 7216   5.146   2.901   9.762
 2325WAT     H1 7217   5.065   2.919   9.707
 2325WAT     H2 7218   5.150   2.966   9.837
 2326WAT      O 7219   3.715   5.701   3.151
 2326WAT     H1 7220   3.815   5.699   3.151
 2326WAT     H2 7221   3.680   5.609   3.130
 2327WAT      O 7222   4.463   3.689   5.877
 2327WAT     H1 7223   4.559   3.661   5.888
 2327WAT     H2 7224   4.452   3.731   5.787
 2328WAT      O 7225   0.300   6.665   2.360
 2328WAT     H1 7226   0.370   6.616   2.307
 2328WAT     H2 7227   0.231   6.601   2.392
 2329WAT      O 7228   0.424   4.930   9.176
 2329WAT     H1 7229   0.470   4.962   9.260
 2329WAT     H2 7230   0.366   5.003   9.140
 2330WAT      O 7231   5.869   7.454   3.505
 2330WAT     H1 7232   5.904   7.492   3.420
 2330WAT     H2 7233   5.885   7.355   3.506
 2331WAT      O 7234   0.421   7.963   8.941
 2331WAT     H1 7235   0.478   7.882   8.951
 2331WAT     H2 7236   0.344   7.958   9.004
 2332WAT      O 7237   5.030   6.104   8.048
 2332WAT     H1 7238   5.077   6.064   7.969
 2332WAT     H2 7239   5.035   6.041   8.125
 2333WAT      O 7240   3.212   9.204   7.973
 2333WAT     H1 7241   3.162   9.132   8.019
 2333WAT     H2 7242   3.280   9.243   8.035
 2334WAT      O 7243   0.984   2.557   2.647
 2334WAT     H1 7244   0.919   2.593   2.580
 2334WAT     H2 7245   1.064   2.520   2.600
 2335WAT      O 7246   3.167   5.442   0.685
 2335WAT     H1 7247   3.167   5.473   0.590
 2335WAT     H2 7248   3.203   5.348   0.689
 2336WAT      O 7249   8.476   2.141   7.311
 2336WAT     H1 7250   8.400   2.165   7.251
 2336WAT     H2 7251   8.561   2.138   7.258
 2337WAT      O 7252   3.802   3.434   7.413
 2337WAT     H1 7253   3.888   3.469   7.452
 2337WAT     H2 7254   3.815   3.420   7.315
 2338WAT      O 7255   4.606   8.746   6.816
 2338WAT     H1 7256   4.512   8.736   6.782
 2338WAT     H2 7257   4.655   8.659   6.803
 2339WAT      O 7258   6.222   3.531   0.282
 2339WAT     H1 7259   6.132   3.529   0.238
 2339WAT     H2 7260   6.282   3.593   0.232
 2340WAT      O 7261   7.034   7.959   4.854
 2340WAT     H1 7262   6.955   7.914   4.812
 2340WAT     H2 7263   7.073   7.899   4.923
 2341WAT      O 7264   7.508   3.658   5.690
 2341WAT     H1 7265   7.562   3.723   5.636
 2341WAT     H2 7266   7.535   3.565   5.667
 2342WAT      O 7267   6.128   8.611   9.169
 2342WAT     H1 7268   6.179   8.684   9.215
 2342WAT     H2 7269   6.150   8.523   9.211
 2343WAT      O 7270   4.948   3.611   1.578
 2343WAT     H1 7271   5.000   3.640   1.658
 2343WAT     H2 7272   4.904   3.523   1.598
 2344WAT      O 7273   0.987   2.882   4.886
 2344WAT     H1 7274   1.029   2.940   4.816
 2344WAT     H2 7275   1.000   2.923   4.976
 2345WAT      O 7276   8.133   1.486   7.808
 2345WAT     H1 7277   8.093   1.396   7.826
 2345WAT     H2 7278   8.063   1.547   7.771
 2346WAT      O 7279   4.149   9.132   3.581
 2346WAT     H1 7280   4.132   9.051   3.525
 2346WAT     H2 7281   4.078   9.200   3.563
 2347WAT      O 7282   8.821   6.977   3.215
 2347WAT     H1 7283   8.803   7.058   3.269
 2347WAT     H2 7284   8.800   6.895   3.269
 2348WAT      O 7285   6.305   0.320   1.554
 2348WAT     H1 7286   6.307   0.409   1.602
 2348WAT     H2 7287   6.398   0.288   1.540
 2349WAT      O 7288   8.457   2.498   2.054
 2349WAT     H1 7289   8.358   2.498   2.038
 2349WAT     H2 7290   8.475   2.469   2.148
 2350WAT      O 7291   1.370   7.425   1.456
 2350WAT     H1 7292   1.298   7.481   1.496
 2350WAT     H2 7293   1.437   7.485   1.411
 2351WAT      O 7294   0.739   0.843   3.937
 2351WAT     H1 7295   0.640   0.854   3.947
 2351WAT     H2 7296   0.777   0.808   4.022
 2352WAT      O 7297   7.670   1.122   8.199
 2352WAT     H1 7298   7.671   1.221   8.187
 2352WAT     H2 7299   7.671   1.100   8.297
 2353WAT      O 7300   7.353   0.469   3.540
 2353WAT     H1 7301   7.291   0.539   3.506
 2353WAT     H2 7302   7.366   0.481   3.639
 2354WAT      O 7303   0.609   3.390   9.762
 2354WAT     H1 7304   0.558   3.469   9.728
 2354WAT     H2 7305   0.698   3.386   9.716
 2355WAT      O 7306   6.307   8.929   7.947
 2355WAT     H1 7307   6.337   9.014   7.902
 2355WAT     H2 7308   6.232   8.888   7.894
 2356WAT      O 7309   4.486   8.869   0.900
 2356WAT     H1 7310   4.536   8.833   0.820
 2356WAT     H2 7311   4.400   8.909   0.870
 2357WAT      O 7312   3.397   6.590   7.547
 2357WAT     H1 7313   3.337   6.530   7.494
 2357WAT     H2 7314   3.386   6.571   7.645
 2358WAT      O 7315   5.867   8.618   4.120
 2358WAT     H1 7316   5.949   8.572   4.088
 2358WAT     H2 7317   5.792   8.552   4.127
 2359WAT      O 7318   7.308   9.418   0.871
 2359WAT     H1 7319   7.316   9.403   0.773
 2359WAT     H2 7320   7.316   9.330   0.919
 2360WAT      O 7321   7.196   9.477   8.505
 2360WAT     H1 7322   7.196   9.515   8.412
 2360WAT     H2 7323   7.288   9.485   8.544
 2361WAT      O 7324   4.227   1.535   5.811
 2361WAT     H1 7325   4.299   1.499   5.870
 2361WAT     H2 7326   4.143   1.483   5.824
 2362WAT      O 7327   2.994   2.614   2.829
 2362WAT     H1 7328   3.059   2.634   2.757
 2362WAT     H2 7329   2.941   2.696   2.851
 2363WAT      O 7330   8.312   9.741   3.581
 2363WAT     H1 7331   8.236   9.749   3.517
 2363WAT     H2 7332   8.336   9.645   3.594
 2364WAT      O 7333   7.864   0.109   2.799
 2364WAT     H1 7334   7.783   0.072   2.845
 2364WAT     H2 7335   7.943   0.050   2.817
 2365WAT      O 7336   8.949   5.276   2.231
 2365WAT     H1 7337   8.853   5.304   2.237
 2365WAT     H2 7338   8.962   5.190   2.281
 2366WAT      O 7339   2.091   5.824   3.899
 2366WAT     H1 7340   2.135   5.743   3.938
 2366WAT     H2 7341   2.128   5.841   3.808
 2367WAT      O 7342   3.420   9.586   4.763
 2367WAT     H1 7343   3.493   9.621   4.822
 2367WAT     H2 7344   3.460   9.542   4.683
 2368WAT      O 7345   4.636   6.893   4.048
 2368WAT     H1 7346   4.728   6.932   4.038
 2368WAT     H2 7347   4.640   6.815   4.111
 2369WAT      O 7348   7.678   3.959   8.485
 2369WAT     H1 7349   7.622   4.041   8.475
 2369WAT     H2 7350   7.619   3.878   8.484
 2370WAT      O 7351   0.143   5.740   4.412
 2370WAT     H1 7352   0.134   5.833   4.447
 2370WAT     H2 7353   0.073   5.724   4.342
 2371WAT      O 7354   2.850   5.681   5.486
 2371WAT     H1 7355   2.906   5.617   5.539
 2371WAT     H2 7356   2.898   5.705   5.402
 2372WAT      O 7357   4.355   9.730   4.066
 2372WAT     H1 7358   4.310   9.725   4.155
 2372WAT     H2 7359   4.287   9.725   3.993
 2373WAT      O 7360   7.253   6.767   2.420
 2373WAT     H1 7361   7.258   6.667   2.412
 2373WAT     H2 7362   7.277   6.808   2.332
 2374WAT      O 7363   6.767   6.526   5.092
 2374WAT     H1 7364   6.712   6.539   5.174
 2374WAT     H2 7365   6.863   6.512   5.118
 2375WAT      O 7366   7.239   6.728   7.859
 2375WAT     H1 7367   7.278   6.819   7.870
 2375WAT     H2 7368   7.255   6.696   7.766
 2376WAT      O 7369   8.261   4.676   5.973
 2376WAT     H1 7370   8.213   4.760   6.000
 2376WAT     H2 7371   8.356   4.682   6.003
 2377WAT      O 7372   4.596   7.687   0.975
 2377WAT     H1 7373   4.538   7.606   0.966
 2377WAT     H2 7374   4.551   7.753   1.035
 2378WAT      O 7375   6.904   4.050   0.810
 2378WAT     H1 7376   6.900   4.055   0.710
 2378WAT     H2 7377   6.877   3.959   0.840
 2379WAT      O 7378   7.681   8.176   5.713
 2379WAT     H1 7379   7.615   8.145   5.781
 2379WAT     H2 7380   7.635   8.230   5.643
 2380WAT      O 7381   6.042   1.198   5.603
 2380WAT     H1 7382   6.044   1.148   5.690
 2380WAT     H2 7383   6.124   1.255   5.597
 2381WAT      O 7384   2.563   6.602   8.600
 2381WAT     H1 7385   2.513   6.525   8.641
 2381WAT     H2 7386   2.635   6.632   8.662
 2382WAT      O 7387   7.477   0.019   2.764
 2382WAT     H1 7388   7.466   0.111   2.801
 2382WAT     H2 7389   7.397  -0.036   2.787
 2383WAT      O 7390   2.467   3.915   4.393
 2383WAT     H1 7391   2.378   3.869   4.400
 2383WAT     H2 7392   2.524   3.867   4.327
 2384WAT      O 7393   1.647   9.427   2.404
 2384WAT     H1 7394   1.728   9.377   2.434
 2384WAT     H2 7395   1.605   9.473   2.482
 2385WAT      O 7396   0.269   5.449   7.344
 2385WAT     H1 7397   0.358   5.404   7.339
 2385WAT     H2 7398   0.217   5.429   7.260
 2386WAT      O 7399   6.122   2.455   4.081
 2386WAT     H1 7400   6.029   2.420   4.089
 2386WAT     H2 7401   6.170   2.404   4.009
 2387WAT      O 7402   8.304   7.343   4.128
 2387WAT     H1 7403   8.252   7.258   4.130
 2387WAT     H2 7404   8.246   7.419   4.158
 2388WAT      O 7405   4.393   6.716   1.366
 2388WAT     H1 7406   4.436   6.783   1.306
 2388WAT     H2 7407   4.311   6.755   1.408
 2389WAT      O 7408   2.460   6.528   8.960
 2389WAT     H1 7409   2.411   6.614   8.976
 2389WAT     H2 7410   2.544   6.528   9.013
 2390WAT      O 7411   0.742   9.211   7.917
 2390WAT     H1 7412   0.743   9.289   7.854
 2390WAT     H2 7413   0.666   9.220   7.980
 2391WAT      O 7414   9.768   2.165   6.409
 2391WAT     H1 7415   9.732   2.218   6.486
 2391WAT     H2 7416   9.812   2.228   6.344
 2392WAT      O 7417   7.372   6.727   9.772
 2392WAT     H1 7418   7.282   6.700   9.738
 2392WAT     H2 7419   7.443   6.684   9.716
 2393WAT      O 7420   4.883   9.542   2.123
 2393WAT     H1 7421   4.936   9.593   2.191
 2393WAT     H2 7422   4.939   9.470   2.083
 2394WAT      O 7423   3.977   0.498   5.489
 2394WAT     H1 7424   4.049   0.429   5.478
 2394WAT     H2 7425   3.936   0.489   5.580
 2395WAT      O 7426   6.356   0.140   7.308
 2395WAT     H1 7427   6.442   0.187   7.331
 2395WAT     H2 7428   6.284   0.208   7.295
 2396WAT      O 7429   8.640   1.983   0.937
 2396WAT     H1 7430   8.694   1.937   0.867
 2396WAT     H2 7431   8.660   1.943   1.026
 2397WAT      O 7432   6.125   5.281   2.943
 2397WAT     H1 7433   6.175   5.354   2.990
 2397WAT     H2 7434   6.036   5.315   2.913
 2398WAT      O 7435   4.079   3.491   4.014
 2398WAT     H1 7436   4.002   3.523   4.069
 2398WAT     H2 7437   4.097   3.556   3.939
 2399WAT      O 7438   5.763   8.140   6.547
 2399WAT     H1 7439   5.708   8.159   6.628
 2399WAT     H2 7440   5.704   8.137   6.466
 2400WAT      O 7441   9.763   2.033   9.514
 2400WAT     H1 7442   9.793   2.010   9.606
 2400WAT     H2 7443   9.745   1.950   9.462
 2401WAT      O 7444   8.005   2.460   6.173
 2401WAT     H1 7445   8.076   2.493   6.235
 2401WAT     H2 7446   7.947   2.394   6.221
 2402WAT      O 7447   7.777   2.369   2.050
 2402WAT     H1 7448   7.774   2.293   1.985
 2402WAT     H2 7449   7.707   2.436   2.026
 2403WAT      O 7450   0.145   7.863   7.813
 2403WAT     H1 7451   0.168   7.834   7.720
 2403WAT     H2 7452   0.061   7.818   7.842
 2404WAT      O 7453   0.860   7.795   5.372
 2404WAT     H1 7454   0.959   7.810   5.369
 2404WAT     H2 7455   0.814   7.867   5.319
 2405WAT      O 7456   8.426   9.402   0.663
 2405WAT     H1 7457   8.480   9.425   0.582
 2405WAT     H2 7458   8.421   9.303   0.674
 2406WAT      O 7459   4.562   9.318   4.707
 2406WAT     H1 7460   4.634   9.297   4.641
 2406WAT     H2 7461   4.581   9.270   4.793
 2407WAT      O 7462   2.064   4.014   1.566
 2407WAT     H1 7463   2.156   4.024   1.530
 2407WAT     H2 7464   2.016   4.103   1.561
 2408WAT      O 7465   0.512   2.721   7.009
 2408WAT     H1 7466   0.512   2.694   7.105
 2408WAT     H2 7467   0.418   2.718   6.973
 2409WAT      O 7468   5.115   7.851   3.447
 2409WAT     H1 7469   5.152   7.941   3.424
 2409WAT     H2 7470   5.088   7.803   3.364
 2410WAT      O 7471   4.545   8.731   9.756
 2410WAT     H1 7472   4.452   8.713   9.788
 2410WAT     H2 7473   4.606   8.658   9.789
 2411WAT      O 7474   8.563   8.678   9.203
 2411WAT     H1 7475   8.635   8.746   9.200
 2411WAT     H2 7476   8.561   8.636   9.294
 2412WAT      O 7477   1.727   9.000   5.461
 2412WAT     H1 7478   1.690   8.909   5.439
 2412WAT     H2 7479   1.657   9.069   5.443
 2413WAT      O 7480   9.341   0.436   3.767
 2413WAT     H1 7481   9.264   0.383   3.731
 2413WAT     H2 7482   9.320   0.467   3.860
 2414WAT      O 7483   2.903   4.336   1.462
 2414WAT     H1 7484   2.871   4.387   1.542
 2414WAT     H2 7485   2.907   4.238   1.484
 2415WAT      O 7486   9.446   3.778   3.038
 2415WAT     H1 7487   9.498   3.792   3.122
 2415WAT     H2 7488   9.353   3.814   3.050
 2416WAT      O 7489   3.194   4.670   2.603
 2416WAT     H1 7490   3.263   4.635   2.540
 2416WAT     H2 7491   3.222   4.650   2.697
 2417WAT      O 7492   7.477   2.274   3.124
 2417WAT     H1 7493   7.464   2.359   3.175
 2417WAT     H2 7494   7.493   2.296   3.028
 2418WAT      O 7495   3.501   0.425   0.790
 2418WAT     H1 7496   3.517   0.430   0.692
 2418WAT     H2 7497   3.409   0.388   0.807
 2419WAT      O 7498   1.163   4.860   6.305
 2419WAT     H1 7499   1.142   4.936   6.244
 2419WAT     H2 7500   1.242   4.883   6.362
 2420WAT      O 7501   3.117   1.781   8.057
 2420WAT     H1 7502   3.112   1.712   8.129
 2420WAT     H2 7503   3.118   1.736   7.967
 2421WAT      O 7504   5.108   6.794   3.236
 2421WAT     H1 7505   5.163   6.790   3.319
 2421WAT     H2 7506   5.068   6.885   3.226
 2422WAT      O 7507   9.657   4.060   7.418
 2422WAT     H1 7508   9.704   4.018   7.340
 2422WAT     H2 7509   9.581   4.001   7.447
 2423WAT      O 7510   8.104   0.717   0.576
 2423WAT     H1 7511   8.168   0.690   0.648
 2423WAT     H2 7512   8.110   0.816   0.561
 2424WAT      O 7513   0.449   1.811   9.084
 2424WAT     H1 7514   0.421   1.727   9.040
 2424WAT     H2 7515   0.502   1.867   9.019
 2425WAT      O 7516   7.072   8.152   8.064
 2425WAT     H1 7517   7.037   8.079   8.005
 2425WAT     H2 7518   7.054   8.240   8.021
 2426WAT      O 7519   2.733   4.108   2.241
 2426WAT     H1 7520   2.747   4.196   2.196
 2426WAT     H2 7521   2.802   4.095   2.312
 2427WAT      O 7522   0.301   3.569   2.541
 2427WAT     H1 7523   0.216   3.542   2.586
 2427WAT     H2 7524   0.300   3.668   2.525
 2428WAT      O 7525   1.142   2.186   7.309
 2428WAT     H1 7526   1.082   2.213   7.234
 2428WAT     H2 7527   1.236   2.177   7.275
 2429WAT      O 7528   3.609   3.609   2.386
 2429WAT     H1 7529   3.516   3.630   2.418
 2429WAT     H2 7530   3.627   3.512   2.400
 2430WAT      O 7531   9.729   7.692   3.396
 2430WAT     H1 7532   9.801   7.645   3.344
 2430WAT     H2 7533   9.713   7.782   3.356
 2431WAT      O 7534   9.163   5.006   0.483
 2431WAT     H1 7535   9.071   5.043   0.475
 2431WAT     H2 7536   9.159   4.906   0.485
 2432WAT      O 7537   3.150   1.731   1.672
 2432WAT     H1 7538   3.142   1.782   1.758
 2432WAT     H2 7539   3.158   1.634   1.691
 2433WAT      O 7540   6.149   1.016   0.333
 2433WAT     H1 7541   6.111   0.925   0.350
 2433WAT     H2 7542   6.074   1.082   0.328
 2434WAT      O 7543   1.934   7.447   7.599
 2434WAT     H1 7544   1.963   7.372   7.658
 2434WAT     H2 7545   1.869   7.505   7.648
 2435WAT      O 7546   1.647   3.493   1.059
 2435WAT     H1 7547   1.615   3.493   0.964
 2435WAT     H2 7548   1.707   3.414   1.074
 2436WAT      O 7549   8.613   8.745   2.729
 2436WAT     H1 7550   8.676   8.668   2.717
 2436WAT     H2 7551   8.519   8.711   2.735
 2437WAT      O 7552   0.470   6.395   0.208
 2437WAT     H1 7553   0.547   6.331   0.205
 2437WAT     H2 7554   0.402   6.362   0.273
 2438WAT      O 7555   4.097   6.771   0.844
 2438WAT     H1 7556   4.020   6.768   0.781
 2438WAT     H2 7557   4.182   6.775   0.793
 2439WAT      O 7558   7.658   5.653   1.111
 2439WAT     H1 7559   7.612   5.650   1.022
 2439WAT     H2 7560   7.712   5.570   1.123
 2440WAT      O 7561   2.095   7.501   2.276
 2440WAT     H1 7562   2.010   7.462   2.242
 2440WAT     H2 7563   2.167   7.431   2.275
 2441WAT      O 7564   4.435   0.062   0.830
 2441WAT     H1 7565   4.515   0.006   0.849
 2441WAT     H2 7566   4.421   0.127   0.904
 2442WAT      O 7567   7.041   1.440   6.902
 2442WAT     H1 7568   7.006   1.495   6.827
 2442WAT     H2 7569   7.040   1.494   6.986
 2443WAT      O 7570   4.826   6.543   8.650
 2443WAT     H1 7571   4.872   6.480   8.588
 2443WAT     H2 7572   4.889   6.569   8.723
 2444WAT      O 7573   9.488   3.973   5.938
 2444WAT     H1 7574   9.417   3.939   5.876
 2444WAT     H2 7575   9.528   3.895   5.987
 2445WAT      O 7576   7.546   1.899   1.880
 2445WAT     H1 7577   7.625   1.933   1.830
 2445WAT     H2 7578   7.507   1.820   1.832
 2446WAT      O 7579   8.581   8.810   7.881
 2446WAT     H1 7580   8.553   8.723   7.839
 2446WAT     H2 7581   8.680   8.816   7.881
 2447WAT      O 7582   8.916   0.893   5.335
 2447WAT     H1 7583   8.870   0.955   5.398
 2447WAT     H2 7584   8.851   0.860   5.266
 2448WAT      O 7585   4.630   8.214   3.604
 2448WAT     H1 7586   4.643   8.232   3.701
 2448WAT     H2 7587   4.710   8.168   3.567
 2449WAT      O 7588   2.452   3.460   1.476
 2449WAT     H1 7589   2.537   3.458   1.423
 2449WAT     H2 7590   2.407   3.371   1.469
 2450WAT      O 7591   2.124   1.595   7.740
 2450WAT     H1 7592   2.200   1.620   7.799
 2450WAT     H2 7593   2.075   1.517   7.780
 2451WAT      O 7594   8.245   5.583   9.077
 2451WAT     H1 7595   8.244   5.679   9.105
 2451WAT     H2 7596   8.300   5.573   8.994
 2452WAT      O 7597   4.473   3.128   8.824
 2452WAT     H1 7598   4.488   3.074   8.907
 2452WAT     H2 7599   4.514   3.081   8.746
 2453WAT      O 7600   8.708   5.676   8.359
 2453WAT     H1 7601   8.634   5.621   8.320
 2453WAT     H2 7602   8.720   5.652   8.456
 2454WAT      O 7603   2.806   6.316   3.444
 2454WAT     H1 7604   2.786   6.273   3.532
 2454WAT     H2 7605   2.891   6.279   3.407
 2455WAT      O 7606   9.223   8.324   5.636
 2455WAT     H1 7607   9.124   8.336   5.626
 2455WAT     H2 7608   9.250   8.346   5.730
 2456WAT      O 7609   3.967   2.903   9.040
 2456WAT     H1 7610   3.902   2.827   9.040
 2456WAT     H2 7611   3.921   2.986   9.072
 2457WAT      O 7612   2.123   9.681   1.373
 2457WAT     H1 7613   2.160   9.590   1.356
 2457WAT     H2 7614   2.137   9.739   1.293
 2458WAT      O 7615   6.838   9.744   6.855
 2458WAT     H1 7616   6.836   9.658   6.906
 2458WAT     H2 7617   6.755   9.751   6.799
 2459WAT      O 7618   1.332   6.637   1.853
 2459WAT     H1 7619   1.262   6.707   1.861
 2459WAT     H2 7620   1.299   6.551   1.893
 2460WAT      O 7621   3.553   7.430   3.561
 2460WAT     H1 7622   3.463   7.431   3.516
 2460WAT     H2 7623   3.575   7.337   3.589
 2461WAT      O 7624   7.928   1.079   3.829
 2461WAT     H1 7625   7.863   1.104   3.902
 2461WAT     H2 7626   7.997   1.151   3.821
 2462WAT      O 7627   6.693   4.854   7.691
 2462WAT     H1 7628   6.739   4.857   7.602
 2462WAT     H2 7629   6.720   4.772   7.741
 2463WAT      O 7630   5.040   8.971   0.960
 2463WAT     H1 7631   5.001   9.058   0.988
 2463WAT     H2 7632   5.072   8.977   0.866
 2464WAT      O 7633   7.032   9.244   9.443
 2464WAT     H1 7634   6.958   9.274   9.383
 2464WAT     H2 7635   6.997   9.180   9.511
 2465WAT      O 7636   3.066   4.958   4.603
 2465WAT     H1 7637   2.971   4.945   4.573
 2465WAT     H2 7638   3.127   4.906   4.544
 2466WAT      O 7639   0.031   2.271   9.459
 2466WAT     H1 7640   0.099   2.273   9.533
 2466WAT     H2 7641  -0.038   2.202   9.479
 2467WAT      O 7642   3.428   2.275   1.125
 2467WAT     H1 7643   3.413   2.372   1.145
 2467WAT     H2 7644   3.346   2.223   1.149
 2468WAT      O 7645   4.620   7.112   1.548
 2468WAT     H1 7646   4.717   7.113   1.574
 2468WAT     H2 7647   4.572   7.040   1.598
 2469WAT      O 7648   1.458   0.306   9.249
 2469WAT     H1 7649   1.404   0.367   9.306
 2469WAT     H2 7650   1.554   0.334   9.251
 2470WAT      O 7651   7.314   1.826   8.452
 2470WAT     H1 7652   7.256   1.872   8.519
 2470WAT     H2 7653   7.268   1.822   8.364
 2471WAT      O 7654   9.291   8.762   4.430
 2471WAT     H1 7655   9.300   8.689   4.362
 2471WAT     H2 7656   9.293   8.721   4.522
 2472WAT      O 7657   3.586   4.495   2.064
 2472WAT     H1 7658   3.640   4.410   2.060
 2472WAT     H2 7659   3.624   4.555   2.134
 2473WAT      O 7660   1.019   8.391   2.289
 2473WAT     H1 7661   0.938   8.375   2.345
 2473WAT     H2 7662   1.000   8.466   2.225
 2474WAT      O 7663   6.084   1.483   4.505
 2474WAT     H1 7664   6.054   1.417   4.573
 2474WAT     H2 7665   6.083   1.441   4.415
 2475WAT      O 7666   1.965   6.218   9.839
 2475WAT     H1 7667   2.027   6.285   9.879
 2475WAT     H2 7668   1.945   6.146   9.906
 2476WAT      O 7669   1.014   1.286   5.119
 2476WAT     H1 7670   1.075   1.226   5.069
 2476WAT     H2 7671   0.968   1.349   5.056
 2477WAT      O 7672   7.721   3.586   7.663
 2477WAT     H1 7673   7.713   3.671   7.716
 2477WAT     H2 7674   7.656   3.588   7.587
 2478WAT      O 7675   5.928   5.468   1.006
 2478WAT     H1 7676   5.937   5.462   1.106
 2478WAT     H2 7677   6.019   5.462   0.965
 2479WAT      O 7678   8.982   9.376   4.224
 2479WAT     H1 7679   9.035   9.294   4.246
 2479WAT     H2 7680   9.025   9.456   4.266
 2480WAT      O 7681   2.016   2.516   5.699
 2480WAT     H1 7682   1.939   2.548   5.645
 2480WAT     H2 7683   2.033   2.579   5.774
 2481WAT      O 7684   2.443   3.565   4.614
 2481WAT     H1 7685   2.503   3.556   4.534
 2481WAT     H2 7686   2.383   3.485   4.619
 2482WAT      O 7687   3.886   7.078   4.728
 2482WAT     H1 7688   3.912   7.153   4.788
 2482WAT     H2 7689   3.883   6.992   4.780
 2483WAT      O 7690   1.597   0.853   3.951
 2483WAT     H1 7691   1.638   0.878   3.864
 2483WAT     H2 7692   1.666   0.808   4.008
 2484WAT      O 7693   5.447   1.786   0.480
 2484WAT     H1 7694   5.457   1.698   0.528
 2484WAT     H2 7695   5.522   1.847   0.505
 2485WAT      O 7696   3.342   1.231   8.197
 2485WAT     H1 7697   3.267   1.189   8.145
 2485WAT     H2 7698   3.305   1.305   8.253
 2486WAT      O 7699   7.607   4.264   3.368
 2486WAT     H1 7700   7.595   4.260   3.467
 2486WAT     H2 7701   7.674   4.335   3.345
 2487WAT      O 7702   1.941   8.582   3.796
 2487WAT     H1 7703   1.947   8.668   3.846
 2487WAT     H2 7704   2.016   8.521   3.825
 2488WAT      O 7705   8.366   8.220   3.426
 2488WAT     H1 7706   8.439   8.270   3.473
 2488WAT     H2 7707   8.399   8.128   3.403
 2489WAT      O 7708   3.594   6.277   4.988
 2489WAT     H1 7709   3.653   6.285   4.908
 2489WAT     H2 7710   3.522   6.346   4.984
 2490WAT      O 7711   3.895   2.154   6.296
 2490WAT     H1 7712   3.902   2.065   6.342
 2490WAT     H2 7713   3.880   2.140   6.198
 2491WAT      O 7714   4.556   3.375   3.108
 2491WAT     H1 7715   4.652   3.352   3.092
 2491WAT     H2 7716   4.546   3.475   3.108
 2492WAT      O 7717   1.769   5.346   5.417
 2492WAT     H1 7718   1.822   5.431   5.422
 2492WAT     H2 7719   1.681   5.359   5.461
 2493WAT      O 7720   0.941   4.211   3.555
 2493WAT     H1 7721   1.033   4.230   3.521
 2493WAT     H2 7722   0.890   4.296   3.563
 2494WAT      O 7723   8.737   4.063   3.732
 2494WAT     H1 7724   8.820   4.047   3.679
 2494WAT     H2 7725   8.739   4.156   3.770
 2495WAT      O 7726   0.347   6.050   6.445
 2495WAT     H1 7727   0.403   6.120   6.488
 2495WAT     H2 7728   0.260   6.041   6.495
 2496WAT      O 7729   3.510   7.839   6.000
 2496WAT     H1 7730   3.477   7.904   6.068
 2496WAT     H2 7731   3.593   7.875   5.957
 2497WAT      O 7732   8.315   4.587   6.969
 2497WAT     H1 7733   8.347   4.493   6.981
 2497WAT     H2 7734   8.235   4.602   7.026
 2498WAT      O 7735   2.143   1.417   9.495
 2498WAT     H1 7736   2.174   1.462   9.579
 2498WAT     H2 7737   2.054   1.373   9.512
 2499WAT      O 7738   3.882   7.168   9.879
 2499WAT     H1 7739   3.915   7.083   9.919
 2499WAT     H2 7740   3.942   7.196   9.804
 2500WAT      O 7741   0.620   3.136   1.798
 2500WAT     H1 7742   0.570   3.130   1.711
 2500WAT     H2 7743   0.564   3.099   1.872
 2501WAT      O 7744   0.804   8.245   0.036
 2501WAT     H1 7745   0.793   8.238  -0.063
 2501WAT     H2 7746   0.725   8.205   0.081
 2502WAT      O 7747   0.435   9.807   4.042
 2502WAT     H1 7748   0.418   9.863   4.123
 2502WAT     H2 7749   0.498   9.856   3.981
 2503WAT      O 7750   5.428   8.327   3.642
 2503WAT     H1 7751   5.397   8.337   3.548
 2503WAT     H2 7752   5.385   8.247   3.684
 2504WAT      O 7753   0.783   6.326   1.517
 2504WAT     H1 7754   0.759   6.272   1.436
 2504WAT     H2 7755   0.701   6.370   1.553
 2505WAT      O 7756   4.602   0.949   8.407
 2505WAT     H1 7757   4.678   1.012   8.390
 2505WAT     H2 7758   4.584   0.896   8.325
 2506WAT      O 7759   3.920   7.674   2.290
 2506WAT     H1 7760   4.017   7.681   2.314
 2506WAT     H2 7761   3.911   7.659   2.191
 2507WAT      O 7762   9.853   3.369   7.581
 2507WAT     H1 7763   9.932   3.430   7.575
 2507WAT     H2 7764   9.773   3.422   7.608
 2508WAT      O 7765   1.454   1.430   5.521
 2508WAT     H1 7766   1.402   1.480   5.451
 2508WAT     H2 7767   1.524   1.489   5.559
 2509WAT      O 7768   1.098   7.832   4.308
 2509WAT     H1 7769   1.067   7.853   4.401
 2509WAT     H2 7770   1.185   7.782   4.313
 2510WAT      O 7771   8.497   0.351   6.558
 2510WAT     H1 7772   8.429   0.423   6.575
 2510WAT     H2 7773   8.513   0.301   6.643
 2511WAT      O 7774   7.253   6.417   0.868
 2511WAT     H1 7775   7.296   6.435   0.957
 2511WAT     H2 7776   7.224   6.503   0.827
 2512WAT      O 7777   3.225   4.415   1.539
 2512WAT     H1 7778   3.308   4.459   1.504
 2512WAT     H2 7779   3.145   4.462   1.502
 2513WAT      O 7780   3.460   7.661   9.496
 2513WAT     H1 7781   3.480   7.759   9.505
 2513WAT     H2 7782   3.533   7.616   9.445
 2514WAT      O 7783   1.048   9.653   4.378
 2514WAT     H1 7784   0.968   9.683   4.326
 2514WAT     H2 7785   1.108   9.732   4.395
 2515WAT      O 7786   4.763   1.952   4.364
 2515WAT     H1 7787   4.691   1.920   4.302
 2515WAT     H2 7788   4.833   1.881   4.373
 2516WAT      O 7789   5.392   8.962   1.081
 2516WAT     H1 7790   5.299   8.939   1.051
 2516WAT     H2 7791   5.387   9.013   1.168
 2517WAT      O 7792   9.032   2.496   0.472
 2517WAT     H1 7793   9.094   2.442   0.414
 2517WAT     H2 7794   8.947   2.514   0.422
 2518WAT      O 7795   4.414   0.201   9.027
 2518WAT     H1 7796   4.479   0.211   9.102
 2518WAT     H2 7797   4.368   0.288   9.011
 2519WAT      O 7798   5.192   7.698   3.918
 2519WAT     H1 7799   5.131   7.619   3.910
 2519WAT     H2 7800   5.193   7.748   3.832
 2520WAT      O 7801   6.312   0.731   5.266
 2520WAT     H1 7802   6.269   0.649   5.304
 2520WAT     H2 7803   6.352   0.709   5.177
 2521WAT      O 7804   8.098   4.442   9.508
 2521WAT     H1 7805   8.064   4.351   9.531
 2521WAT     H2 7806   8.079   4.462   9.412
 2522WAT      O 7807   0.561   1.452   4.845
 2522WAT     H1 7808   0.658   1.460   4.824
 2522WAT     H2 7809   0.514   1.535   4.814
 2523WAT      O 7810   1.081   5.566   2.896
 2523WAT     H1 7811   1.048   5.488   2.949
 2523WAT     H2 7812   1.166   5.600   2.937
 2524WAT      O 7813   5.440   0.096   8.158
 2524WAT     H1 7814   5.514   0.033   8.135
 2524WAT     H2 7815   5.370   0.048   8.211
 2525WAT      O 7816   3.780   6.169   8.169
 2525WAT     H1 7817   3.782   6.261   8.208
 2525WAT     H2 7818   3.870   6.126   8.181
 2526WAT      O 7819   8.604   9.678   3.270
 2526WAT     H1 7820   8.641   9.766   3.239
 2526WAT     H2 7821   8.504   9.685   3.277
 2527WAT      O 7822   4.031   8.266   4.609
 2527WAT     H1 7823   3.960   8.285   4.676
 2527WAT     H2 7824   3.989   8.247   4.520
 2528WAT      O 7825   5.202   9.149   7.153
 2528WAT     H1 7826   5.253   9.223   7.110
 2528WAT     H2 7827   5.264   9.071   7.170
 2529WAT      O 7828   6.327   9.822   7.523
 2529WAT     H1 7829   6.235   9.792   7.548
 2529WAT     H2 7830   6.326   9.861   7.430
 2530WAT      O 7831   9.845   9.640   2.555
 2530WAT     H1 7832   9.865   9.592   2.641
 2530WAT     H2 7833   9.809   9.731   2.575
 2531WAT      O 7834   3.102   8.009   2.241
 2531WAT     H1 7835   3.137   8.038   2.331
 2531WAT     H2 7836   3.069   8.089   2.191
 2532WAT      O 7837   5.326   7.644   9.196
 2532WAT     H1 7838   5.356   7.729   9.238
 2532WAT     H2 7839   5.226   7.636   9.205
 2533WAT      O 7840   5.561   6.444   1.689
 2533WAT     H1 7841   5.637   6.471   1.748
 2533WAT     H2 7842   5.483   6.505   1.703
 2534WAT      O 7843   1.639   2.290   3.461
 2534WAT     H1 7844   1.549   2.278   3.418
 2534WAT     H2 7845   1.706   2.316   3.391
 2535WAT      O 7846   1.252   1.058   1.704
 2535WAT     H1 7847   1.340   1.028   1.668
 2535WAT     H2 7848   1.204   0.980   1.746
 2536WAT      O 7849   5.025   7.453   2.106
 2536WAT     H1 7850   5.042   7.470   2.203
 2536WAT     H2 7851   5.063   7.365   2.079
 2537WAT      O 7852   1.172   5.073   9.541
 2537WAT     H1 7853   1.145   5.001   9.477
 2537WAT     H2 7854   1.211   5.033   9.623
 2538WAT      O 7855   2.183   8.799   7.604
 2538WAT     H1 7856   2.249   8.855   7.654
 2538WAT     H2 7857   2.160   8.843   7.518
 2539WAT      O 7858   6.687   5.049   4.374
 2539WAT     H1 7859   6.680   5.052   4.474
 2539WAT     H2 7860   6.662   4.958   4.341
 2540WAT      O 7861   8.136   2.902   6.302
 2540WAT     H1 7862   8.114   2.997   6.281
 2540WAT     H2 7863   8.169   2.895   6.397
 2541WAT      O 7864   1.821   4.545   4.937
 2541WAT     H1 7865   1.844   4.467   4.995
 2541WAT     H2 7866   1.735   4.527   4.889
 2542WAT      O 7867   8.713   5.562   8.966
 2542WAT     H1 7868   8.735   5.506   8.886
 2542WAT     H2 7869   8.772   5.535   9.043
 2543WAT      O 7870   9.359   8.452   1.051
 2543WAT     H1 7871   9.347   8.369   1.106
 2543WAT     H2 7872   9.269   8.491   1.031
 2544WAT      O 7873   7.689   0.567   1.248
 2544WAT     H1 7874   7.693   0.503   1.325
 2544WAT     H2 7875   7.750   0.644   1.266
 2545WAT      O 7876   5.876   2.679   7.575
 2545WAT     H1 7877   5.780   2.654   7.583
 2545WAT     H2 7878   5.932   2.611   7.624
 2546WAT      O 7879   1.794   1.451   7.288
 2546WAT     H1 7880   1.826   1.471   7.380
 2546WAT     H2 7881   1.694   1.454   7.286
 2547WAT      O 7882   4.688   5.025   2.855
 2547WAT     H1 7883   4.639   5.112   2.856
 2547WAT     H2 7884   4.622   4.950   2.863
 2548WAT      O 7885   8.804   8.912   1.922
 2548WAT     H1 7886   8.792   8.928   2.020
 2548WAT     H2 7887   8.855   8.987   1.881
 2549WAT      O 7888   3.433   8.286   3.954
 2549WAT     H1 7889   3.340   8.269   3.923
 2549WAT     H2 7890   3.498   8.239   3.895
 2550WAT      O 7891   9.029   1.409   7.306
 2550WAT     H1 7892   9.088   1.335   7.274
 2550WAT     H2 7893   8.976   1.446   7.230
 2551WAT      O 7894   5.336   4.948   0.125
 2551WAT     H1 7895   5.368   4.947   0.031
 2551WAT     H2 7896   5.375   4.870   0.174
 2552WAT      O 7897   6.343   3.013   8.229
 2552WAT     H1 7898   6.270   2.946   8.214
 2552WAT     H2 7899   6.303   3.104   8.238
 2553WAT      O 7900   6.609   5.857   4.879
 2553WAT     H1 7901   6.533   5.794   4.864
 2553WAT     H2 7902   6.574   5.951   4.882
 2554WAT      O 7903   7.476   2.346   2.327
 2554WAT     H1 7904   7.532   2.276   2.282
 2554WAT     H2 7905   7.392   2.303   2.361
 2555WAT      O 7906   6.184   9.812   2.772
 2555WAT     H1 7907   6.086   9.797   2.756
 2555WAT     H2 7908   6.232   9.810   2.685
 2556WAT      O 7909   5.745   3.847   3.873
 2556WAT     H1 7910   5.807   3.786   3.923
 2556WAT     H2 7911   5.792   3.934   3.854
 2557WAT      O 7912   7.609   8.985   2.289
 2557WAT     H1 7913   7.615   8.896   2.333
 2557WAT     H2 7914   7.533   8.986   2.224
 2558WAT      O 7915   9.699   3.857   0.628
 2558WAT     H1 7916   9.705   3.918   0.548
 2558WAT     H2 7917   9.603   3.836   0.646
 2559WAT      O 7918   6.979   1.726   4.566
 2559WAT     H1 7919   7.029   1.732   4.653
 2559WAT     H2 7920   7.037   1.757   4.491
 2560WAT      O 7921   5.181   8.332   8.423
 2560WAT     H1 7922   5.152   8.423   8.394
 2560WAT     H2 7923   5.281   8.326   8.417
 2561WAT      O 7924   9.145   7.945   8.598
 2561WAT     H1 7925   9.091   7.932   8.681
 2561WAT     H2 7926   9.203   8.025   8.608
 2562WAT      O 7927   3.135   3.337   8.000
 2562WAT     H1 7928   3.151   3.357   8.097
 2562WAT     H2 7929   3.089   3.249   7.992
 2563WAT      O 7930   3.219   2.504   3.477
 2563WAT     H1 7931   3.301   2.454   3.449
 2563WAT     H2 7932   3.138   2.448   3.461
 2564WAT      O 7933   3.273   7.875   8.875
 2564WAT     H1 7934   3.371   7.882   8.856
 2564WAT     H2 7935   3.236   7.794   8.832
 2565WAT      O 7936   5.629   7.251   0.042
 2565WAT     H1 7937   5.694   7.231   0.115
 2565WAT     H2 7938   5.639   7.346   0.013
 2566WAT      O 7939   1.820   1.715   5.370
 2566WAT     H1 7940   1.855   1.790   5.426
 2566WAT     H2 7941   1.892   1.647   5.356
 2567WAT      O 7942   3.318   5.058   4.455
 2567WAT     H1 7943   3.325   5.069   4.554
 2567WAT     H2 7944   3.251   5.123   4.419
 2568WAT      O 7945   8.725   7.905   1.448
 2568WAT     H1 7946   8.763   7.986   1.404
 2568WAT     H2 7947   8.800   7.843   1.475
 2569WAT      O 7948   3.781   0.299   8.219
 2569WAT     H1 7949   3.873   0.271   8.190
 2569WAT     H2 7950   3.744   0.229   8.281
 2570WAT      O 7951   2.634   1.622   1.837
 2570WAT     H1 7952   2.671   1.704   1.791
 2570WAT     H2 7953   2.562   1.649   1.901
 2571WAT      O 7954   3.455   6.708   4.856
 2571WAT     H1 7955   3.477   6.628   4.800
 2571WAT     H2 7956   3.359   6.704   4.883
 2572WAT      O 7957   9.485   9.584   3.437
 2572WAT     H1 7958   9.433   9.667   3.417
 2572WAT     H2 7959   9.443   9.506   3.391
 2573WAT      O 7960   2.143   8.239   6.815
 2573WAT     H1 7961   2.193   8.296   6.879
 2573WAT     H2 7962   2.204   8.207   6.743
 2574WAT      O 7963   8.643   7.355   0.260
 2574WAT     H1 7964   8.623   7.414   0.183
 2574WAT     H2 7965   8.598   7.266   0.247
 2575WAT      O 7966   3.604   2.130   8.752
 2575WAT     H1 7967   3.617   2.212   8.808
 2575WAT     H2 7968   3.596   2.156   8.656
 2576WAT      O 7969   2.769   1.585   3.841
 2576WAT     H1 7970   2.698   1.523   3.808
 2576WAT     H2 7971   2.746   1.679   3.815
 2577WAT      O 7972   8.920   4.334   5.621
 2577WAT     H1 7973   8.926   4.425   5.662
 2577WAT     H2 7974   8.931   4.341   5.522
 2578WAT      O 7975   6.283   3.715   3.819
 2578WAT     H1 7976   6.243   3.654   3.887
 2578WAT     H2 7977   6.309   3.663   3.738
 2579WAT      O 7978   2.709   4.572   0.282
 2579WAT     H1 7979   2.655   4.605   0.205
 2579WAT     H2 7980   2.684   4.623   0.364
 2580WAT      O 7981   6.927   9.395   0.739
 2580WAT     H1 7982   6.952   9.314   0.686
 2580WAT     H2 7983   6.849   9.441   0.697
 2581WAT      O 7984   6.812   5.730   1.195
 2581WAT     H1 7985   6.804   5.630   1.186
 2581WAT     H2 7986   6.905   5.757   1.171
 2582WAT      O 7987   0.220   2.280   7.693
 2582WAT     H1 7988   0.310   2.299   7.653
 2582WAT     H2 7989   0.161   2.359   7.679
 2583WAT      O 7990   9.192   7.013   5.626
 2583WAT     H1 7991   9.122   7.011   5.696
 2583WAT     H2 7992   9.283   7.008   5.668
 2584WAT      O 7993   4.362   6.403   2.054
 2584WAT     H1 7994   4.294   6.468   2.089
 2584WAT     H2 7995   4.414   6.365   2.131
 2585WAT      O 7996   3.406   0.357   9.485
 2585WAT     H1 7997   3.314   0.357   9.525
 2585WAT     H2 7998   3.426   0.447   9.448
 2586WAT      O 7999   8.359   5.703   4.032
 2586WAT     H1 8000   8.287   5.748   4.086
 2586WAT     H2 8001   8.448   5.729   4.067
 2587WAT      O 8002   1.621   3.524   5.386
 2587WAT     H1 8003   1.697   3.516   5.451
 2587WAT     H2 8004   1.547   3.463   5.414
 2588WAT      O 8005   3.721   5.095   1.938
 2588WAT     H1 8006   3.786   5.090   2.014
 2588WAT     H2 8007   3.634   5.053   1.965
 2589WAT      O 8008   5.995   0.776   9.381
 2589WAT     H1 8009   6.067   0.817   9.325
 2589WAT     H2 8010   5.978   0.682   9.350
 2590WAT      O 8011   4.192   8.107   5.212
 2590WAT     H1 8012   4.111   8.096   5.154
 2590WAT     H2 8013   4.163   8.123   5.306
 2591WAT      O 8014   3.541   7.450   7.341
 2591WAT     H1 8015   3.595   7.367   7.350
 2591WAT     H2 8016   3.444   7.429   7.353
 2592WAT      O 8017   6.459   9.713   8.831
 2592WAT     H1 8018   6.498   9.639   8.777
 2592WAT     H2 8019   6.473   9.800   8.784
 2593WAT      O 8020   2.289   7.066   2.134
 2593WAT     H1 8021   2.198   7.027   2.145
 2593WAT     H2 8022   2.352   6.995   2.103
 2594WAT      O 8023   6.124   3.724   6.378
 2594WAT     H1 8024   6.132   3.776   6.463
 2594WAT     H2 8025   6.174   3.638   6.387
 2595WAT      O 8026   2.589   9.817   1.095
 2595WAT     H1 8027   2.509   9.861   1.053
 2595WAT     H2 8028   2.568   9.791   1.189
 2596WAT      O 8029   0.794   3.069   8.306
 2596WAT     H1 8030   0.753   3.008   8.373
 2596WAT     H2 8031   0.856   3.016   8.247
 2597WAT      O 8032   2.917   1.470   1.515
 2597WAT     H1 8033   2.988   1.538   1.535
 2597WAT     H2 8034   2.933   1.431   1.424
 2598WAT      O 8035   8.388   6.893   7.305
 2598WAT     H1 8036   8.425   6.837   7.231
 2598WAT     H2 8037   8.370   6.986   7.270
 2599WAT      O 8038   5.953   0.130   8.638
 2599WAT     H1 8039   5.883   0.101   8.702
 2599WAT     H2 8040   5.942   0.227   8.617
 2600WAT      O 8041   2.204   5.536   5.336
 2600WAT     H1 8042   2.256   5.451   5.350
 2600WAT     H2 8043   2.247   5.610   5.388
 2601WAT      O 8044   3.833   6.334   5.531
 2601WAT     H1 8045   3.780   6.263   5.576
 2601WAT     H2 8046   3.916   6.295   5.491
 2602WAT      O 8047   7.082   7.861   2.207
 2602WAT     H1 8048   7.122   7.947   2.238
 2602WAT     H2 8049   7.154   7.795   2.187
 2603WAT      O 8050   0.902   1.856   1.378
 2603WAT     H1 8051   0.972   1.917   1.414
 2603WAT     H2 8052   0.816   1.871   1.428
 2604WAT      O 8053   4.527   5.591   9.145
 2604WAT     H1 8054   4.465   5.513   9.144
 2604WAT     H2 8055   4.556   5.610   9.238
 2605WAT      O 8056   3.835   3.973   5.096
 2605WAT     H1 8057   3.923   4.019   5.085
 2605WAT     H2 8058   3.777   3.993   5.017
 2606WAT      O 8059   2.675   1.970   9.858
 2606WAT     H1 8060   2.681   1.936   9.764
 2606WAT     H2 8061   2.687   1.893   9.921
 2607WAT      O 8062   8.777   8.930   7.127
 2607WAT     H1 8063   8.804   8.992   7.201
 2607WAT     H2 8064   8.853   8.922   7.062
 2608WAT      O 8065   1.214   5.966   9.684
 2608WAT     H1 8066   1.221   6.038   9.615
 2608WAT     H2 8067   1.169   5.886   9.644
 2609WAT      O 8068   2.602   4.804   3.276
 2609WAT     H1 8069   2.641   4.712   3.283
 2609WAT     H2 8070   2.551   4.812   3.190
 2610WAT      O 8071   5.726   8.108   3.463
 2610WAT     H1 8072   5.825   8.116   3.463
 2610WAT     H2 8073   5.690   8.141   3.375
 2611WAT      O 8074   4.994   4.335   1.561
 2611WAT     H1 8075   4.938   4.409   1.599
 2611WAT     H2 8076   5.023   4.359   1.468
 2612WAT      O 8077   4.530   0.323   4.783
 2612WAT     H1 8078   4.478   0.342   4.700
 2612WAT     H2 8079   4.628   0.325   4.763
 2613WAT      O 8080   2.354   3.680   5.701
 2613WAT     H1 8081   2.439   3.682   5.648
 2613WAT     H2 8082   2.360   3.747   5.775
 2614WAT      O 8083   4.846   5.768   8.626
 2614WAT     H1 8084   4.801   5.855   8.648
 2614WAT     H2 8085   4.784   5.710   8.573
 2615WAT      O 8086   3.788   9.473   1.887
 2615WAT     H1 8087   3.722   9.505   1.955
 2615WAT     H2 8088   3.872   9.445   1.934
 2616WAT      O 8089   1.567   0.864   1.886
 2616WAT     H1 8090   1.604   0.924   1.957
 2616WAT     H2 8091   1.534   0.779   1.928
 2617WAT      O 8092   7.813   2.314   3.862
 2617WAT     H1 8093   7.841   2.405   3.830
 2617WAT     H2 8094   7.883   2.247   3.836
 2618WAT      O 8095   1.028   6.221   6.168
 2618WAT     H1 8096   1.076   6.219   6.255
 2618WAT     H2 8097   0.985   6.311   6.155
 2619WAT      O 8098   6.365   3.604   2.288
 2619WAT     H1 8099   6.322   3.530   2.236
 2619WAT     H2 8100   6.465   3.595   2.281
 2620WAT      O 8101   0.164   1.586   1.045
 2620WAT     H1 8102   0.188   1.563   1.139
 2620WAT     H2 8103   0.124   1.506   1.000
 2621WAT      O 8104   5.162   7.372   9.433
 2621WAT     H1 8105   5.169   7.349   9.530
 2621WAT     H2 8106   5.069   7.403   9.413
 2622WAT      O 8107   0.952   7.208   6.259
 2622WAT     H1 8108   0.868   7.164   6.229
 2622WAT     H2 8109   0.940   7.244   6.351
 2623WAT      O 8110   5.404   7.486   2.261
 2623WAT     H1 8111   5.409   7.581   2.291
 2623WAT     H2 8112   5.384   7.427   2.339
 2624WAT      O 8113   5.389   3.981   0.833
 2624WAT     H1 8114   5.369   4.028   0.747
 2624WAT     H2 8115   5.436   4.044   0.895
 2625WAT      O 8116   7.752   7.462   5.640
 2625WAT     H1 8117   7.654   7.448   5.624
 2625WAT     H2 8118   7.802   7.379   5.614
 2626WAT      O 8119   1.767   7.059   2.770
 2626WAT     H1 8120   1.861   7.025   2.776
 2626WAT     H2 8121   1.730   7.039   2.679
 2627WAT      O 8122   0.544   5.287   7.287
 2627WAT     H1 8123   0.614   5.354   7.310
 2627WAT     H2 8124   0.582   5.195   7.294
 2628WAT      O 8125   5.088   8.136   3.732
 2628WAT     H1 8126   5.181   8.100   3.742
 2628WAT     H2 8127   5.061   8.131   3.635
 2629WAT      O 8128   9.307   3.527   0.160
 2629WAT     H1 8129   9.400   3.502   0.187
 2629WAT     H2 8130   9.242   3.461   0.198
 2630WAT      O 8131   2.705   7.275   5.770
 2630WAT     H1 8132   2.706   7.372   5.746
 2630WAT     H2 8133   2.768   7.225   5.711
 2631WAT      O 8134   3.828   8.377   8.804
 2631WAT     H1 8135   3.737   8.375   8.846
 2631WAT     H2 8136   3.883   8.449   8.847
 2632WAT      O 8137   2.902   5.244   3.086
 2632WAT     H1 8138   2.990   5.246   3.038
 2632WAT     H2 8139   2.840   5.181   3.039
 2633WAT      O 8140   5.028   2.059   0.264
 2633WAT     H1 8141   4.943   2.043   0.315
 2633WAT     H2 8142   5.098   1.995   0.295
 2634WAT      O 8143   6.640   3.966   7.436
 2634WAT     H1 8144   6.703   4.034   7.474
 2634WAT     H2 8145   6.570   3.944   7.503
 2635WAT      O 8146   7.380   6.931   8.476
 2635WAT     H1 8147   7.442   7.009   8.465
 2635WAT     H2 8148   7.360   6.891   8.387
 2636WAT      O 8149   4.295   3.685   6.539
 2636WAT     H1 8150   4.341   3.710   6.454
 2636WAT     H2 8151   4.250   3.596   6.528
 2637WAT      O 8152   3.913   5.013   3.737
 2637WAT     H1 8153   4.008   5.024   3.706
 2637WAT     H2 8154   3.913   4.977   3.830
 2638WAT      O 8155   6.649   4.883   0.843
 2638WAT     H1 8156   6.672   4.978   0.865
 2638WAT     H2 8157   6.720   4.823   0.879
 2639WAT      O 8158   0.468   4.615   6.258
 2639WAT     H1 8159   0.488   4.612   6.356
 2639WAT     H2 8160   0.381   4.661   6.243
 2640WAT      O 8161   2.359   4.721   3.635
 2640WAT     H1 8162   2.356   4.631   3.590
 2640WAT     H2 8163   2.449   4.762   3.621
 2641WAT      O 8164   9.677   1.410   2.468
 2641WAT     H1 8165   9.591   1.371   2.434
 2641WAT     H2 8166   9.753   1.348   2.447
 2642WAT      O 8167   4.634   4.972   1.780
 2642WAT     H1 8168   4.669   4.897   1.836
 2642WAT     H2 8169   4.562   4.938   1.720
 2643WAT      O 8170   0.125   9.041   9.516
 2643WAT     H1 8171   0.060   8.986   9.569
 2643WAT     H2 8172   0.194   8.981   9.475
 2644WAT      O 8173   8.287   3.132   9.761
 2644WAT     H1 8174   8.334   3.044   9.750
 2644WAT     H2 8175   8.350   3.197   9.804
 2645WAT      O 8176   2.656   4.439   8.259
 2645WAT     H1 8177   2.560   4.413   8.252
 2645WAT     H2 8178   2.714   4.360   8.240
 2646WAT      O 8179   0.626   9.232   5.821
 2646WAT     H1 8180   0.686   9.198   5.748
 2646WAT     H2 8181   0.596   9.156   5.878
 2647WAT      O 8182   6.744   7.389   5.252
 2647WAT     H1 8183   6.794   7.466   5.212
 2647WAT     H2 8184   6.806   7.335   5.309
 2648WAT      O 8185   7.125   5.441   2.878
 2648WAT     H1 8186   7.085   5.500   2.809
 2648WAT     H2 8187   7.221   5.465   2.892
 2649WAT      O 8188   6.786   7.772   2.965
 2649WAT     H1 8189   6.815   7.676   2.966
 2649WAT     H2 8190   6.687   7.777   2.950
 2650WAT      O 8191   2.951   7.683   8.521
 2650WAT     H1 8192   3.025   7.676   8.589
 2650WAT     H2 8193   2.982   7.645   8.434
 2651WAT      O 8194   1.395   8.770   9.430
 2651WAT     H1 8195   1.405   8.747   9.333
 2651WAT     H2 8196   1.460   8.842   9.455
 2652WAT      O 8197   7.295   5.793   0.901
 2652WAT     H1 8198   7.199   5.796   0.872
 2652WAT     H2 8199   7.319   5.881   0.942
 2653WAT      O 8200   5.177   4.159   8.320
 2653WAT     H1 8201   5.113   4.090   8.351
 2653WAT     H2 8202   5.261   4.154   8.375
 2654WAT      O 8203   1.273   8.049   1.327
 2654WAT     H1 8204   1.363   8.090   1.314
 2654WAT     H2 8205   1.265   7.967   1.271
 2655WAT      O 8206   5.659   6.037   7.326
 2655WAT     H1 8207   5.603   6.109   7.367
 2655WAT     H2 8208   5.689   6.066   7.235
 2656WAT      O 8209   2.707   7.979   0.892
 2656WAT     H1 8210   2.678   7.959   0.798
 2656WAT     H2 8211   2.790   7.927   0.913
 2657WAT      O 8212   2.544   0.889   3.301
 2657WAT     H1 8213   2.580   0.875   3.209
 2657WAT     H2 8214   2.620   0.899   3.365
 2658WAT      O 8215   4.916   0.934   2.484
 2658WAT     H1 8216   5.013   0.925   2.463
 2658WAT     H2 8217   4.862   0.911   2.403
 2659WAT      O 8218   6.558   6.727   6.838
 2659WAT     H1 8219   6.569   6.800   6.771
 2659WAT     H2 8220   6.510   6.650   6.795
 2660WAT      O 8221   8.017   7.755   5.896
 2660WAT     H1 8222   7.933   7.701   5.891
 2660WAT     H2 8223   8.081   7.724   5.826
 2661WAT      O 8224   3.077   2.619   9.513
 2661WAT     H1 8225   2.994   2.628   9.567
 2661WAT     H2 8226   3.108   2.710   9.484
 2662WAT      O 8227   1.546   0.785   1.427
 2662WAT     H1 8228   1.493   0.705   1.400
 2662WAT     H2 8229   1.570   0.838   1.345
 2663WAT      O 8230   3.633   0.566   2.537
 2663WAT     H1 8231   3.699   0.617   2.482
 2663WAT     H2 8232   3.621   0.474   2.498
 2664WAT      O 8233   7.300   7.387   4.593
 2664WAT     H1 8234   7.321   7.484   4.580
 2664WAT     H2 8235   7.226   7.377   4.659
 2665WAT      O 8236   7.791   6.647   0.346
 2665WAT     H1 8237   7.806   6.549   0.360
 2665WAT     H2 8238   7.824   6.697   0.426
 2666WAT      O 8239   2.922   6.510   7.342
 2666WAT     H1 8240   2.973   6.504   7.256
 2666WAT     H2 8241   2.890   6.418   7.368
 2667WAT      O 8242   1.444   5.163   0.217
 2667WAT     H1 8243   1.457   5.150   0.316
 2667WAT     H2 8244   1.349   5.189   0.199
 2668WAT      O 8245   1.747   4.822   0.698
 2668WAT     H1 8246   1.846   4.833   0.712
 2668WAT     H2 8247   1.697   4.880   0.762
 2669WAT      O 8248   9.499   8.233   3.557
 2669WAT     H1 8249   9.510   8.285   3.473
 2669WAT     H2 8250   9.428   8.275   3.614
 2670WAT      O 8251   4.135   0.503   6.000
 2670WAT     H1 8252   4.176   0.565   6.067
 2670WAT     H2 8253   4.071   0.441   6.046
 2671WAT      O 8254   2.643   1.754   4.651
 2671WAT     H1 8255   2.603   1.829   4.599
 2671WAT     H2 8256   2.718   1.712   4.599
 2672WAT      O 8257   4.719   3.370   0.018
 2672WAT     H1 8258   4.647   3.418  -0.031
 2672WAT     H2 8259   4.683   3.331   0.102
 2673WAT      O 8260   6.822   1.101   3.775
 2673WAT     H1 8261   6.746   1.076   3.834
 2673WAT     H2 8262   6.815   1.049   3.689
 2674WAT      O 8263   3.125   9.311   2.838
 2674WAT     H1 8264   3.217   9.330   2.804
 2674WAT     H2 8265   3.072   9.396   2.842
 2675WAT      O 8266   3.805   2.942   2.957
 2675WAT     H1 8267   3.894   2.973   2.922
 2675WAT     H2 8268   3.818   2.855   3.005
 2676WAT      O 8269   7.691   6.462   2.620
 2676WAT     H1 8270   7.743   6.406   2.685
 2676WAT     H2 8271   7.716   6.558   2.631
 2677WAT      O 8272   5.052   9.737   8.940
 2677WAT     H1 8273   5.122   9.769   8.877
 2677WAT     H2 8274   4.963   9.776   8.915
 2678WAT      O 8275   1.226   9.483   7.922
 2678WAT     H1 8276   1.190   9.565   7.965
 2678WAT     H2 8277   1.153   9.438   7.870
 2679WAT      O 8278   4.941   6.861   9.294
 2679WAT     H1 8279   4.966   6.807   9.214
 2679WAT     H2 8280   4.859   6.914   9.274
 2680WAT      O 8281   0.421   9.289   3.559
 2680WAT     H1 8282   0.485   9.273   3.484
 2680WAT     H2 8283   0.393   9.202   3.599
 2681WAT      O 8284   1.970   6.039   3.654
 2681WAT     H1 8285   2.049   5.978   3.644
 2681WAT     H2 8286   1.974   6.110   3.584
 2682WAT      O 8287   1.882   4.838   7.512
 2682WAT     H1 8288   1.782   4.839   7.507
 2682WAT     H2 8289   1.919   4.810   7.423
 2683WAT      O 8290   3.863   6.982   7.185
 2683WAT     H1 8291   3.930   7.018   7.121
 2683WAT     H2 8292   3.775   7.025   7.169
 2684WAT      O 8293   7.242   4.684   1.679
 2684WAT     H1 8294   7.287   4.704   1.592
 2684WAT     H2 8295   7.275   4.596   1.714
 2685WAT      O 8296   1.028   6.294   4.932
 2685WAT     H1 8297   0.982   6.382   4.940
 2685WAT     H2 8298   1.088   6.280   5.011
 2686WAT      O 8299   6.312   1.239   3.071
 2686WAT     H1 8300   6.343   1.331   3.045
 2686WAT     H2 8301   6.385   1.192   3.121
 2687WAT      O 8302   5.103   8.309   0.392
 2687WAT     H1 8303   5.149   8.340   0.476
 2687WAT     H2 8304   5.062   8.219   0.408
 2688WAT      O 8305   7.806   8.369   3.830
 2688WAT     H1 8306   7.875   8.406   3.893
 2688WAT     H2 8307   7.801   8.425   3.748
 2689WAT      O 8308   0.633   2.453   8.439
 2689WAT     H1 8309   0.610   2.452   8.342
 2689WAT     H2 8310   0.571   2.393   8.489
 2690WAT      O 8311   8.437   0.195   9.485
 2690WAT     H1 8312   8.380   0.188   9.566
 2690WAT     H2 8313   8.380   0.193   9.403
 2691WAT      O 8314   4.968   0.454   2.065
 2691WAT     H1 8315   4.872   0.479   2.061
 2691WAT     H2 8316   5.015   0.486   1.983
 2692WAT      O 8317   2.994   1.523   6.906
 2692WAT     H1 8318   2.908   1.526   6.956
 2692WAT     H2 8319   3.053   1.597   6.937
 2693WAT      O 8320   9.746   7.818   4.532
 2693WAT     H1 8321   9.683   7.893   4.550
 2693WAT     H2 8322   9.784   7.828   4.440
 2694WAT      O 8323   6.602   3.501   5.540
 2694WAT     H1 8324   6.599   3.410   5.583
 2694WAT     H2 8325   6.621   3.491   5.443
 2695WAT      O 8326   1.021   5.510   7.689
 2695WAT     H1 8327   1.082   5.446   7.642
 2695WAT     H2 8328   0.926   5.491   7.662
 2696WAT      O 8329   6.937   1.142   8.038
 2696WAT     H1 8330   6.961   1.051   8.004
 2696WAT     H2 8331   6.844   1.164   8.010
 2697WAT      O 8332   5.652   5.657   9.257
 2697WAT     H1 8333   5.697   5.643   9.345
 2697WAT     H2 8334   5.588   5.582   9.240
 2698WAT      O 8335   5.501   9.514   6.248
 2698WAT     H1 8336   5.523   9.433   6.302
 2698WAT     H2 8337   5.572   9.529   6.179
 2699WAT      O 8338   0.248   1.974   7.248
 2699WAT     H1 8339   0.316   2.036   7.287
 2699WAT     H2 8340   0.242   1.891   7.304
 2700WAT      O 8341   2.501   8.692   2.825
 2700WAT     H1 8342   2.556   8.612   2.846
 2700WAT     H2 8343   2.561   8.771   2.812
 2701WAT      O 8344   5.132   6.785   2.790
 2701WAT     H1 8345   5.165   6.730   2.867
 2701WAT     H2 8346   5.184   6.764   2.708
 2702WAT      O 8347   6.510   8.373   6.343
 2702WAT     H1 8348   6.421   8.328   6.339
 2702WAT     H2 8349   6.498   8.467   6.376
 2703WAT      O 8350   4.369   0.539   2.525
 2703WAT     H1 8351   4.341   0.456   2.574
 2703WAT     H2 8352   4.384   0.612   2.591
 2704WAT      O 8353   8.084   8.714   8.819
 2704WAT     H1 8354   8.032   8.783   8.770
 2704WAT     H2 8355   8.179   8.716   8.788
 2705WAT      O 8356   3.858   5.630   9.778
 2705WAT     H1 8357   3.795   5.575   9.722
 2705WAT     H2 8358   3.842   5.610   9.875
 2706WAT      O 8359   0.924   8.294   1.463
 2706WAT     H1 8360   0.857   8.223   1.442
 2706WAT     H2 8361   0.886   8.384   1.438
 2707WAT      O 8362   0.883   0.206   9.321
 2707WAT     H1 8363   0.848   0.240   9.409
 2707WAT     H2 8364   0.915   0.112   9.332
 2708WAT      O 8365   4.478   3.629   0.284
 2708WAT     H1 8366   4.436   3.707   0.330
 2708WAT     H2 8367   4.513   3.657   0.195
 2709WAT      O 8368   9.216   2.572   4.819
 2709WAT     H1 8369   9.149   2.552   4.890
 2709WAT     H2 8370   9.268   2.489   4.798
 2710WAT      O 8371   8.954   9.031   1.002
 2710WAT     H1 8372   9.037   9.014   1.056
 2710WAT     H2 8373   8.902   8.946   0.993
 2711WAT      O 8374   9.141   6.717   4.030
 2711WAT     H1 8375   9.156   6.742   4.126
 2711WAT     H2 8376   9.044   6.725   4.008
 2712WAT      O 8377   5.740   8.632   5.401
 2712WAT     H1 8378   5.670   8.694   5.366
 2712WAT     H2 8379   5.701   8.576   5.475
 2713WAT      O 8380   9.835   6.202   8.983
 2713WAT     H1 8381   9.893   6.282   9.001
 2713WAT     H2 8382   9.811   6.200   8.886
 2714WAT      O 8383   3.387   1.069   3.173
 2714WAT     H1 8384   3.349   1.162   3.173
 2714WAT     H2 8385   3.321   1.007   3.215
 2715WAT      O 8386   1.445   1.834   8.303
 2715WAT     H1 8387   1.537   1.816   8.267
 2715WAT     H2 8388   1.443   1.812   8.401
 2716WAT      O 8389   6.293   4.264   6.560
 2716WAT     H1 8390   6.291   4.338   6.493
 2716WAT     H2 8391   6.325   4.300   6.648
 2717WAT      O 8392   9.340   9.575   7.069
 2717WAT     H1 8393   9.302   9.666   7.086
 2717WAT     H2 8394   9.380   9.539   7.154
 2718WAT      O 8395   2.778   6.995   1.091
 2718WAT     H1 8396   2.850   6.932   1.121
 2718WAT     H2 8397   2.768   7.068   1.159
 2719WAT      O 8398   7.667   6.254   4.497
 2719WAT     H1 8399   7.603   6.308   4.551
 2719WAT     H2 8400   7.714   6.188   4.555
 2720WAT      O 8401   9.248   6.964   0.142
 2720WAT     H1 8402   9.291   6.875   0.157
 2720WAT     H2 8403   9.293   7.033   0.198
 2721WAT      O 8404   6.755   4.267   0.900
 2721WAT     H1 8405   6.764   4.330   0.823
 2721WAT     H2 8406   6.812   4.186   0.883
 2722WAT      O 8407   8.741   4.842   9.245
 2722WAT     H1 8408   8.720   4.832   9.342
 2722WAT     H2 8409   8.779   4.756   9.210
 2723WAT      O 8410   5.525   4.510   3.804
 2723WAT     H1 8411   5.515   4.411   3.814
 2723WAT     H2 8412   5.484   4.556   3.883
 2724WAT      O 8413   5.273   6.252   1.445
 2724WAT     H1 8414   5.358   6.240   1.394
 2724WAT     H2 8415   5.210   6.177   1.422
 2725WAT      O 8416   1.582   7.026   2.248
 2725WAT     H1 8417   1.534   6.992   2.329
 2725WAT     H2 8418   1.523   7.090   2.199
 2726WAT      O 8419   7.813   3.954   6.844
 2726WAT     H1 8420   7.867   3.942   6.761
 2726WAT     H2 8421   7.859   4.019   6.905
 2727WAT      O 8422   9.267   5.690   8.471
 2727WAT     H1 8423   9.295   5.771   8.522
 2727WAT     H2 8424   9.245   5.617   8.536
 2728WAT      O 8425   1.935   2.068   3.819
 2728WAT     H1 8426   1.918   2.163   3.843
 2728WAT     H2 8427   2.031   2.056   3.795
 2729WAT      O 8428   0.403   0.759   3.329
 2729WAT     H1 8429   0.364   0.756   3.421
 2729WAT     H2 8430   0.347   0.818   3.271
 2730WAT      O 8431   8.511   9.539   2.450
 2730WAT     H1 8432   8.530   9.629   2.412
 2730WAT     H2 8433   8.593   9.483   2.444
 2731WAT      O 8434   3.014   3.033   6.467
 2731WAT     H1 8435   2.939   3.096   6.487
 2731WAT     H2 8436   2.979   2.955   6.416
 2732WAT      O 8437   5.865   6.236   5.544
 2732WAT     H1 8438   5.827   6.161   5.598
 2732WAT     H2 8439   5.953   6.265   5.584
 2733WAT      O 8440   5.135   9.607   7.371
 2733WAT     H1 8441   5.044   9.640   7.345
 2733WAT     H2 8442   5.143   9.510   7.348
 2734WAT      O 8443   9.633   1.307   7.662
 2734WAT     H1 8444   9.545   1.263   7.684
 2734WAT     H2 8445   9.683   1.325   7.746
 2735WAT      O 8446   4.143   3.217   8.406
 2735WAT     H1 8447   4.097   3.181   8.325
 2735WAT     H2 8448   4.079   3.215   8.484
 2736WAT      O 8449   5.972   8.035   8.028
 2736WAT     H1 8450   5.898   8.004   7.967
 2736WAT     H2 8451   5.939   8.033   8.123
 2737WAT      O 8452   8.412   4.388   0.919
 2737WAT     H1 8453   8.483   4.364   0.985
 2737WAT     H2 8454   8.323   4.385   0.963
 2738WAT      O 8455   8.503   8.296   8.909
 2738WAT     H1 8456   8.486   8.360   8.984
 2738WAT     H2 8457   8.453   8.326   8.828
 2739WAT      O 8458   9.317   9.833   8.323
 2739WAT     H1 8459   9.255   9.798   8.393
 2739WAT     H2 8460   9.292   9.793   8.234
 2740WAT      O 8461   2.813   2.102   9.338
 2740WAT     H1 8462   2.890   2.105   9.275
 2740WAT     H2 8463   2.731   2.071   9.290
 2741WAT      O 8464   9.101   0.395   5.337
 2741WAT     H1 8465   9.188   0.373   5.293
 2741WAT     H2 8466   9.063   0.478   5.297
 2742WAT      O 8467   3.130   3.266   5.129
 2742WAT     H1 8468   3.035   3.269   5.159
 2742WAT     H2 8469   3.189   3.295   5.205
 2743WAT      O 8470   1.810   7.704   0.089
 2743WAT     H1 8471   1.787   7.779   0.027
 2743WAT     H2 8472   1.845   7.627   0.036
 2744WAT      O 8473   1.937   0.502   2.106
 2744WAT     H1 8474   1.990   0.436   2.052
 2744WAT     H2 8475   1.980   0.592   2.100
 2745WAT      O 8476   8.898   3.874   2.900
 2745WAT     H1 8477   8.836   3.933   2.952
 2745WAT     H2 8478   8.852   3.790   2.874
 2746WAT      O 8479   2.928   1.140   7.996
 2746WAT     H1 8480   2.864   1.077   8.041
 2746WAT     H2 8481   3.021   1.116   8.022
 2747WAT      O 8482   4.657   0.230   9.509
 2747WAT     H1 8483   4.756   0.232   9.523
 2747WAT     H2 8484   4.611   0.280   9.582
 2748WAT      O 8485   2.304   5.820   9.321
 2748WAT     H1 8486   2.382   5.837   9.260
 2748WAT     H2 8487   2.239   5.760   9.276
 2749WAT      O 8488   6.607   0.874   6.223
 2749WAT     H1 8489   6.508   0.863   6.214
 2749WAT     H2 8490   6.633   0.865   6.319
 2750WAT      O 8491   1.485   4.370   1.014
 2750WAT     H1 8492   1.462   4.468   1.016
 2750WAT     H2 8493   1.485   4.334   1.107
 2751WAT      O 8494   0.040   2.886   0.679
 2751WAT     H1 8495  -0.050   2.867   0.717
 2751WAT     H2 8496   0.031   2.937   0.594
 2752WAT      O 8497   2.836   3.695   9.652
 2752WAT     H1 8498   2.781   3.646   9.719
 2752WAT     H2 8499   2.926   3.715   9.691
 2753WAT      O 8500   4.090   3.483   8.173
 2753WAT     H1 8501   4.175   3.467   8.224
 2753WAT     H2 8502   4.019   3.421   8.206
 2754WAT      O 8503   3.212   3.368   6.393
 2754WAT     H1 8504   3.261   3.282   6.377
 2754WAT     H2 8505   3.184   3.407   6.305
 2755WAT      O 8506   7.633   2.520   4.337
 2755WAT     H1 8507   7.652   2.566   4.424
 2755WAT     H2 8508   7.539   2.542   4.309
 2756WAT      O 8509   7.575   7.468   3.466
 2756WAT     H1 8510   7.491   7.484   3.414
 2756WAT     H2 8511   7.612   7.378   3.441
 2757WAT      O 8512   3.953   7.667   1.356
 2757WAT     H1 8513   3.908   7.586   1.394
 2757WAT     H2 8514   4.051   7.664   1.378
 2758WAT      O 8515   2.757   2.826   8.507
 2758WAT     H1 8516   2.799   2.912   8.478
 2758WAT     H2 8517   2.658   2.833   8.495
 2759WAT      O 8518   2.072   7.190   3.009
 2759WAT     H1 8519   2.146   7.229   3.065
 2759WAT     H2 8520   2.085   7.217   2.914
 2760WAT      O 8521   8.287   4.360   6.611
 2760WAT     H1 8522   8.268   4.292   6.682
 2760WAT     H2 8523   8.248   4.448   6.638
 2761WAT      O 8524   1.904   8.493   5.825
 2761WAT     H1 8525   1.834   8.422   5.840
 2761WAT     H2 8526   1.868   8.582   5.853
 2762WAT      O 8527   8.020   9.453   1.478
 2762WAT     H1 8528   7.940   9.430   1.533
 2762WAT     H2 8529   8.094   9.389   1.498
 2763WAT      O 8530   2.906   6.747   3.147
 2763WAT     H1 8531   2.912   6.650   3.126
 2763WAT     H2 8532   2.811   6.770   3.171
 2764WAT      O 8533   9.161   5.137   6.046
 2764WAT     H1 8534   9.065   5.121   6.069
 2764WAT     H2 8535   9.218   5.071   6.095
 2765WAT      O 8536   9.353   7.036   9.542
 2765WAT     H1 8537   9.382   6.992   9.627
 2765WAT     H2 8538   9.374   6.977   9.464
 2766WAT      O 8539   7.653   1.304   2.784
 2766WAT     H1 8540   7.572   1.280   2.837
 2766WAT     H2 8541   7.641   1.394   2.742
 2767WAT      O 8542   6.661   6.588   9.345
 2767WAT     H1 8543   6.670   6.656   9.417
 2767WAT     H2 8544   6.686   6.628   9.257
 2768WAT      O 8545   6.896   1.486   4.609
 2768WAT     H1 8546   6.939   1.576   4.604
 2768WAT     H2 8547   6.899   1.442   4.519
 2769WAT      O 8548   6.966   6.271   8.451
 2769WAT     H1 8549   6.973   6.265   8.351
 2769WAT     H2 8550   7.056   6.292   8.489
 2770WAT      O 8551   6.832   6.097   0.635
 2770WAT     H1 8552   6.736   6.124   0.646
 2770WAT     H2 8553   6.888   6.146   0.701
 2771WAT      O 8554   0.047   2.079   5.416
 2771WAT     H1 8555   0.033   2.176   5.437
 2771WAT     H2 8556  -0.024   2.048   5.353
 2772WAT      O 8557   4.998   2.727   1.552
 2772WAT     H1 8558   4.927   2.796   1.544
 2772WAT     H2 8559   5.071   2.745   1.486
 2773WAT      O 8560   5.845   9.637   5.442
 2773WAT     H1 8561   5.926   9.598   5.488
 2773WAT     H2 8562   5.870   9.724   5.401
 2774WAT      O 8563   1.528   2.934   2.259
 2774WAT     H1 8564   1.482   2.856   2.215
 2774WAT     H2 8565   1.495   3.019   2.218
 2775WAT      O 8566   7.440   0.252   0.302
 2775WAT     H1 8567   7.464   0.297   0.216
 2775WAT     H2 8568   7.492   0.168   0.312
 2776WAT      O 8569   3.235   9.015   5.834
 2776WAT     H1 8570   3.314   9.058   5.878
 2776WAT     H2 8571   3.264   8.927   5.794
 2777WAT      O 8572   1.667   5.304   7.920
 2777WAT     H1 8573   1.608   5.225   7.905
 2777WAT     H2 8574   1.615   5.378   7.962
 2778WAT      O 8575   0.028   6.253   7.440
 2778WAT     H1 8576   0.065   6.338   7.400
 2778WAT     H2 8577   0.082   6.175   7.407
 2779WAT      O 8578   6.604   0.091   9.491
 2779WAT     H1 8579   6.570   0.040   9.570
 2779WAT     H2 8580   6.611   0.188   9.515
 2780WAT      O 8581   6.797   2.732   5.667
 2780WAT     H1 8582   6.879   2.753   5.719
 2780WAT     H2 8583   6.820   2.724   5.570
 2781WAT      O 8584   1.368   9.679   9.475
 2781WAT     H1 8585   1.280   9.670   9.522
 2781WAT     H2 8586   1.409   9.589   9.463
 2782WAT      O 8587   9.069   6.337   7.688
 2782WAT     H1 8588   9.067   6.415   7.625
 2782WAT     H2 8589   8.997   6.347   7.756
 2783WAT      O 8590   6.982   9.421   6.656
 2783WAT     H1 8591   7.044   9.498   6.671
 2783WAT     H2 8592   6.921   9.442   6.580
 2784WAT      O 8593   8.217   3.548   8.610
 2784WAT     H1 8594   8.276   3.488   8.664
 2784WAT     H2 8595   8.274   3.608   8.554
 2785WAT      O 8596   4.994   5.867   8.193
 2785WAT     H1 8597   5.009   5.846   8.290
 2785WAT     H2 8598   4.907   5.829   8.164
 2786WAT      O 8599   9.536   6.869   1.380
 2786WAT     H1 8600   9.598   6.944   1.402
 2786WAT     H2 8601   9.555   6.791   1.439
 2787WAT      O 8602   7.447   9.563   1.152
 2787WAT     H1 8603   7.453   9.650   1.200
 2787WAT     H2 8604   7.401   9.577   1.064
 2788WAT      O 8605   0.133   8.673   1.426
 2788WAT     H1 8606   0.102   8.704   1.336
 2788WAT     H2 8607   0.112   8.575   1.436
 2789WAT      O 8608   8.947   4.509   3.376
 2789WAT     H1 8609   9.015   4.436   3.363
 2789WAT     H2 8610   8.956   4.546   3.469
 2790WAT      O 8611   9.459   5.537   7.299
 2790WAT     H1 8612   9.534   5.472   7.285
 2790WAT     H2 8613   9.435   5.540   7.396
 2791WAT      O 8614   2.566   0.829   3.030
 2791WAT     H1 8615   2.540   0.861   2.939
 2791WAT     H2 8616   2.627   0.750   3.021
 2792WAT      O 8617   5.968   0.538   9.205
 2792WAT     H1 8618   5.910   0.513   9.283
 2792WAT     H2 8619   6.004   0.455   9.163
 2793WAT      O 8620   5.588   5.427   3.634
 2793WAT     H1 8621   5.532   5.363   3.687
 2793WAT     H2 8622   5.682   5.393   3.630
 2794WAT      O 8623   7.304   3.961   9.459
 2794WAT     H1 8624   7.395   3.986   9.493
 2794WAT     H2 8625   7.259   4.042   9.420
 2795WAT      O 8626   0.099   6.887   5.795
 2795WAT     H1 8627   0.148   6.958   5.745
 2795WAT     H2 8628   0.051   6.928   5.872
 2796WAT      O 8629   5.093   0.306   1.519
 2796WAT     H1 8630   5.146   0.388   1.542
 2796WAT     H2 8631   5.083   0.249   1.600
 2797WAT      O 8632   7.167   9.795   9.057
 2797WAT     H1 8633   7.244   9.753   9.105
 2797WAT     H2 8634   7.089   9.803   9.119
 2798WAT      O 8635   9.020   9.377   4.597
 2798WAT     H1 8636   9.022   9.293   4.652
 2798WAT     H2 8637   9.080   9.366   4.518
 2799WAT      O 8638   4.856   2.071   6.499
 2799WAT     H1 8639   4.831   1.995   6.439
 2799WAT     H2 8640   4.905   2.036   6.579
 2800WAT      O 8641   4.352   2.991   4.801
 2800WAT     H1 8642   4.409   3.054   4.748
 2800WAT     H2 8643   4.408   2.917   4.837
 2801WAT      O 8644   9.656   3.010   5.836
 2801WAT     H1 8645   9.674   2.946   5.911
 2801WAT     H2 8646   9.593   3.081   5.868
 2802WAT      O 8647   6.319   0.317   0.075
 2802WAT     H1 8648   6.263   0.383   0.027
 2802WAT     H2 8649   6.412   0.319   0.039
 2803WAT      O 8650   0.905   1.350   7.655
 2803WAT     H1 8651   1.003   1.352   7.675
 2803WAT     H2 8652   0.856   1.315   7.735
 2804WAT      O 8653   9.657   9.229   2.797
 2804WAT     H1 8654   9.731   9.166   2.773
 2804WAT     H2 8655   9.638   9.290   2.721
 2805WAT      O 8656   1.110   0.693   5.176
 2805WAT     H1 8657   1.198   0.711   5.132
 2805WAT     H2 8658   1.070   0.779   5.207
 2806WAT      O 8659   2.818   3.622   8.484
 2806WAT     H1 8660   2.828   3.557   8.560
 2806WAT     H2 8661   2.908   3.637   8.443
 2807WAT      O 8662   1.201   2.192   9.324
 2807WAT     H1 8663   1.116   2.144   9.350
 2807WAT     H2 8664   1.236   2.153   9.238
 2808WAT      O 8665   5.122   7.150   9.239
 2808WAT     H1 8666   5.114   7.109   9.330
 2808WAT     H2 8667   5.191   7.222   9.240
 2809WAT      O 8668   0.763   6.458   4.390
 2809WAT     H1 8669   0.771   6.360   4.374
 2809WAT     H2 8670   0.854   6.498   4.402
 2810WAT      O 8671   3.434   6.615   8.410
 2810WAT     H1 8672   3.372   6.541   8.437
 2810WAT     H2 8673   3.426   6.631   8.312
 2811WAT      O 8674   0.918   8.488   1.742
 2811WAT     H1 8675   0.947   8.392   1.739
 2811WAT     H2 8676   0.908   8.517   1.837
 2812WAT      O 8677   3.065   1.051   6.735
 2812WAT     H1 8678   3.098   0.961   6.707
 2812WAT     H2 8679   3.058   1.054   6.835
 2813WAT      O 8680   4.085   6.696   1.232
 2813WAT     H1 8681   4.169   6.702   1.179
 2813WAT     H2 8682   4.065   6.600   1.252
 2814WAT      O 8683   3.220   8.638   4.931
 2814WAT     H1 8684   3.208   8.681   5.020
 2814WAT     H2 8685   3.276   8.555   4.941
 2815WAT      O 8686   2.213   9.065   9.876
 2815WAT     H1 8687   2.207   8.979   9.927
 2815WAT     H2 8688   2.140   9.069   9.809
 2816WAT      O 8689   6.044   2.382   3.701
 2816WAT     H1 8690   5.986   2.406   3.623
 2816WAT     H2 8691   6.010   2.298   3.743
 2817WAT      O 8692   6.975   0.459   6.545
 2817WAT     H1 8693   7.046   0.524   6.572
 2817WAT     H2 8694   7.011   0.397   6.476
 2818WAT      O 8695   3.194   0.005   6.380
 2818WAT     H1 8696   3.156   0.097   6.391
 2818WAT     H2 8697   3.154  -0.056   6.449
 2819WAT      O 8698   9.556   7.880   6.580
 2819WAT     H1 8699   9.526   7.948   6.648
 2819WAT     H2 8700   9.488   7.808   6.573
 2820WAT      O 8701   9.755   6.406   4.349
 2820WAT     H1 8702   9.765   6.332   4.416
 2820WAT     H2 8703   9.835   6.407   4.289
 2821WAT      O 8704   5.287   7.583   4.878
 2821WAT     H1 8705   5.230   7.505   4.854
 2821WAT     H2 8706   5.378   7.571   4.836
 2822WAT      O 8707   1.969   6.628   3.247
 2822WAT     H1 8708   1.902   6.554   3.254
 2822WAT     H2 8709   1.956   6.691   3.324
 2823WAT      O 8710   4.752   7.032   4.589
 2823WAT     H1 8711   4.684   7.085   4.639
 2823WAT     H2 8712   4.705   6.958   4.540
 2824WAT      O 8713   0.943   4.964   2.667
 2824WAT     H1 8714   1.022   4.972   2.607
 2824WAT     H2 8715   0.967   4.909   2.748
 2825WAT      O 8716   7.793   0.689   6.971
 2825WAT     H1 8717   7.775   0.744   7.053
 2825WAT     H2 8718   7.758   0.738   6.891
 2826WAT      O 8719   8.593   8.660   4.679
 2826WAT     H1 8720   8.546   8.685   4.763
 2826WAT     H2 8721   8.526   8.641   4.607
 2827WAT      O 8722   7.598   4.834   9.774
 2827WAT     H1 8723   7.610   4.839   9.675
 2827WAT     H2 8724   7.619   4.742   9.806
 2828WAT      O 8725   6.007   2.470   7.694
 2828WAT     H1 8726   6.048   2.456   7.784
 2828WAT     H2 8727   5.931   2.407   7.683
 2829WAT      O 8728   2.212   1.615   7.450
 2829WAT     H1 8729   2.192   1.596   7.546
 2829WAT     H2 8730   2.262   1.538   7.410
 2830WAT      O 8731   5.431   5.693   1.837
 2830WAT     H1 8732   5.497   5.619   1.828
 2830WAT     H2 8733   5.435   5.730   1.930
 2831WAT      O 8734   9.842   4.683   9.189
 2831WAT     H1 8735   9.888   4.751   9.246
 2831WAT     H2 8736   9.900   4.661   9.110
 2832WAT      O 8737   5.645   4.478   7.917
 2832WAT     H1 8738   5.590   4.547   7.964
 2832WAT     H2 8739   5.728   4.520   7.880
 2833WAT      O 8740   6.202   4.460   7.156
 2833WAT     H1 8741   6.274   4.392   7.141
 2833WAT     H2 8742   6.120   4.434   7.105
 2834WAT      O 8743   8.139   6.599   3.682
 2834WAT     H1 8744   8.175   6.608   3.775
 2834WAT     H2 8745   8.106   6.688   3.650
 2835WAT      O 8746   9.033   9.813   0.338
 2835WAT     H1 8747   9.090   9.731   0.348
 2835WAT     H2 8748   8.990   9.813   0.248
 2836WAT      O 8749   1.101   6.522   5.942
 2836WAT     H1 8750   1.125   6.425   5.931
 2836WAT     H2 8751   1.039   6.531   6.020
 2837WAT      O 8752   3.384   9.656   7.052
 2837WAT     H1 8753   3.479   9.689   7.053
 2837WAT     H2 8754   3.339   9.683   7.137
 2838WAT      O 8755   8.848   2.901   0.710
 2838WAT     H1 8756   8.847   2.809   0.669
 2838WAT     H2 8757   8.925   2.908   0.774
 2839WAT      O 8758   9.071   4.116   7.683
 2839WAT     H1 8759   9.171   4.115   7.692
 2839WAT     H2 8760   9.033   4.034   7.725
 2840WAT      O 8761   6.077   5.173   6.225
 2840WAT     H1 8762   5.978   5.165   6.216
 2840WAT     H2 8763   6.121   5.098   6.176
 2841WAT      O 8764   6.554   7.756   1.164
 2841WAT     H1 8765   6.501   7.672   1.152
 2841WAT     H2 8766   6.649   7.740   1.137
 2842WAT      O 8767   3.622   9.837   6.716
 2842WAT     H1 8768   3.616   9.772   6.641
 2842WAT     H2 8769   3.585   9.926   6.686
 2843WAT      O 8770   0.085   6.360   4.210
 2843WAT     H1 8771   0.133   6.280   4.247
 2843WAT     H2 8772   0.082   6.355   4.110
 2844WAT      O 8773   6.110   9.202   4.006
 2844WAT     H1 8774   6.025   9.253   4.014
 2844WAT     H2 8775   6.089   9.105   3.993
 2845WAT      O 8776   8.121   5.800   3.349
 2845WAT     H1 8777   8.072   5.771   3.432
 2845WAT     H2 8778   8.170   5.722   3.310
 2846WAT      O 8779   1.040   9.669   2.581
 2846WAT     H1 8780   1.123   9.613   2.594
 2846WAT     H2 8781   1.042   9.747   2.643
 2847WAT      O 8782   3.739   1.019   9.079
 2847WAT     H1 8783   3.789   1.047   8.998
 2847WAT     H2 8784   3.741   1.092   9.147
 2848WAT      O 8785   9.662   6.639   2.748
 2848WAT     H1 8786   9.635   6.574   2.677
 2848WAT     H2 8787   9.641   6.732   2.718
 2849WAT      O 8788   3.706   5.460   2.366
 2849WAT     H1 8789   3.701   5.382   2.429
 2849WAT     H2 8790   3.624   5.462   2.309
 2850WAT      O 8791   2.653   0.359   8.894
 2850WAT     H1 8792   2.609   0.368   8.805
 2850WAT     H2 8793   2.709   0.276   8.896
 2851WAT      O 8794   7.508   3.852   8.124
 2851WAT     H1 8795   7.493   3.824   8.029
 2851WAT     H2 8796   7.440   3.920   8.150
 2852WAT      O 8797   5.979   1.892   4.093
 2852WAT     H1 8798   6.037   1.932   4.021
 2852WAT     H2 8799   5.953   1.799   4.067
 2853WAT      O 8800   2.448   4.770   4.467
 2853WAT     H1 8801   2.441   4.724   4.378
 2853WAT     H2 8802   2.359   4.769   4.512
 2854WAT      O 8803   3.934   6.296   7.825
 2854WAT     H1 8804   3.993   6.319   7.747
 2854WAT     H2 8805   3.951   6.361   7.899
 2855WAT      O 8806   1.079   3.152   6.091
 2855WAT     H1 8807   1.158   3.195   6.047
 2855WAT     H2 8808   1.084   3.053   6.079
 2856WAT      O 8809   6.916   4.719   4.319
 2856WAT     H1 8810   6.887   4.641   4.374
 2856WAT     H2 8811   6.895   4.804   4.367
 2857WAT      O 8812   5.840   4.742   3.552
 2857WAT     H1 8813   5.806   4.657   3.592
 2857WAT     H2 8814   5.923   4.723   3.499
 2858WAT      O 8815   7.293   3.672   8.545
 2858WAT     H1 8816   7.380   3.668   8.496
 2858WAT     H2 8817   7.223   3.623   8.493
 2859WAT      O 8818   8.634   6.830   1.788
 2859WAT     H1 8819   8.700   6.898   1.758
 2859WAT     H2 8820   8.576   6.804   1.711
 2860WAT      O 8821   7.638   8.204   6.947
 2860WAT     H1 8822   7.565   8.218   7.014
 2860WAT     H2 8823   7.604   8.227   6.856
 2861WAT      O 8824   8.109   2.176   8.703
 2861WAT     H1 8825   8.079   2.141   8.792
 2861WAT     H2 8826   8.164   2.107   8.657
 2862WAT      O 8827   0.744   9.744   4.632
 2862WAT     H1 8828   0.719   9.670   4.570
 2862WAT     H2 8829   0.841   9.735   4.657
 2863WAT      O 8830   3.575   2.971   6.515
 2863WAT     H1 8831   3.499   3.034   6.498
 2863WAT     H2 8832   3.591   2.964   6.614
 2864WAT      O 8833   3.009   9.634   0.108
 2864WAT     H1 8834   3.067   9.633   0.026
 2864WAT     H2 8835   3.053   9.688   0.179
 2865WAT      O 8836   2.482   2.243   1.523
 2865WAT     H1 8837   2.516   2.156   1.489
 2865WAT     H2 8838   2.522   2.318   1.470
 2866WAT      O 8839   6.726   7.816   1.629
 2866WAT     H1 8840   6.684   7.845   1.543
 2866WAT     H2 8841   6.802   7.754   1.609
 2867WAT      O 8842   3.383   6.338   9.305
 2867WAT     H1 8843   3.474   6.378   9.302
 2867WAT     H2 8844   3.372   6.285   9.389
 2868WAT      O 8845   8.537   3.147   2.313
 2868WAT     H1 8846   8.536   3.235   2.360
 2868WAT     H2 8847   8.503   3.075   2.375
 2869WAT      O 8848   1.990   9.655   7.263
 2869WAT     H1 8849   2.023   9.729   7.322
 2869WAT     H2 8850   1.994   9.568   7.313
 2870WAT      O 8851   0.471   3.993   9.263
 2870WAT     H1 8852   0.420   4.022   9.345
 2870WAT     H2 8853   0.406   3.975   9.189
 2871WAT      O 8854   0.189   4.004   4.001
 2871WAT     H1 8855   0.257   4.071   4.031
 2871WAT     H2 8856   0.236   3.925   3.961
 2872WAT      O 8857   2.018   2.493   6.202
 2872WAT     H1 8858   2.085   2.437   6.153
 2872WAT     H2 8859   1.981   2.441   6.279
 2873WAT      O 8860   1.751   7.814   9.301
 2873WAT     H1 8861   1.841   7.797   9.343
 2873WAT     H2 8862   1.682   7.822   9.373
 2874WAT      O 8863   7.708   6.997   4.076
 2874WAT     H1 8864   7.759   6.973   3.994
 2874WAT     H2 8865   7.613   6.967   4.066
 2875WAT      O 8866   1.654   6.342   7.886
 2875WAT     H1 8867   1.641   6.284   7.806
 2875WAT     H2 8868   1.749   6.335   7.917
 2876WAT      O 8869   1.444   1.995   5.910
 2876WAT     H1 8870   1.405   2.064   5.970
 2876WAT     H2 8871   1.396   1.908   5.922
 2877WAT      O 8872   1.816   7.845   3.740
 2877WAT     H1 8873   1.737   7.789   3.715
 2877WAT     H2 8874   1.790   7.942   3.738
 2878WAT      O 8875   6.487   1.012   8.084
 2878WAT     H1 8876   6.511   0.959   8.165
 2878WAT     H2 8877   6.535   0.975   8.005
 2879WAT      O 8878   8.815   8.882   1.522
 2879WAT     H1 8879   8.876   8.912   1.449
 2879WAT     H2 8880   8.816   8.783   1.528
 2880WAT      O 8881   2.154   4.120   3.333
 2880WAT     H1 8882   2.168   4.191   3.263
 2880WAT     H2 8883   2.242   4.083   3.361
 2881WAT      O 8884   7.546   3.633   4.441
 2881WAT     H1 8885   7.478   3.563   4.418
 2881WAT     H2 8886   7.511   3.723   4.415
 2882WAT      O 8887   1.383   6.170   7.650
 2882WAT     H1 8888   1.355   6.093   7.708
 2882WAT     H2 8889   1.310   6.238   7.647
 2883WAT      O 8890   1.386   9.397   8.705
 2883WAT     H1 8891   1.360   9.335   8.631
 2883WAT     H2 8892   1.333   9.481   8.697
 2884WAT      O 8893   3.223   3.655   7.084
 2884WAT     H1 8894   3.189   3.745   7.057
 2884WAT     H2 8895   3.146   3.592   7.094
 2885WAT      O 8896   4.213   7.825   8.064
 2885WAT     H1 8897   4.259   7.828   7.975
 2885WAT     H2 8898   4.281   7.833   8.137
 2886WAT      O 8899   9.312   8.341   3.713
 2886WAT     H1 8900   9.237   8.325   3.777
 2886WAT     H2 8901   9.277   8.391   3.633
 2887WAT      O 8902   9.005   2.065   7.706
 2887WAT     H1 8903   9.054   1.979   7.707
 2887WAT     H2 8904   9.045   2.126   7.637
 2888WAT      O 8905   0.979   7.417   8.472
 2888WAT     H1 8906   1.038   7.475   8.417
 2888WAT     H2 8907   0.889   7.410   8.428
 2889WAT      O 8908   0.640   0.448   0.706
 2889WAT     H1 8909   0.588   0.432   0.790
 2889WAT     H2 8910   0.728   0.401   0.711
 2890WAT      O 8911   3.794   3.187   9.632
 2890WAT     H1 8912   3.753   3.174   9.541
 2890WAT     H2 8913   3.722   3.199   9.700
 2891WAT      O 8914   0.623   8.694   7.435
 2891WAT     H1 8915   0.622   8.602   7.474
 2891WAT     H2 8916   0.530   8.731   7.435
 2892WAT      O 8917   8.466   4.968   4.026
 2892WAT     H1 8918   8.442   4.958   4.123
 2892WAT     H2 8919   8.563   4.951   4.013
 2893WAT      O 8920   2.681   4.998   9.442
 2893WAT     H1 8921   2.630   4.957   9.518
 2893WAT     H2 8922   2.748   4.932   9.407
 2894WAT      O 8923   7.203   8.519   9.248
 2894WAT     H1 8924   7.255   8.569   9.317
 2894WAT     H2 8925   7.122   8.572   9.222
 2895WAT      O 8926   4.862   9.504   7.352
 2895WAT     H1 8927   4.847   9.542   7.261
 2895WAT     H2 8928   4.928   9.429   7.346
 2896WAT      O 8929   9.681   2.816   6.934
 2896WAT     H1 8930   9.583   2.815   6.916
 2896WAT     H2 8931   9.713   2.723   6.955
 2897WAT      O 8932   7.808   0.254   9.162
 2897WAT     H1 8933   7.759   0.340   9.147
 2897WAT     H2 8934   7.826   0.210   9.074
 2898WAT      O 8935   9.385   8.047   7.488
 2898WAT     H1 8936   9.340   8.127   7.449
 2898WAT     H2 8937   9.319   7.993   7.540
 2899WAT      O 8938   1.295   5.290   7.749
 2899WAT     H1 8939   1.312   5.358   7.821
 2899WAT     H2 8940   1.331   5.202   7.777
 2900WAT      O 8941   9.213   1.388   3.312
 2900WAT     H1 8942   9.258   1.476   3.296
 2900WAT     H2 8943   9.143   1.399   3.382
 2901WAT      O 8944   1.247   9.740   3.989
 2901WAT     H1 8945   1.334   9.755   4.036
 2901WAT     H2 8946   1.180   9.808   4.019
 2902WAT      O 8947   8.617   0.832   7.753
 2902WAT     H1 8948   8.690   0.765   7.743
 2902WAT     H2 8949   8.627   0.880   7.840
 2903WAT      O 8950   3.938   9.588   2.570
 2903WAT     H1 8951   4.020   9.530   2.578
 2903WAT     H2 8952   3.905   9.586   2.476
 2904WAT      O 8953   7.029   3.119   6.500
 2904WAT     H1 8954   7.023   3.218   6.515
 2904WAT     H2 8955   6.964   3.093   6.428
 2905WAT      O 8956   5.980   8.282   6.214
 2905WAT     H1 8957   5.998   8.263   6.117
 2905WAT     H2 8958   5.924   8.364   6.222
 2906WAT      O 8959   7.006   9.004   5.367
 2906WAT     H1 8960   6.962   8.974   5.452
 2906WAT     H2 8961   6.949   8.978   5.289
 2907WAT      O 8962   0.315   4.846   7.837
 2907WAT     H1 8963   0.252   4.923   7.847
 2907WAT     H2 8964   0.404   4.870   7.877
 2908WAT      O 8965   8.838   2.077   9.679
 2908WAT     H1 8966   8.773   2.006   9.651
 2908WAT     H2 8967   8.925   2.035   9.703
 2909WAT      O 8968   9.544   6.001   2.666
 2909WAT     H1 8969   9.475   5.932   2.685
 2909WAT     H2 8970   9.593   5.978   2.583
 2910WAT      O 8971   7.390   0.868   0.247
 2910WAT     H1 8972   7.328   0.907   0.315
 2910WAT     H2 8973   7.376   0.770   0.241
 2911WAT      O 8974   2.730   3.843   0.591
 2911WAT     H1 8975   2.640   3.836   0.548
 2911WAT     H2 8976   2.747   3.761   0.646
 2912WAT      O 8977   1.825   0.577   6.741
 2912WAT     H1 8978   1.816   0.560   6.839
 2912WAT     H2 8979   1.744   0.623   6.706
 2913WAT      O 8980   7.758   6.507   8.633
 2913WAT     H1 8981   7.810   6.571   8.689
 2913WAT     H2 8982   7.752   6.542   8.539
 2914WAT      O 8983   6.317   1.622   4.456
 2914WAT     H1 8984   6.249   1.558   4.492
 2914WAT     H2 8985   6.373   1.658   4.531
 2915WAT      O 8986   4.136   3.336   1.024
 2915WAT     H1 8987   4.139   3.428   0.985
 2915WAT     H2 8988   4.068   3.281   0.975
 2916WAT      O 8989   1.327   6.913   7.644
 2916WAT     H1 8990   1.424   6.925   7.667
 2916WAT     H2 8991   1.301   6.818   7.659
 2917WAT      O 8992   3.135   3.477   7.559
 2917WAT     H1 8993   3.209   3.531   7.518
 2917WAT     H2 8994   3.130   3.497   7.657
 2918WAT      O 8995   7.952   0.099   6.078
 2918WAT     H1 8996   7.896   0.064   6.003
 2918WAT     H2 8997   7.946   0.037   6.156
 2919WAT      O 8998   2.441   2.547   2.421
 2919WAT     H1 8999   2.394   2.500   2.347
 2919WAT     H2 9000   2.472   2.636   2.390
 2920WAT      O 9001   3.943   2.058   0.303
 2920WAT     H1 9002   3.913   2.121   0.376
 2920WAT     H2 9003   3.878   2.062   0.228
 2921WAT      O 9004   8.606   4.343   5.500
 2921WAT     H1 9005   8.679   4.394   5.454
 2921WAT     H2 9006   8.566   4.278   5.436
 2922WAT      O 9007   5.653   6.927   7.480
 2922WAT     H1 9008   5.710   6.845   7.488
 2922WAT     H2 9009   5.658   6.979   7.565
 2923WAT      O 9010   0.531   0.676   1.346
 2923WAT     H1 9011   0.511   0.765   1.387
 2923WAT     H2 9012   0.474   0.606   1.390
 2924WAT      O 9013   0.492   1.268   7.334
 2924WAT     H1 9014   0.535   1.325   7.403
 2924WAT     H2 9015   0.465   1.180   7.374
 2925WAT      O 9016   2.309   8.155   9.859
 2925WAT     H1 9017   2.315   8.238   9.915
 2925WAT     H2 9018   2.298   8.075   9.918
 2926WAT      O 9019   9.781   8.095   5.943
 2926WAT     H1 9020   9.688   8.128   5.958
 2926WAT     H2 9021   9.786   7.998   5.966
 2927WAT      O 9022   3.211   0.872   3.707
 2927WAT     H1 9023   3.261   0.900   3.789
 2927WAT     H2 9024   3.180   0.953   3.657
 2928WAT      O 9025   5.935   2.159   3.825
 2928WAT     H1 9026   5.995   2.080   3.838
 2928WAT     H2 9027   5.858   2.133   3.765
 2929WAT      O 9028   7.238   3.674   5.709
 2929WAT     H1 9029   7.190   3.743   5.654
 2929WAT     H2 9030   7.335   3.695   5.711
 2930WAT      O 9031   6.297   9.150   9.850
 2930WAT     H1 9032   6.329   9.149   9.945
 2930WAT     H2 9033   6.354   9.212   9.796
 2931WAT      O 9034   2.500   3.913   1.726
 2931WAT     H1 9035   2.579   3.928   1.786
 2931WAT     H2 9036   2.532   3.900   1.632
 2932WAT      O 9037   7.073   4.522   7.856
 2932WAT     H1 9038   7.075   4.618   7.827
 2932WAT     H2 9039   7.151   4.504   7.917
 2933WAT      O 9040   7.796   6.146   0.857
 2933WAT     H1 9041   7.730   6.129   0.930
 2933WAT     H2 9042   7.871   6.081   0.864
 2934WAT      O 9043   4.766   5.505   5.976
 2934WAT     H1 9044   4.852   5.552   5.955
 2934WAT     H2 9045   4.786   5.414   6.013
 2935WAT      O 9046   1.837   8.174   6.201
 2935WAT     H1 9047   1.815   8.179   6.298
 2935WAT     H2 9048   1.769   8.118   6.154
 2936WAT      O 9049   2.155   3.558   6.859
 2936WAT     H1 9050   2.246   3.596   6.871
 2936WAT     H2 9051   2.116   3.534   6.948
 2937WAT      O 9052   0.652   9.784   8.234
 2937WAT     H1 9053   0.631   9.753   8.327
 2937WAT     H2 9054   0.573   9.768   8.175
 2938WAT      O 9055   2.763   2.002   4.243
 2938WAT     H1 9056   2.763   2.079   4.306
 2938WAT     H2 9057   2.677   1.951   4.253
 2939WAT      O 9058   7.701   2.159   8.496
 2939WAT     H1 9059   7.646   2.097   8.440
 2939WAT     H2 9060   7.773   2.107   8.542
 2940WAT      O 9061   4.260   9.408   4.133
 2940WAT     H1 9062   4.339   9.456   4.171
 2940WAT     H2 9063   4.227   9.341   4.200
 2941WAT      O 9064   4.447   5.564   8.327
 2941WAT     H1 9065   4.459   5.654   8.284
 2941WAT     H2 9066   4.420   5.498   8.257
 2942WAT      O 9067   5.467   3.490   7.973
 2942WAT     H1 9068   5.421   3.439   8.046
 2942WAT     H2 9069   5.461   3.588   7.992
 2943WAT      O 9070   6.517   4.930   6.880
 2943WAT     H1 9071   6.435   4.955   6.828
 2943WAT     H2 9072   6.570   4.864   6.827
 2944WAT      O 9073   7.521   0.636   2.523
 2944WAT     H1 9074   7.596   0.689   2.484
 2944WAT     H2 9075   7.451   0.621   2.454
 2945WAT      O 9076   1.641   4.484   0.796
 2945WAT     H1 9077   1.587   4.461   0.716
 2945WAT     H2 9078   1.622   4.418   0.869
 2946WAT      O 9079   4.624   2.909   9.576
 2946WAT     H1 9080   4.581   3.000   9.570
 2946WAT     H2 9081   4.668   2.888   9.489
 2947WAT      O 9082   3.547   8.453   0.912
 2947WAT     H1 9083   3.482   8.485   0.980
 2947WAT     H2 9084   3.634   8.431   0.956
 2948WAT      O 9085   3.767   4.759   1.614
 2948WAT     H1 9086   3.690   4.745   1.676
 2948WAT     H2 9087   3.828   4.829   1.653
 2949WAT      O 9088   3.564   9.447   9.824
 2949WAT     H1 9089   3.506   9.502   9.763
 2949WAT     H2 9090   3.595   9.366   9.775
 2950WAT      O 9091   1.455   5.418   9.722
 2950WAT     H1 9092   1.496   5.390   9.809
 2950WAT     H2 9093   1.435   5.516   9.725
 2951WAT      O 9094   5.130   4.590   3.419
 2951WAT     H1 9095   5.118   4.491   3.408
 2951WAT     H2 9096   5.219   4.618   3.383
 2952WAT      O 9097   4.289   1.562   2.744
 2952WAT     H1 9098   4.300   1.596   2.650
 2952WAT     H2 9099   4.270   1.464   2.743
 2953WAT      O 9100   3.711   6.647   1.263
 2953WAT     H1 9101   3.753   6.557   1.257
 2953WAT     H2 9102   3.611   6.638   1.258
 2954WAT      O 9103   1.945   1.060   9.338
 2954WAT     H1 9104   1.945   0.974   9.390
 2954WAT     H2 9105   1.893   1.048   9.253
 2955WAT      O 9106   7.056   6.245   1.977
 2955WAT     H1 9107   7.010   6.159   1.955
 2955WAT     H2 9108   7.068   6.253   2.076
 2956WAT      O 9109   6.756   6.290   1.495
 2956WAT     H1 9110   6.809   6.214   1.457
 2956WAT     H2 9111   6.728   6.268   1.588
 2957WAT      O 9112   5.738   7.525   9.177
 2957WAT     H1 9113   5.669   7.491   9.113
 2957WAT     H2 9114   5.721   7.487   9.268
 2958WAT      O 9115   4.770   3.809   4.363
 2958WAT     H1 9116   4.765   3.897   4.318
 2958WAT     H2 9117   4.841   3.753   4.319
 2959WAT      O 9118   8.552   6.139   9.655
 2959WAT     H1 9119   8.569   6.048   9.618
 2959WAT     H2 9120   8.570   6.138   9.754
 2960WAT      O 9121   2.877   2.159   1.017
 2960WAT     H1 9122   2.798   2.121   0.968
 2960WAT     H2 9123   2.950   2.178   0.951
 2961WAT      O 9124   4.643   4.474   6.075
 2961WAT     H1 9125   4.545   4.484   6.059
 2961WAT     H2 9126   4.662   4.385   6.116
 2962WAT      O 9127   5.383   3.353   6.933
 2962WAT     H1 9128   5.462   3.407   6.964
 2962WAT     H2 9129   5.412   3.293   6.859
 2963WAT      O 9130   7.471   0.472   9.735
 2963WAT     H1 9131   7.432   0.527   9.662
 2963WAT     H2 9132   7.403   0.405   9.767
 2964WAT      O 9133   3.407   6.869   5.556
 2964WAT     H1 9134   3.345   6.937   5.596
 2964WAT     H2 9135   3.432   6.801   5.625
 2965WAT      O 9136   5.548   7.680   1.970
 2965WAT     H1 9137   5.604   7.603   1.941
 2965WAT     H2 9138   5.452   7.650   1.976
 2966WAT      O 9139   8.053   2.721   3.708
 2966WAT     H1 9140   7.979   2.778   3.672
 2966WAT     H2 9141   8.021   2.674   3.790
 2967WAT      O 9142   7.048   8.106   2.310
 2967WAT     H1 9143   7.073   8.194   2.350
 2967WAT     H2 9144   6.964   8.117   2.256
 2968WAT      O 9145   0.711   0.636   5.699
 2968WAT     H1 9146   0.702   0.725   5.653
 2968WAT     H2 9147   0.699   0.648   5.797
 2969WAT      O 9148   8.743   8.098   3.149
 2969WAT     H1 9149   8.826   8.145   3.118
 2969WAT     H2 9150   8.767   8.010   3.189
 2970WAT      O 9151   9.701   3.021   9.032
 2970WAT     H1 9152   9.640   2.981   8.964
 2970WAT     H2 9153   9.716   3.118   9.010
 2971WAT      O 9154   1.284   2.993   4.927
 2971WAT     H1 9155   1.352   2.933   4.884
 2971WAT     H2 9156   1.196   2.980   4.883
 2972WAT      O 9157   2.287   9.251   0.481
 2972WAT     H1 9158   2.256   9.201   0.400
 2972WAT     H2 9159   2.240   9.340   0.485
 2973WAT      O 9160   5.740   1.127   1.985
 2973WAT     H1 9161   5.836   1.130   1.958
 2973WAT     H2 9162   5.723   1.043   2.037
 2974WAT      O 9163   3.808   9.719   5.385
 2974WAT     H1 9164   3.896   9.706   5.340
 2974WAT     H2 9165   3.814   9.796   5.449
 2975WAT      O 9166   1.843   8.416   2.530
 2975WAT     H1 9167   1.856   8.482   2.604
 2975WAT     H2 9168   1.932   8.385   2.497
 2976WAT      O 9169   7.150   6.588   9.630
 2976WAT     H1 9170   7.107   6.644   9.560
 2976WAT     H2 9171   7.190   6.507   9.589
 2977WAT      O 9172   9.848   0.038   6.676
 2977WAT     H1 9173   9.757   0.007   6.705
 2977WAT     H2 9174   9.906  -0.041   6.658
 2978WAT      O 9175   1.255   8.475   4.422
 2978WAT     H1 9176   1.174   8.531   4.403
 2978WAT     H2 9177   1.337   8.532   4.419
 2979WAT      O 9178   3.509   6.573   0.695
 2979WAT     H1 9179   3.591   6.630   0.704
 2979WAT     H2 9180   3.456   6.602   0.615
 2980WAT      O 9181   0.096   8.929   5.995
 2980WAT     H1 9182   0.138   8.840   5.980
 2980WAT     H2 9183   0.021   8.920   6.061
 2981WAT      O 9184   2.069   5.350   1.176
 2981WAT     H1 9185   2.104   5.439   1.149
 2981WAT     H2 9186   2.138   5.303   1.233
 2982WAT      O 9187   8.741   7.364   3.866
 2982WAT     H1 9188   8.644   7.348   3.885
 2982WAT     H2 9189   8.752   7.404   3.775
 2983WAT      O 9190   9.817   0.701   2.935
 2983WAT     H1 9191   9.722   0.671   2.942
 2983WAT     H2 9192   9.865   0.681   3.021
 2984WAT      O 9193   0.324   4.728   9.039
 2984WAT     H1 9194   0.347   4.785   9.118
 2984WAT     H2 9195   0.270   4.650   9.069
 2985WAT      O 9196   7.417   6.018   8.926
 2985WAT     H1 9197   7.390   6.061   9.013
 2985WAT     H2 9198   7.517   6.009   8.924
 2986WAT      O 9199   3.773   6.479   6.659
 2986WAT     H1 9200   3.847   6.540   6.686
 2986WAT     H2 9201   3.780   6.393   6.711
 2987WAT      O 9202   9.470   3.306   7.525
 2987WAT     H1 9203   9.561   3.284   7.491
 2987WAT     H2 9204   9.453   3.258   7.611
 2988WAT      O 9205   3.906   5.510   5.867
 2988WAT     H1 9206   3.981   5.532   5.929
 2988WAT     H2 9207   3.863   5.424   5.895
 2989WAT      O 9208   9.566   8.107   6.318
 2989WAT     H1 9209   9.468   8.095   6.338
 2989WAT     H2 9210   9.608   8.160   6.391
 2990WAT      O 9211   2.658   6.976   3.326
 2990WAT     H1 9212   2.659   7.011   3.232
 2990WAT     H2 9213   2.623   7.047   3.387
 2991WAT      O 9214   6.047   8.051   6.834
 2991WAT     H1 9215   6.142   8.025   6.847
 2991WAT     H2 9216   6.033   8.082   6.740
 2992WAT      O 9217   6.009   4.046   4.134
 2992WAT     H1 9218   5.980   4.042   4.229
 2992WAT     H2 9219   5.931   4.069   4.076
 2993WAT      O 9220   8.873   0.043   8.229
 2993WAT     H1 9221   8.874  -0.045   8.277
 2993WAT     H2 9222   8.783   0.085   8.242
 2994WAT      O 9223   2.310   6.622   4.702
 2994WAT     H1 9224   2.379   6.602   4.633
 2994WAT     H2 9225   2.335   6.576   4.788
 2995WAT      O 9226   9.124   3.237   4.160
 2995WAT     H1 9227   9.139   3.259   4.256
 2995WAT     H2 9228   9.211   3.239   4.111
 2996WAT      O 9229   2.072   0.297   1.997
 2996WAT     H1 9230   2.092   0.235   2.073
 2996WAT     H2 9231   2.016   0.250   1.930
 2997WAT      O 9232   7.135   3.334   9.321
 2997WAT     H1 9233   7.055   3.302   9.372
 2997WAT     H2 9234   7.203   3.369   9.384
 2998WAT      O 9235   8.151   0.569   3.839
 2998WAT     H1 9236   8.231   0.510   3.831
 2998WAT     H2 9237   8.171   0.645   3.900
 2999WAT      O 9238   7.545   8.521   0.810
 2999WAT     H1 9239   7.490   8.546   0.889
 2999WAT     H2 9240   7.534   8.589   0.738
 3000WAT      O 9241   2.084   2.601   4.286
 3000WAT     H1 9242   2.118   2.600   4.380
 3000WAT     H2 9243   2.000   2.546   4.280
 3001WAT      O 9244   7.326   6.772   8.706
 3001WAT     H1 9245   7.390   6.695   8.709
 3001WAT     H2 9246   7.351   6.834   8.632
 3002WAT      O 9247   6.553   4.808   4.369
 3002WAT     H1 9248   6.610   4.801   4.451
 3002WAT     H2 9249   6.559   4.724   4.316
 3003WAT      O 9250   4.031   1.271   6.769
 3003WAT     H1 9251   4.008   1.189   6.717
 3003WAT     H2 9252   4.053   1.245   6.863
 3004WAT      O 9253   8.367   9.746   9.110
 3004WAT     H1 9254   8.431   9.732   9.186
 3004WAT     H2 9255   8.296   9.810   9.138
 3005WAT      O 9256   2.045   6.472   6.966
 3005WAT     H1 9257   1.973   6.402   6.968
 3005WAT     H2 9258   2.134   6.428   6.976
 3006WAT      O 9259   2.286   6.744   9.053
 3006WAT     H1 9260   2.196   6.733   9.012
 3006WAT     H2 9261   2.330   6.826   9.016
 3007WAT      O 9262   4.469   1.400   7.308
 3007WAT     H1 9263   4.495   1.490   7.342
 3007WAT     H2 9264   4.369   1.392   7.309
 3008WAT      O 9265   0.502   4.892   7.504
 3008WAT     H1 9266   0.545   4.920   7.590
 3008WAT     H2 9267   0.466   4.799   7.514
 3009WAT      O 9268   9.248   1.345   9.123
 3009WAT     H1 9269   9.182   1.296   9.065
 3009WAT     H2 9270   9.319   1.386   9.066
 3010WAT      O 9271   0.748   3.458   5.710
 3010WAT     H1 9272   0.676   3.403   5.669
 3010WAT     H2 9273   0.709   3.536   5.757
 3011WAT      O 9274   9.120   1.915   5.075
 3011WAT     H1 9275   9.182   1.968   5.018
 3011WAT     H2 9276   9.150   1.820   5.078
 3012WAT      O 9277   5.174   7.886   4.375
 3012WAT     H1 9278   5.185   7.955   4.446
 3012WAT     H2 9279   5.247   7.818   4.383
 3013WAT      O 9280   5.174   3.537   2.147
 3013WAT     H1 9281   5.230   3.463   2.185
 3013WAT     H2 9282   5.083   3.502   2.125
 3014WAT      O 9283   3.515   8.909   4.940
 3014WAT     H1 9284   3.519   8.986   4.876
 3014WAT     H2 9285   3.431   8.915   4.994
 3015WAT      O 9286   7.374   5.936   7.950
 3015WAT     H1 9287   7.351   6.033   7.953
 3015WAT     H2 9288   7.330   5.893   7.871
 3016WAT      O 9289   6.567   7.126   3.461
 3016WAT     H1 9290   6.508   7.046   3.466
 3016WAT     H2 9291   6.515   7.208   3.487
 3017WAT      O 9292   8.383   0.566   7.452
 3017WAT     H1 9293   8.396   0.487   7.512
 3017WAT     H2 9294   8.330   0.636   7.499
 3018WAT      O 9295   5.691   8.418   4.157
 3018WAT     H1 9296   5.740   8.367   4.087
 3018WAT     H2 9297   5.593   8.399   4.151
 3019WAT      O 9298   2.949   4.889   1.186
 3019WAT     H1 9299   3.021   4.958   1.196
 3019WAT     H2 9300   2.982   4.815   1.128
 3020WAT      O 9301   8.202   3.135   0.576
 3020WAT     H1 9302   8.251   3.169   0.496
 3020WAT     H2 9303   8.131   3.071   0.548
 3021WAT      O 9304   6.888   6.907   3.625
 3021WAT     H1 9305   6.964   6.910   3.689
 3021WAT     H2 9306   6.804   6.938   3.671
 3022WAT      O 9307   0.786   1.126   1.388
 3022WAT     H1 9308   0.780   1.028   1.367
 3022WAT     H2 9309   0.872   1.162   1.352
 3023WAT      O 9310   3.003   2.792   7.392
 3023WAT     H1 9311   2.969   2.733   7.319
 3023WAT     H2 9312   3.052   2.736   7.459
 3024WAT      O 9313   8.379   3.618   1.378
 3024WAT     H1 9314   8.357   3.613   1.281
 3024WAT     H2 9315   8.296   3.605   1.432
 3025WAT      O 9316   7.313   0.929   8.352
 3025WAT     H1 9317   7.357   0.976   8.428
 3025WAT     H2 9318   7.233   0.980   8.322
 3026WAT      O 9319   7.223   3.851   7.201
 3026WAT     H1 9320   7.144   3.825   7.146
 3026WAT     H2 9321   7.210   3.944   7.236
 3027WAT      O 9322   4.546   6.581   8.631
 3027WAT     H1 9323   4.532   6.483   8.646
 3027WAT     H2 9324   4.644   6.601   8.634
 3028WAT      O 9325   7.474   3.694   8.353
 3028WAT     H1 9326   7.555   3.635   8.350
 3028WAT     H2 9327   7.481   3.764   8.282
 3029WAT      O 9328   1.071   2.946   8.660
 3029WAT     H1 9329   1.061   2.892   8.577
 3029WAT     H2 9330   1.111   3.034   8.638
 3030WAT      O 9331   3.446   5.744   2.101
 3030WAT     H1 9332   3.544   5.748   2.120
 3030WAT     H2 9333   3.431   5.760   2.003
 3031WAT      O 9334   0.367   4.853   9.801
 3031WAT     H1 9335   0.291   4.801   9.762
 3031WAT     H2 9336   0.378   4.829   9.897
 3032WAT      O 9337   8.387   2.888   9.766
 3032WAT     H1 9338   8.391   2.910   9.863
 3032WAT     H2 9339   8.480   2.868   9.733
 3033WAT      O 9340   1.251   0.737   7.139
 3033WAT     H1 9341   1.348   0.735   7.114
 3033WAT     H2 9342   1.198   0.778   7.065
 3034WAT      O 9343   9.205   7.455   6.859
 3034WAT     H1 9344   9.125   7.397   6.876
 3034WAT     H2 9345   9.268   7.448   6.935
 3035WAT      O 9346   7.590   9.165   6.045
 3035WAT     H1 9347   7.569   9.182   6.142
 3035WAT     H2 9348   7.531   9.092   6.011
 3036WAT      O 9349   6.237   4.453   1.762
 3036WAT     H1 9350   6.274   4.441   1.854
 3036WAT     H2 9351   6.175   4.378   1.741
 3037WAT      O 9352   3.858   8.405   8.519
 3037WAT     H1 9353   3.834   8.371   8.610
 3037WAT     H2 9354   3.820   8.345   8.449
 3038WAT      O 9355   4.945   4.053   3.524
 3038WAT     H1 9356   4.995   4.057   3.611
 3038WAT     H2 9357   4.883   4.131   3.518
 3039WAT      O 9358   8.299   0.919   1.014
 3039WAT     H1 9359   8.216   0.867   0.997
 3039WAT     H2 9360   8.378   0.869   0.977
 3040WAT      O 9361   4.763   0.402   0.610
 3040WAT     H1 9362   4.749   0.500   0.594
 3040WAT     H2 9363   4.861   0.381   0.602
 3041WAT      O 9364   4.197   6.500   6.280
 3041WAT     H1 9365   4.110   6.541   6.253
 3041WAT     H2 9366   4.272   6.556   6.244
 3042WAT      O 9367   2.020   2.498   2.323
 3042WAT     H1 9368   1.948   2.526   2.259
 3042WAT     H2 9369   1.992   2.415   2.372
 3043WAT      O 9370   9.866   9.460   7.818
 3043WAT     H1 9371   9.809   9.387   7.856
 3043WAT     H2 9372   9.932   9.422   7.754
 3044WAT      O 9373   7.568   7.818   7.781
 3044WAT     H1 9374   7.495   7.865   7.831
 3044WAT     H2 9375   7.598   7.738   7.831
 3045WAT      O 9376   2.506   4.508   2.666
 3045WAT     H1 9377   2.554   4.593   2.647
 3045WAT     H2 9378   2.408   4.522   2.659
 3046WAT      O 9379   2.753   0.922   6.552
 3046WAT     H1 9380   2.750   0.847   6.618
 3046WAT     H2 9381   2.833   0.910   6.492
 3047WAT      O 9382   5.289   8.699   9.755
 3047WAT     H1 9383   5.190   8.688   9.752
 3047WAT     H2 9384   5.324   8.673   9.845
 3048WAT      O 9385   9.010   7.921   5.656
 3048WAT     H1 9386   9.011   7.995   5.723
 3048WAT     H2 9387   9.086   7.858   5.673
 3049WAT      O 9388   4.530   8.490   1.513
 3049WAT     H1 9389   4.473   8.485   1.431
 3049WAT     H2 9390   4.471   8.500   1.594
 3050WAT      O 9391   1.553   1.850   4.230
 3050WAT     H1 9392   1.480   1.909   4.265
 3050WAT     H2 9393   1.641   1.880   4.265
 3051WAT      O 9394   8.779   0.686   2.995
 3051WAT     H1 9395   8.726   0.623   2.939
 3051WAT     H2 9396   8.726   0.712   3.076
 3052WAT      O 9397   0.573   6.382   3.988
 3052WAT     H1 9398   0.491   6.359   3.935
 3052WAT     H2 9399   0.580   6.320   4.066
 3053WAT      O 9400   9.773   0.550   7.079
 3053WAT     H1 9401   9.861   0.528   7.121
 3053WAT     H2 9402   9.700   0.533   7.145
 3054WAT      O 9403   3.916   1.086   4.565
 3054WAT     H1 9404   3.858   1.139   4.628
 3054WAT     H2 9405   4.011   1.112   4.579
 3055WAT      O 9406   2.900   9.708   7.671
 3055WAT     H1 9407   2.843   9.674   7.746
 3055WAT     H2 9408   2.951   9.789   7.701
 3056WAT      O 9409   1.440   6.176   3.721
 3056WAT     H1 9410   1.441   6.079   3.743
 3056WAT     H2 9411   1.431   6.229   3.805
 3057WAT      O 9412   4.801   9.657   0.556
 3057WAT     H1 9413   4.767   9.620   0.643
 3057WAT     H2 9414   4.796   9.586   0.486
 3058WAT      O 9415   2.770   2.422   6.043
 3058WAT     H1 9416   2.794   2.345   5.984
 3058WAT     H2 9417   2.720   2.490   5.990
 3059WAT      O 9418   0.269   3.857   2.801
 3059WAT     H1 9419   0.308   3.841   2.710
 3059WAT     H2 9420   0.186   3.912   2.793
 3060WAT      O 9421   2.238   7.271   2.324
 3060WAT     H1 9422   2.252   7.180   2.285
 3060WAT     H2 9423   2.326   7.315   2.340
 3061WAT      O 9424   0.917   2.282   2.748
 3061WAT     H1 9425   0.825   2.309   2.721
 3061WAT     H2 9426   0.980   2.299   2.673
 3062WAT      O 9427   6.301   2.852   8.773
 3062WAT     H1 9428   6.321   2.859   8.871
 3062WAT     H2 9429   6.220   2.907   8.752
 3063WAT      O 9430   7.533   6.632   6.930
 3063WAT     H1 9431   7.541   6.580   7.015
 3063WAT     H2 9432   7.440   6.621   6.894
 3064WAT      O 9433   7.265   6.095   4.413
 3064WAT     H1 9434   7.284   6.085   4.510
 3064WAT     H2 9435   7.230   6.187   4.395
 3065WAT      O 9436   8.601   1.616   9.641
 3065WAT     H1 9437   8.622   1.577   9.551
 3065WAT     H2 9438   8.673   1.680   9.667
 3066WAT      O 9439   3.842   9.598   2.292
 3066WAT     H1 9440   3.826   9.503   2.263
 3066WAT     H2 9441   3.755   9.643   2.309
 3067WAT      O 9442   8.074   5.294   9.538
 3067WAT     H1 9443   8.086   5.378   9.486
 3067WAT     H2 9444   8.132   5.222   9.499
 3068WAT      O 9445   4.699   8.503   5.433
 3068WAT     H1 9446   4.624   8.568   5.448
 3068WAT     H2 9447   4.703   8.439   5.510
 3069WAT      O 9448   3.168   2.901   1.058
 3069WAT     H1 9449   3.241   2.838   1.033
 3069WAT     H2 9450   3.083   2.873   1.012
 3070WAT      O 9451   8.903   0.589   7.558
 3070WAT     H1 9452   8.894   0.570   7.656
 3070WAT     H2 9453   8.817   0.629   7.524
 3071WAT      O 9454   1.453   3.539   8.494
 3071WAT     H1 9455   1.386   3.485   8.442
 3071WAT     H2 9456   1.436   3.529   8.592
 3072WAT      O 9457   2.378   5.303   8.012
 3072WAT     H1 9458   2.317   5.372   7.973
 3072WAT     H2 9459   2.354   5.213   7.977
 3073WAT      O 9460   2.164   4.587   2.109
 3073WAT     H1 9461   2.149   4.541   2.022
 3073WAT     H2 9462   2.220   4.669   2.095
 3074WAT      O 9463   0.652   3.501   0.271
 3074WAT     H1 9464   0.703   3.416   0.263
 3074WAT     H2 9465   0.576   3.501   0.206
 3075WAT      O 9466   7.205   4.497   9.796
 3075WAT     H1 9467   7.300   4.466   9.792
 3075WAT     H2 9468   7.203   4.596   9.810
 3076WAT      O 9469   6.410   6.921   9.066
 3076WAT     H1 9470   6.361   7.008   9.072
 3076WAT     H2 9471   6.440   6.904   8.972
 3077WAT      O 9472   0.114   3.173   0.671
 3077WAT     H1 9473   0.071   3.102   0.728
 3077WAT     H2 9474   0.075   3.262   0.695
 3078WAT      O 9475   1.209   0.624   1.102
 3078WAT     H1 9476   1.165   0.557   1.042
 3078WAT     H2 9477   1.141   0.688   1.136
 3079WAT      O 9478   4.428   9.123   7.856
 3079WAT     H1 9479   4.413   9.119   7.954
 3079WAT     H2 9480   4.481   9.205   7.833
 3080WAT      O 9481   2.723   8.343   8.535
 3080WAT     H1 9482   2.823   8.342   8.547
 3080WAT     H2 9483   2.689   8.436   8.547
 3081WAT      O 9484   0.231   7.933   8.317
 3081WAT     H1 9485   0.177   8.013   8.291
 3081WAT     H2 9486   0.180   7.850   8.295
 3082WAT      O 9487   6.330   0.799   1.505
 3082WAT     H1 9488   6.389   0.776   1.427
 3082WAT     H2 9489   6.375   0.867   1.562
 3083WAT      O 9490   5.516   7.676   9.451
 3083WAT     H1 9491   5.522   7.594   9.394
 3083WAT     H2 9492   5.503   7.756   9.393
 3084WAT      O 9493   7.939   4.423   4.434
 3084WAT     H1 9494   7.951   4.460   4.526
 3084WAT     H2 9495   7.867   4.353   4.436
 3085WAT      O 9496   8.776   0.360   9.435
 3085WAT     H1 9497   8.692   0.375   9.383
 3085WAT     H2 9498   8.788   0.434   9.501
 3086WAT      O 9499   6.184   3.956   3.491
 3086WAT     H1 9500   6.205   4.037   3.544
 3086WAT     H2 9501   6.261   3.892   3.496
 3087WAT      O 9502   1.853   6.182   0.588
 3087WAT     H1 9503   1.933   6.123   0.594
 3087WAT     H2 9504   1.788   6.158   0.660
 3088WAT      O 9505   1.232   0.500   2.932
 3088WAT     H1 9506   1.212   0.547   3.018
 3088WAT     H2 9507   1.200   0.556   2.855
 3089WAT      O 9508   4.170   6.313   1.835
 3089WAT     H1 9509   4.120   6.319   1.748
 3089WAT     H2 9510   4.196   6.405   1.864
 3090WAT      O 9511   5.803   4.960   6.147
 3090WAT     H1 9512   5.827   4.969   6.050
 3090WAT     H2 9513   5.784   4.864   6.168
 3091WAT      O 9514   2.117   0.841   5.806
 3091WAT     H1 9515   2.121   0.828   5.707
 3091WAT     H2 9516   2.207   0.823   5.846
 3092WAT      O 9517   3.767   2.805   7.696
 3092WAT     H1 9518   3.828   2.794   7.618
 3092WAT     H2 9519   3.821   2.820   7.779
 3093WAT      O 9520   1.352   3.278   2.921
 3093WAT     H1 9521   1.288   3.202   2.918
 3093WAT     H2 9522   1.446   3.243   2.922
 3094WAT      O 9523   6.677   8.444   7.164
 3094WAT     H1 9524   6.761   8.496   7.179
 3094WAT     H2 9525   6.630   8.430   7.251
 3095WAT      O 9526   3.617   0.255   8.628
 3095WAT     H1 9527   3.677   0.204   8.689
 3095WAT     H2 9528   3.530   0.274   8.675
 3096WAT      O 9529   6.359   7.376   1.833
 3096WAT     H1 9530   6.401   7.286   1.821
 3096WAT     H2 9531   6.302   7.376   1.916
 3097WAT      O 9532   0.015   4.353   5.304
 3097WAT     H1 9533   0.029   4.257   5.280
 3097WAT     H2 9534   0.013   4.362   5.404
 3098WAT      O 9535   0.997   3.358   6.556
 3098WAT     H1 9536   0.948   3.278   6.591
 3098WAT     H2 9537   0.985   3.363   6.457
 3099WAT      O 9538   2.546   2.798   1.304
 3099WAT     H1 9539   2.462   2.787   1.357
 3099WAT     H2 9540   2.620   2.827   1.365
 3100WAT      O 9541   5.167   3.470   3.780
 3100WAT     H1 9542   5.257   3.493   3.818
 3100WAT     H2 9543   5.097   3.528   3.822
 3101WAT      O 9544   9.494   4.367   0.286
 3101WAT     H1 9545   9.512   4.461   0.257
 3101WAT     H2 9546   9.570   4.335   0.343
 3102WAT      O 9547   4.578   6.730   6.782
 3102WAT     H1 9548   4.484   6.702   6.763
 3102WAT     H2 9549   4.621   6.664   6.844
 3103WAT      O 9550   4.613   9.745   7.641
 3103WAT     H1 9551   4.617   9.659   7.590
 3103WAT     H2 9552   4.541   9.739   7.710
 3104WAT      O 9553   8.018   2.037   9.400
 3104WAT     H1 9554   7.959   2.116   9.385
 3104WAT     H2 9555   7.979   1.957   9.354
 3105WAT      O 9556   0.614   7.821   3.344
 3105WAT     H1 9557   0.537   7.783   3.395
 3105WAT     H2 9558   0.588   7.910   3.306
 3106WAT      O 9559   7.265   6.779   1.596
 3106WAT     H1 9560   7.296   6.686   1.617
 3106WAT     H2 9561   7.203   6.810   1.668
 3107WAT      O 9562   8.039   2.764   2.709
 3107WAT     H1 9563   8.002   2.738   2.619
 3107WAT     H2 9564   7.992   2.845   2.743
 3108WAT      O 9565   7.967   1.247   5.209
 3108WAT     H1 9566   7.903   1.172   5.226
 3108WAT     H2 9567   8.048   1.237   5.267
 3109WAT      O 9568   1.824   6.332   6.898
 3109WAT     H1 9569   1.784   6.247   6.864
 3109WAT     H2 9570   1.808   6.405   6.832
 3110WAT      O 9571   3.346   3.100   2.934
 3110WAT     H1 9572   3.253   3.081   2.966
 3110WAT     H2 9573   3.367   3.196   2.949
 3111WAT      O 9574   7.531   2.824   2.249
 3111WAT     H1 9575   7.473   2.869   2.317
 3111WAT     H2 9576   7.547   2.729   2.276
 3112WAT      O 9577   4.783   2.208   5.810
 3112WAT     H1 9578   4.778   2.151   5.728
 3112WAT     H2 9579   4.804   2.151   5.890
 3113WAT      O 9580   2.147   8.307   8.335
 3113WAT     H1 9581   2.136   8.234   8.268
 3113WAT     H2 9582   2.233   8.355   8.319
 3114WAT      O 9583   4.578   6.630   0.294
 3114WAT     H1 9584   4.627   6.544   0.278
 3114WAT     H2 9585   4.510   6.643   0.222
 3115WAT      O 9586   5.896   7.333   1.503
 3115WAT     H1 9587   5.834   7.408   1.481
 3115WAT     H2 9588   5.954   7.360   1.580
 3116WAT      O 9589   4.022   5.824   6.325
 3116WAT     H1 9590   3.980   5.834   6.235
 3116WAT     H2 9591   4.097   5.889   6.333
 3117WAT      O 9592   6.790   4.768   6.949
 3117WAT     H1 9593   6.714   4.747   7.010
 3117WAT     H2 9594   6.844   4.844   6.987
 3118WAT      O 9595   3.734   7.545   3.758
 3118WAT     H1 9596   3.683   7.597   3.826
 3118WAT     H2 9597   3.676   7.528   3.679
 3119WAT      O 9598   3.601   6.136   4.029
 3119WAT     H1 9599   3.571   6.232   4.028
 3119WAT     H2 9600   3.589   6.097   3.938
 3120WAT      O 9601   5.660   8.161   8.690
 3120WAT     H1 9602   5.728   8.100   8.647
 3120WAT     H2 9603   5.700   8.252   8.701
 3121WAT      O 9604   0.983   6.331   4.129
 3121WAT     H1 9605   0.952   6.241   4.160
 3121WAT     H2 9606   0.974   6.337   4.030
 3122WAT      O 9607   6.418   8.670   0.383
 3122WAT     H1 9608   6.335   8.690   0.331
 3122WAT     H2 9609   6.496   8.716   0.341
 3123WAT      O 9610   8.664   0.675   7.489
 3123WAT     H1 9611   8.680   0.774   7.479
 3123WAT     H2 9612   8.567   0.655   7.475
 3124WAT      O 9613   7.822   7.883   9.103
 3124WAT     H1 9614   7.866   7.973   9.096
 3124WAT     H2 9615   7.724   7.895   9.118
 3125WAT      O 9616   3.867   2.472   8.559
 3125WAT     H1 9617   3.911   2.441   8.475
 3125WAT     H2 9618   3.936   2.504   8.623
 3126WAT      O 9619   5.439   3.520   8.884
 3126WAT     H1 9620   5.351   3.505   8.927
 3126WAT     H2 9621   5.460   3.444   8.822
 3127WAT      O 9622   4.518   1.998   7.072
 3127WAT     H1 9623   4.613   2.025   7.087
 3127WAT     H2 9624   4.499   1.997   6.974
 3128WAT      O 9625   7.048   9.535   7.188
 3128WAT     H1 9626   7.041   9.634   7.200
 3128WAT     H2 9627   7.137   9.512   7.150
 3129WAT      O 9628   2.456   5.720   3.429
 3129WAT     H1 9629   2.512   5.679   3.357
 3129WAT     H2 9630   2.375   5.761   3.389
 3130WAT      O 9631   4.963   9.480   3.726
 3130WAT     H1 9632   4.870   9.512   3.743
 3130WAT     H2 9633   5.024   9.558   3.717
 3131WAT      O 9634   3.856   3.526   4.996
 3131WAT     H1 9635   3.890   3.585   5.069
 3131WAT     H2 9636   3.882   3.431   5.015
 3132WAT      O 9637   5.011   7.041   3.154
 3132WAT     H1 9638   4.964   7.064   3.068
 3132WAT     H2 9639   5.094   7.096   3.162
 3133WAT      O 9640   6.761   5.529   1.627
 3133WAT     H1 9641   6.759   5.522   1.727
 3133WAT     H2 9642   6.694   5.465   1.588
 3134WAT      O 9643   5.421   8.274   5.259
 3134WAT     H1 9644   5.370   8.338   5.316
 3134WAT     H2 9645   5.503   8.243   5.307
 3135WAT      O 9646   6.600   8.373   0.179
 3135WAT     H1 9647   6.573   8.310   0.107
 3135WAT     H2 9648   6.693   8.407   0.161
 3136WAT      O 9649   3.426   6.656   5.759
 3136WAT     H1 9650   3.373   6.573   5.746
 3136WAT     H2 9651   3.370   6.725   5.805
 3137WAT      O 9652   6.303   2.047   2.120
 3137WAT     H1 9653   6.366   2.111   2.164
 3137WAT     H2 9654   6.220   2.096   2.092
 3138WAT      O 9655   7.196   5.735   7.854
 3138WAT     H1 9656   7.254   5.666   7.898
 3138WAT     H2 9657   7.135   5.690   7.788
 3139WAT      O 9658   3.853   7.653   7.036
 3139WAT     H1 9659   3.843   7.576   7.099
 3139WAT     H2 9660   3.911   7.723   7.078
 3140WAT      O 9661   6.421   4.594   7.436
 3140WAT     H1 9662   6.458   4.566   7.347
 3140WAT     H2 9663   6.489   4.576   7.507
 3141WAT      O 9664   1.855   5.582   6.747
 3141WAT     H1 9665   1.829   5.502   6.801
 3141WAT     H2 9666   1.778   5.612   6.691
 3142WAT      O 9667   0.929   2.140   4.055
 3142WAT     H1 9668   1.020   2.161   4.019
 3142WAT     H2 9669   0.861   2.195   4.007
 3143WAT      O 9670   3.790   9.147   3.593
 3143WAT     H1 9671   3.860   9.213   3.565
 3143WAT     H2 9672   3.726   9.192   3.656
 3144WAT      O 9673   0.690   7.445   0.096
 3144WAT     H1 9674   0.678   7.536   0.136
 3144WAT     H2 9675   0.787   7.425   0.088
 3145WAT      O 9676   4.603   2.187   8.848
 3145WAT     H1 9677   4.579   2.259   8.783
 3145WAT     H2 9678   4.547   2.105   8.831
 3146WAT      O 9679   0.486   9.431   5.425
 3146WAT     H1 9680   0.571   9.459   5.383
 3146WAT     H2 9681   0.421   9.507   5.422
 3147WAT      O 9682   2.999   8.086   9.635
 3147WAT     H1 9683   2.910   8.061   9.596
 3147WAT     H2 9684   3.044   8.004   9.669
 3148WAT      O 9685   1.088   7.534   2.186
 3148WAT     H1 9686   1.004   7.573   2.222
 3148WAT     H2 9687   1.160   7.538   2.256
 3149WAT      O 9688   2.432   3.760   8.025
 3149WAT     H1 9689   2.366   3.811   7.969
 3149WAT     H2 9690   2.428   3.793   8.119
 3150WAT      O 9691   2.171   7.174   8.355
 3150WAT     H1 9692   2.241   7.244   8.372
 3150WAT     H2 9693   2.213   7.083   8.360
 3151WAT      O 9694   6.769   6.053   0.946
 3151WAT     H1 9695   6.735   5.960   0.951
 3151WAT     H2 9696   6.722   6.102   0.872
 3152WAT      O 9697   0.792   4.079   1.799
 3152WAT     H1 9698   0.871   4.019   1.792
 3152WAT     H2 9699   0.818   4.172   1.773
 3153WAT      O 9700   4.016   3.625   2.460
 3153WAT     H1 9701   4.068   3.561   2.516
 3153WAT     H2 9702   4.079   3.678   2.403
 3154WAT      O 9703   5.354   8.069   3.759
 3154WAT     H1 9704   5.421   8.069   3.833
 3154WAT     H2 9705   5.393   8.023   3.679
 3155WAT      O 9706   0.305   3.048   3.659
 3155WAT     H1 9707   0.311   3.080   3.564
 3155WAT     H2 9708   0.244   3.108   3.711
 3156WAT      O 9709   6.051   0.381   2.808
 3156WAT     H1 9710   5.978   0.437   2.848
 3156WAT     H2 9711   6.102   0.336   2.881
 3157WAT      O 9712   2.422   5.522   7.631
 3157WAT     H1 9713   2.417   5.444   7.568
 3157WAT     H2 9714   2.515   5.532   7.664
 3158WAT      O 9715   5.265   7.402   0.251
 3158WAT     H1 9716   5.281   7.405   0.152
 3158WAT     H2 9717   5.307   7.320   0.289
 3159WAT      O 9718   6.993   1.000   7.080
 3159WAT     H1 9719   7.039   1.044   7.157
 3159WAT     H2 9720   6.951   1.070   7.022
 3160WAT      O 9721   9.367   7.692   6.583
 3160WAT     H1 9722   9.296   7.714   6.650
 3160WAT     H2 9723   9.391   7.595   6.590
 3161WAT      O 9724   8.815   2.875   1.634
 3161WAT     H1 9725   8.904   2.886   1.678
 3161WAT     H2 9726   8.764   2.802   1.680
 3162WAT      O 9727   7.729   5.243   9.402
 3162WAT     H1 9728   7.701   5.323   9.456
 3162WAT     H2 9729   7.821   5.216   9.429
 3163WAT      O 9730   8.332   5.910   0.226
 3163WAT     H1 9731   8.409   5.966   0.257
 3163WAT     H2 9732   8.248   5.943   0.270
 3164WAT      O 9733   6.329   6.259   1.551
 3164WAT     H1 9734   6.405   6.195   1.538
 3164WAT     H2 9735   6.301   6.297   1.463
 3165WAT      O 9736   1.577   7.746   7.749
 3165WAT     H1 9737   1.501   7.685   7.730
 3165WAT     H2 9738   1.561   7.796   7.834
 3166WAT      O 9739   3.861   0.648   0.117
 3166WAT     H1 9740   3.809   0.594   0.051
 3166WAT     H2 9741   3.810   0.730   0.141
 3167WAT      O 9742   7.546   8.914   8.994
 3167WAT     H1 9743   7.631   8.886   8.948
 3167WAT     H2 9744   7.469   8.862   8.957
 3168WAT      O 9745   4.313   6.898   0.089
 3168WAT     H1 9746   4.311   6.798   0.093
 3168WAT     H2 9747   4.322   6.935   0.181
 3169WAT      O 9748   8.753   0.110   5.429
 3169WAT     H1 9749   8.747   0.200   5.387
 3169WAT     H2 9750   8.762   0.040   5.358
 3170WAT      O 9751   6.553   2.772   3.077
 3170WAT     H1 9752   6.652   2.774   3.090
 3170WAT     H2 9753   6.527   2.842   3.010
 3171WAT      O 9754   9.675   9.556   6.909
 3171WAT     H1 9755   9.608   9.555   6.983
 3171WAT     H2 9756   9.762   9.591   6.943
 3172WAT      O 9757   0.074   7.630   9.246
 3172WAT     H1 9758   0.136   7.626   9.325
 3172WAT     H2 9759  -0.006   7.573   9.264
 3173WAT      O 9760   3.129   6.836   2.988
 3173WAT     H1 9761   3.190   6.889   3.048
 3173WAT     H2 9762   3.072   6.776   3.044
 3174WAT      O 9763   5.884   5.838   4.248
 3174WAT     H1 9764   5.831   5.914   4.286
 3174WAT     H2 9765   5.889   5.847   4.149
 3175WAT      O 9766   9.295   8.719   5.024
 3175WAT     H1 9767   9.377   8.754   5.069
 3175WAT     H2 9768   9.239   8.670   5.091
 3176WAT      O 9769   5.640   8.995   0.464
 3176WAT     H1 9770   5.709   9.020   0.396
 3176WAT     H2 9771   5.595   9.077   0.497
 3177WAT      O 9772   2.513   6.898   4.634
 3177WAT     H1 9773   2.596   6.944   4.604
 3177WAT     H2 9774   2.492   6.822   4.572
 3178WAT      O 9775   3.308   5.951   3.316
 3178WAT     H1 9776   3.326   5.922   3.410
 3178WAT     H2 9777   3.331   6.047   3.306
 3179WAT      O 9778   4.309   5.406   0.306
 3179WAT     H1 9779   4.321   5.314   0.344
 3179WAT     H2 9780   4.293   5.470   0.380
 3180WAT      O 9781   4.041   5.513   0.209
 3180WAT     H1 9782   4.091   5.477   0.287
 3180WAT     H2 9783   4.100   5.515   0.128
 3181WAT      O 9784   0.856   2.876   0.349
 3181WAT     H1 9785   0.857   2.804   0.419
 3181WAT     H2 9786   0.795   2.949   0.378
 3182WAT      O 9787   0.710   8.810   8.321
 3182WAT     H1 9788   0.700   8.803   8.222
 3182WAT     H2 9789   0.638   8.757   8.366
 3183WAT      O 9790   3.112   6.642   7.668
 3183WAT     H1 9791   3.136   6.639   7.571
 3183WAT     H2 9792   3.068   6.556   7.694
 3184WAT      O 9793   0.626   8.758   4.319
 3184WAT     H1 9794   0.585   8.850   4.318
 3184WAT     H2 9795   0.615   8.719   4.410
 3185WAT      O 9796   9.083   0.952   1.513
 3185WAT     H1 9797   9.147   1.018   1.474
 3185WAT     H2 9798   9.106   0.860   1.480
 3186WAT      O 9799   3.139   1.426   7.238
 3186WAT     H1 9800   3.095   1.340   7.263
 3186WAT     H2 9801   3.226   1.406   7.192
 3187WAT      O 9802   7.013   8.383   4.718
 3187WAT     H1 9803   6.994   8.331   4.801
 3187WAT     H2 9804   7.056   8.324   4.649
 3188WAT      O 9805   7.595   7.938   2.235
 3188WAT     H1 9806   7.566   7.859   2.289
 3188WAT     H2 9807   7.523   8.006   2.235
 3189WAT      O 9808   7.113   0.079   2.888
 3189WAT     H1 9809   7.172  -0.001   2.905
 3189WAT     H2 9810   7.164   0.147   2.835
 3190WAT      O 9811   6.591   3.074   1.007
 3190WAT     H1 9812   6.581   3.169   0.979
 3190WAT     H2 9813   6.680   3.039   0.975
 3191WAT      O 9814   9.729   8.983   6.527
 3191WAT     H1 9815   9.737   8.919   6.603
 3191WAT     H2 9816   9.819   8.999   6.487
 3192WAT      O 9817   4.944   9.193   8.465
 3192WAT     H1 9818   4.994   9.116   8.506
 3192WAT     H2 9819   4.922   9.260   8.536
 3193WAT      O 9820   4.373   5.219   6.058
 3193WAT     H1 9821   4.324   5.145   6.106
 3193WAT     H2 9822   4.308   5.273   6.005
 3194WAT      O 9823   0.648   0.453   7.461
 3194WAT     H1 9824   0.586   0.506   7.519
 3194WAT     H2 9825   0.725   0.511   7.432
 3195WAT      O 9826   8.453   7.995   1.224
 3195WAT     H1 9827   8.506   7.911   1.234
 3195WAT     H2 9828   8.387   8.002   1.299
 3196WAT      O 9829   7.807   4.416   3.077
 3196WAT     H1 9830   7.767   4.508   3.081
 3196WAT     H2 9831   7.899   4.419   3.116
 3197WAT      O 9832   5.244   8.592   3.442
 3197WAT     H1 9833   5.225   8.651   3.520
 3197WAT     H2 9834   5.301   8.641   3.376
 3198WAT      O 9835   4.637   2.106   4.051
 3198WAT     H1 9836   4.704   2.179   4.043
 3198WAT     H2 9837   4.560   2.123   3.989
 3199WAT      O 9838   4.130   0.533   8.267
 3199WAT     H1 9839   4.157   0.598   8.197
 3199WAT     H2 9840   4.201   0.527   8.337
 3200WAT      O 9841   3.483   8.541   5.515
 3200WAT     H1 9842   3.545   8.524   5.438
 3200WAT     H2 9843   3.400   8.486   5.504
 3201WAT      O 9844   2.412   6.101   0.215
 3201WAT     H1 9845   2.376   6.107   0.122
 3201WAT     H2 9846   2.430   6.194   0.249
 3202WAT      O 9847   6.369   2.103   7.732
 3202WAT     H1 9848   6.296   2.099   7.801
 3202WAT     H2 9849   6.343   2.167   7.660
 3203WAT      O 9850   9.152   5.348   7.796
 3203WAT     H1 9851   9.174   5.427   7.853
 3203WAT     H2 9852   9.054   5.329   7.801
 3204WAT      O 9853   9.668   9.403   5.890
 3204WAT     H1 9854   9.689   9.430   5.796
 3204WAT     H2 9855   9.673   9.484   5.949
 3205WAT      O 9856   2.699   7.304   9.219
 3205WAT     H1 9857   2.798   7.317   9.223
 3205WAT     H2 9858   2.654   7.393   9.221
 3206WAT      O 9859   8.824   7.816   6.201
 3206WAT     H1 9860   8.800   7.741   6.263
 3206WAT     H2 9861   8.756   7.821   6.128
 3207WAT      O 9862   6.401   5.951   3.923
 3207WAT     H1 9863   6.476   5.956   3.989
 3207WAT     H2 9864   6.368   6.043   3.903
 3208WAT      O 9865   9.246   8.723   1.738
 3208WAT     H1 9866   9.270   8.819   1.752
 3208WAT     H2 9867   9.185   8.692   1.811
 3209WAT      O 9868   7.540   4.310   1.921
 3209WAT     H1 9869   7.619   4.362   1.954
 3209WAT     H2 9870   7.567   4.253   1.844
 3210WAT      O 9871   8.947   5.077   0.303
 3210WAT     H1 9872   8.980   4.985   0.283
 3210WAT     H2 9873   8.916   5.120   0.218
 3211WAT      O 9874   8.197   9.727   6.657
 3211WAT     H1 9875   8.176   9.733   6.560
 3211WAT     H2 9876   8.132   9.785   6.708
 3212WAT      O 9877   0.521   3.499   2.696
 3212WAT     H1 9878   0.598   3.516   2.633
 3212WAT     H2 9879   0.437   3.535   2.656
 3213WAT      O 9880   5.394   1.465   7.367
 3213WAT     H1 9881   5.440   1.524   7.301
 3213WAT     H2 9882   5.457   1.441   7.441
 3214WAT      O 9883   5.280   3.302   5.730
 3214WAT     H1 9884   5.282   3.380   5.668
 3214WAT     H2 9885   5.186   3.269   5.740
 3215WAT      O 9886   5.401   4.096   7.691
 3215WAT     H1 9887   5.496   4.120   7.708
 3215WAT     H2 9888   5.344   4.178   7.697
 3216WAT      O 9889   3.587   2.584   4.553
 3216WAT     H1 9890   3.581   2.552   4.648
 3216WAT     H2 9891   3.498   2.617   4.523
 3217WAT      O 9892   6.480   5.767   9.251
 3217WAT     H1 9893   6.488   5.687   9.191
 3217WAT     H2 9894   6.485   5.737   9.346
 3218WAT      O 9895   3.197   1.267   1.569
 3218WAT     H1 9896   3.256   1.225   1.638
 3218WAT     H2 9897   3.227   1.360   1.551
 3219WAT      O 9898   8.403   4.754   5.482
 3219WAT     H1 9899   8.395   4.714   5.391
 3219WAT     H2 9900   8.476   4.823   5.482
 3220WAT      O 9901   9.357   5.986   5.759
 3220WAT     H1 9902   9.322   6.069   5.802
 3220WAT     H2 9903   9.395   6.008   5.669
 3221WAT      O 9904   9.126   1.386   0.199
 3221WAT     H1 9905   9.107   1.438   0.283
 3221WAT     H2 9906   9.049   1.394   0.136
 3222WAT      O 9907   9.650   2.443   7.509
 3222WAT     H1 9908   9.729   2.397   7.470
 3222WAT     H2 9909   9.681   2.520   7.566
 3223WAT      O 9910   4.969   6.267   1.947
 3223WAT     H1 9911   5.040   6.325   1.906
 3223WAT     H2 9912   4.998   6.171   1.941
 3224WAT      O 9913   9.517   6.397   1.508
 3224WAT     H1 9914   9.573   6.319   1.480
 3224WAT     H2 9915   9.422   6.382   1.479
 3225WAT      O 9916   0.163   5.807   0.657
 3225WAT     H1 9917   0.111   5.813   0.571
 3225WAT     H2 9918   0.258   5.831   0.639
 3226WAT      O 9919   0.150   1.757   2.751
 3226WAT     H1 9920   0.233   1.749   2.806
 3226WAT     H2 9921   0.145   1.849   2.712
 3227WAT      O 9922   3.638   5.355   3.275
 3227WAT     H1 9923   3.610   5.275   3.328
 3227WAT     H2 9924   3.640   5.435   3.335
 3228WAT      O 9925   6.098   3.876   9.247
 3228WAT     H1 9926   6.163   3.804   9.222
 3228WAT     H2 9927   6.131   3.964   9.213
 3229WAT      O 9928   8.239   8.138   1.624
 3229WAT     H1 9929   8.326   8.093   1.639
 3229WAT     H2 9930   8.206   8.177   1.710
 3230WAT      O 9931   3.631   6.133   5.463
 3230WAT     H1 9932   3.668   6.188   5.389
 3230WAT     H2 9933   3.659   6.038   5.452
 3231WAT      O 9934   9.184   5.759   7.793
 3231WAT     H1 9935   9.132   5.824   7.738
 3231WAT     H2 9936   9.278   5.792   7.803
 3232WAT      O 9937   8.495   0.395   7.063
 3232WAT     H1 9938   8.535   0.309   7.095
 3232WAT     H2 9939   8.510   0.405   6.965
 3233WAT      O 9940   4.455   5.090   8.190
 3233WAT     H1 9941   4.550   5.092   8.158
 3233WAT     H2 9942   4.455   5.090   8.290
 3234WAT      O 9943   4.508   2.391   5.466
 3234WAT     H1 9944   4.437   2.323   5.448
 3234WAT     H2 9945   4.583   2.380   5.401
 3235WAT      O 9946   3.648   3.072   4.977
 3235WAT     H1 9947   3.703   2.991   4.996
 3235WAT     H2 9948   3.568   3.047   4.923
 3236WAT      O 9949   5.485   7.499   5.721
 3236WAT     H1 9950   5.438   7.587   5.715
 3236WAT     H2 9951   5.537   7.483   5.637
 3237WAT      O 9952   4.616   1.734   1.151
 3237WAT     H1 9953   4.676   1.772   1.081
 3237WAT     H2 9954   4.527   1.710   1.111
 3238WAT      O 9955   6.039   5.362   0.634
 3238WAT     H1 9956   6.055   5.269   0.601
 3238WAT     H2 9957   5.950   5.368   0.678
 3239WAT      O 9958   5.871   3.713   2.717
 3239WAT     H1 9959   5.962   3.724   2.678
 3239WAT     H2 9960   5.814   3.663   2.652
 3240WAT      O 9961   9.767   8.066   5.373
 3240WAT     H1 9962   9.808   8.076   5.282
 3240WAT     H2 9963   9.695   8.135   5.384
 3241WAT      O 9964   8.431   3.980   8.958
 3241WAT     H1 9965   8.374   3.960   8.878
 3241WAT     H2 9966   8.521   3.939   8.946
 3242WAT      O 9967   6.490   2.639   8.720
 3242WAT     H1 9968   6.414   2.691   8.759
 3242WAT     H2 9969   6.491   2.650   8.621
 3243WAT      O 9970   5.661   9.298   4.782
 3243WAT     H1 9971   5.586   9.340   4.833
 3243WAT     H2 9972   5.656   9.326   4.686
 3244WAT      O 9973   7.949   0.041   5.100
 3244WAT     H1 9974   7.919   0.054   5.005
 3244WAT     H2 9975   7.871   0.012   5.155
 3245WAT      O 9976   0.316   8.043   5.838
 3245WAT     H1 9977   0.266   8.108   5.896
 3245WAT     H2 9978   0.257   8.012   5.764
 3246WAT      O 9979   4.470   8.111   2.228
 3246WAT     H1 9980   4.491   8.014   2.229
 3246WAT     H2 9981   4.457   8.141   2.133
 3247WAT      O 9982   8.238   1.534   9.243
 3247WAT     H1 9983   8.288   1.606   9.291
 3247WAT     H2 9984   8.290   1.504   9.163
 3248WAT      O 9985   0.827   7.685   7.318
 3248WAT     H1 9986   0.800   7.658   7.410
 3248WAT     H2 9987   0.785   7.624   7.251
 3249WAT      O 9988   4.574   2.649   1.525
 3249WAT     H1 9989   4.568   2.549   1.530
 3249WAT     H2 9990   4.623   2.675   1.442
 3250WAT      O 9991   5.926   3.661   1.192
 3250WAT     H1 9992   5.969   3.582   1.149
 3250WAT     H2 9993   5.832   3.637   1.218
 3251WAT      O 9994   2.664   2.037   0.913
 3251WAT     H1 9995   2.626   1.968   0.974
 3251WAT     H2 9996   2.592   2.072   0.853
 3252WAT      O 9997   1.030   9.350   7.796
 3252WAT     H1 9998   0.939   9.375   7.763
 3252WAT     H2 9999   1.041   9.251   7.794
 3253WAT      O10000   5.507   0.433   7.349
 3253WAT     H110001   5.438   0.382   7.401
 3253WAT     H210002   5.465   0.471   7.267
 3254WAT      O10003   3.921   8.592   0.743
 3254WAT     H110004   4.006   8.546   0.718
 3254WAT     H210005   3.932   8.637   0.832
 3255WAT      O10006   1.834   8.017   4.998
 3255WAT     H110007   1.783   8.100   5.017
 3255WAT     H210008   1.903   8.002   5.070
 3256WAT      O10009   4.359   0.809   1.247
 3256WAT     H110010   4.263   0.836   1.258
 3256WAT     H210011   4.410   0.831   1.331
 3257WAT      O10012   9.151   7.015   7.302
 3257WAT     H110013   9.168   7.000   7.400
 3257WAT     H210014   9.180   6.935   7.250
 3258WAT      O10015   0.831   0.260   5.457
 3258WAT     H110016   0.847   0.354   5.487
 3258WAT     H210017   0.813   0.202   5.537
 3259WAT      O10018   7.761   7.694   9.599
 3259WAT     H110019   7.859   7.687   9.579
 3259WAT     H210020   7.724   7.776   9.555
 3260WAT      O10021   6.823   6.869   6.347
 3260WAT     H110022   6.749   6.904   6.404
 3260WAT     H210023   6.904   6.853   6.405
 3261WAT      O10024   8.286   1.398   0.092
 3261WAT     H110025   8.196   1.392   0.136
 3261WAT     H210026   8.336   1.476   0.129
 3262WAT      O10027   7.313   2.553   2.611
 3262WAT     H110028   7.247   2.518   2.544
 3262WAT     H210029   7.321   2.488   2.687
 3263WAT      O10030   3.420   5.751   7.027
 3263WAT     H110031   3.507   5.766   7.074
 3263WAT     H210032   3.346   5.756   7.094
 3264WAT      O10033   4.374   7.043   6.072
 3264WAT     H110034   4.286   7.091   6.073
 3264WAT     H210035   4.362   6.953   6.029
 3265WAT      O10036   9.623   7.193   0.649
 3265WAT     H110037   9.641   7.108   0.698
 3265WAT     H210038   9.524   7.204   0.636
 3266WAT      O10039   8.804   7.335   7.266
 3266WAT     H110040   8.782   7.398   7.191
 3266WAT     H210041   8.754   7.363   7.348
 3267WAT      O10042   3.854   8.475   6.359
 3267WAT     H110043   3.833   8.476   6.457
 3267WAT     H210044   3.953   8.463   6.346
 3268WAT      O10045   3.730   3.833   6.265
 3268WAT     H110046   3.771   3.749   6.231
 3268WAT     H210047   3.639   3.814   6.302
 3269WAT      O10048   9.455   9.049   3.071
 3269WAT     H110049   9.468   9.135   3.023
 3269WAT     H210050   9.360   9.042   3.102
 3270WAT      O10051   2.509   8.567   9.339
 3270WAT     H110052   2.417   8.547   9.304
 3270WAT     H210053   2.575   8.558   9.264
 3271WAT      O10054   8.724   7.052   9.500
 3271WAT     H110055   8.775   7.010   9.575
 3271WAT     H210056   8.754   7.013   9.413
 3272WAT      O10057   4.725   7.453   6.100
 3272WAT     H110058   4.692   7.379   6.159
 3272WAT     H210059   4.817   7.433   6.068
 3273WAT      O10060   8.186   0.268   5.950
 3273WAT     H110061   8.198   0.180   5.903
 3273WAT     H210062   8.092   0.274   5.985
 3274WAT      O10063   5.119   6.404   3.987
 3274WAT     H110064   5.063   6.454   4.052
 3274WAT     H210065   5.097   6.434   3.894
 3275WAT      O10066   0.686   3.152   4.639
 3275WAT     H110067   0.685   3.067   4.587
 3275WAT     H210068   0.593   3.173   4.670
 3276WAT      O10069   4.374   7.624   6.206
 3276WAT     H110070   4.378   7.542   6.150
 3276WAT     H210071   4.288   7.672   6.191
 3277WAT      O10072   8.577   6.859   5.611
 3277WAT     H110073   8.639   6.934   5.636
 3277WAT     H210074   8.500   6.858   5.675
 3278WAT      O10075   8.417   6.650   2.072
 3278WAT     H110076   8.373   6.632   2.160
 3278WAT     H210077   8.395   6.742   2.041
 3279WAT      O10078   8.711   6.933   5.363
 3279WAT     H110079   8.631   6.884   5.398
 3279WAT     H210080   8.776   6.948   5.437
 3280WAT      O10081   7.262   9.411   0.582
 3280WAT     H110082   7.337   9.380   0.523
 3280WAT     H210083   7.176   9.371   0.550
 3281WAT      O10084   4.477   9.247   2.546
 3281WAT     H110085   4.442   9.172   2.491
 3281WAT     H210086   4.402   9.310   2.567
 3282WAT      O10087   0.312   7.260   8.362
 3282WAT     H110088   0.221   7.219   8.366
 3282WAT     H210089   0.346   7.275   8.455
 3283WAT      O10090   2.645   0.580   4.696
 3283WAT     H110091   2.627   0.487   4.663
 3283WAT     H210092   2.634   0.584   4.795
 3284WAT      O10093   4.366   6.670   7.122
 3284WAT     H110094   4.338   6.703   7.212
 3284WAT     H210095   4.314   6.587   7.099
 3285WAT      O10096   6.656   0.090   1.025
 3285WAT     H110097   6.710   0.164   0.985
 3285WAT     H210098   6.708   0.004   1.021
 3286WAT      O10099   8.284   8.007   5.278
 3286WAT     H110100   8.286   8.085   5.216
 3286WAT     H210101   8.294   7.922   5.226
 3287WAT      O10102   4.962   4.985   1.965
 3287WAT     H110103   4.978   4.946   2.056
 3287WAT     H210104   4.975   5.084   1.968
 3288WAT      O10105   2.988   2.084   2.797
 3288WAT     H110106   2.915   2.152   2.790
 3288WAT     H210107   2.964   2.004   2.741
 3289WAT      O10108   5.874   5.443   6.318
 3289WAT     H110109   5.945   5.454   6.248
 3289WAT     H210110   5.916   5.406   6.401
 3290WAT      O10111   1.661   4.934   1.190
 3290WAT     H110112   1.645   4.968   1.097
 3290WAT     H210113   1.591   4.866   1.214
 3291WAT      O10114   8.785   6.990   0.773
 3291WAT     H110115   8.807   6.911   0.715
 3291WAT     H210116   8.870   7.025   0.813
 3292WAT      O10117   3.825   5.416   5.176
 3292WAT     H110118   3.902   5.387   5.120
 3292WAT     H210119   3.857   5.441   5.267
 3293WAT      O10120   7.470   1.335   2.130
 3293WAT     H110121   7.399   1.301   2.192
 3293WAT     H210122   7.558   1.293   2.153
 3294WAT      O10123   6.344   7.346   0.581
 3294WAT     H110124   6.305   7.269   0.530
 3294WAT     H210125   6.275   7.418   0.591
 3295WAT      O10126   5.679   1.485   0.581
 3295WAT     H110127   5.720   1.558   0.635
 3295WAT     H210128   5.579   1.493   0.584
 3296WAT      O10129   5.315   0.723   4.605
 3296WAT     H110130   5.354   0.665   4.677
 3296WAT     H210131   5.305   0.816   4.639
 3297WAT      O10132   5.124   8.852   8.421
 3297WAT     H110133   5.080   8.912   8.355
 3297WAT     H210134   5.126   8.896   8.511
 3298WAT      O10135   2.345   2.286   2.855
 3298WAT     H110136   2.425   2.234   2.884
 3298WAT     H210137   2.366   2.335   2.771
 3299WAT      O10138   7.218   8.690   0.236
 3299WAT     H110139   7.210   8.594   0.211
 3299WAT     H210140   7.145   8.742   0.193
 3300WAT      O10141   2.329   7.094   9.414
 3300WAT     H110142   2.273   7.016   9.388
 3300WAT     H210143   2.281   7.179   9.390
 3301WAT      O10144   5.233   5.725   0.194
 3301WAT     H110145   5.224   5.649   0.258
 3301WAT     H210146   5.206   5.810   0.239
 3302WAT      O10147   4.595   3.226   8.462
 3302WAT     H110148   4.618   3.170   8.383
 3302WAT     H210149   4.601   3.170   8.545
 3303WAT      O10150   9.458   6.710   4.492
 3303WAT     H110151   9.405   6.727   4.575
 3303WAT     H210152   9.535   6.773   4.489
 3304WAT      O10153   5.620   4.928   1.741
 3304WAT     H110154   5.587   4.844   1.784
 3304WAT     H210155   5.590   5.007   1.794
 3305WAT      O10156   4.390   2.286   6.511
 3305WAT     H110157   4.399   2.380   6.475
 3305WAT     H210158   4.471   2.234   6.486
 3306WAT      O10159   8.627   4.447   8.760
 3306WAT     H110160   8.635   4.478   8.855
 3306WAT     H210161   8.607   4.349   8.759
 3307WAT      O10162   4.243   2.822   9.372
 3307WAT     H110163   4.179   2.747   9.353
 3307WAT     H210164   4.313   2.791   9.436
 3308WAT      O10165   8.440   1.997   3.285
 3308WAT     H110166   8.493   2.060   3.228
 3308WAT     H210167   8.489   1.910   3.292
 3309WAT      O10168   9.762   2.557   6.938
 3309WAT     H110169   9.705   2.497   6.995
 3309WAT     H210170   9.853   2.565   6.979
 3310WAT      O10171   8.599   9.597   7.590
 3310WAT     H110172   8.620   9.506   7.625
 3310WAT     H210173   8.505   9.598   7.555
 3311WAT      O10174   5.556   4.255   0.583
 3311WAT     H110175   5.627   4.203   0.632
 3311WAT     H210176   5.600   4.317   0.518
 3312WAT      O10177   5.790   1.120   8.182
 3312WAT     H110178   5.714   1.184   8.184
 3312WAT     H210179   5.755   1.026   8.185
 3313WAT      O10180   7.393   3.800   7.004
 3313WAT     H110181   7.362   3.710   6.973
 3313WAT     H210182   7.327   3.836   7.071
 3314WAT      O10183   6.093   2.861   7.526
 3314WAT     H110184   6.012   2.813   7.560
 3314WAT     H210185   6.113   2.940   7.584
 3315WAT      O10186   8.372   1.208   8.124
 3315WAT     H110187   8.471   1.219   8.115
 3315WAT     H210188   8.339   1.264   8.200
 3316WAT      O10189   1.658   3.930   6.297
 3316WAT     H110190   1.731   3.972   6.350
 3316WAT     H210191   1.673   3.831   6.290
 3317WAT      O10192   9.564   7.340   1.771
 3317WAT     H110193   9.511   7.321   1.854
 3317WAT     H210194   9.551   7.435   1.744
 3318WAT      O10195   2.161   5.077   1.914
 3318WAT     H110196   2.124   5.056   1.823
 3318WAT     H210197   2.148   5.174   1.934
 3319WAT      O10198   5.762   1.212   6.305
 3319WAT     H110199   5.792   1.280   6.238
 3319WAT     H210200   5.663   1.217   6.315
 3320WAT      O10201   1.112   3.030   4.688
 3320WAT     H110202   1.206   3.023   4.654
 3320WAT     H210203   1.076   3.120   4.667
 3321WAT      O10204   5.622   6.594   3.769
 3321WAT     H110205   5.696   6.635   3.824
 3321WAT     H210206   5.661   6.526   3.707
 3322WAT      O10207   2.180   0.719   7.997
 3322WAT     H110208   2.132   0.684   8.078
 3322WAT     H210209   2.248   0.652   7.968
 3323WAT      O10210   0.949   7.313   7.937
 3323WAT     H110211   0.979   7.253   8.011
 3323WAT     H210212   0.936   7.260   7.853
 3324WAT      O10213   0.374   9.484   6.302
 3324WAT     H110214   0.447   9.526   6.355
 3324WAT     H210215   0.390   9.501   6.205
 3325WAT      O10216   4.998   2.149   5.468
 3325WAT     H110217   5.071   2.209   5.499
 3325WAT     H210218   4.958   2.186   5.384
 3326WAT      O10219   3.125   4.986   3.685
 3326WAT     H110220   3.068   4.953   3.610
 3326WAT     H210221   3.182   4.911   3.719
 3327WAT      O10222   8.143   0.123   0.364
 3327WAT     H110223   8.130   0.222   0.365
 3327WAT     H210224   8.101   0.083   0.446
 3328WAT      O10225   4.684   9.305   9.547
 3328WAT     H110226   4.589   9.281   9.568
 3328WAT     H210227   4.733   9.224   9.516
 3329WAT      O10228   2.583   3.923   4.782
 3329WAT     H110229   2.551   3.885   4.869
 3329WAT     H210230   2.683   3.926   4.781
 3330WAT      O10231   6.597   1.072   8.664
 3330WAT     H110232   6.653   1.053   8.583
 3330WAT     H210233   6.655   1.110   8.736
 3331WAT      O10234   8.244   6.315   0.823
 3331WAT     H110235   8.238   6.404   0.777
 3331WAT     H210236   8.217   6.325   0.918
 3332WAT      O10237   4.291   8.910   9.017
 3332WAT     H110238   4.288   8.814   9.044
 3332WAT     H210239   4.315   8.967   9.095
 3333WAT      O10240   7.494   9.381   3.136
 3333WAT     H110241   7.559   9.350   3.066
 3333WAT     H210242   7.429   9.308   3.155
 3334WAT      O10243   2.697   0.292   4.642
 3334WAT     H110244   2.763   0.238   4.590
 3334WAT     H210245   2.604   0.271   4.612
 3335WAT      O10246   8.387   0.979   7.022
 3335WAT     H110247   8.314   0.947   6.961
 3335WAT     H210248   8.459   0.910   7.026
 3336WAT      O10249   6.546   6.158   6.752
 3336WAT     H110250   6.512   6.239   6.706
 3336WAT     H210251   6.628   6.181   6.805
 3337WAT      O10252   3.544   1.988   4.144
 3337WAT     H110253   3.585   2.057   4.204
 3337WAT     H210254   3.614   1.952   4.082
 3338WAT      O10255   8.597   0.311   9.720
 3338WAT     H110256   8.529   0.270   9.660
 3338WAT     H210257   8.562   0.397   9.757
 3339WAT      O10258   5.228   1.556   3.772
 3339WAT     H110259   5.145   1.557   3.717
 3339WAT     H210260   5.255   1.461   3.790
 3340WAT      O10261   1.772   9.652   3.160
 3340WAT     H110262   1.780   9.750   3.143
 3340WAT     H210263   1.819   9.602   3.088
 3341WAT      O10264   6.928   4.416   5.385
 3341WAT     H110265   6.904   4.418   5.287
 3341WAT     H210266   7.026   4.404   5.395
 3342WAT      O10267   2.437   4.384   9.437
 3342WAT     H110268   2.411   4.472   9.477
 3342WAT     H210269   2.432   4.313   9.508
 3343WAT      O10270   7.656   8.799   7.762
 3343WAT     H110271   7.566   8.795   7.719
 3343WAT     H210272   7.721   8.844   7.699
 3344WAT      O10273   4.509   3.173   2.301
 3344WAT     H110274   4.482   3.079   2.321
 3344WAT     H210275   4.436   3.235   2.329
 3345WAT      O10276   5.636   3.945   9.495
 3345WAT     H110277   5.543   3.912   9.478
 3345WAT     H210278   5.658   3.932   9.592
 3346WAT      O10279   0.082   4.867   6.833
 3346WAT     H110280   0.159   4.896   6.889
 3346WAT     H210281   0.018   4.814   6.890
 3347WAT      O10282   9.402   3.796   7.756
 3347WAT     H110283   9.356   3.880   7.784
 3347WAT     H210284   9.380   3.722   7.819
 3348WAT      O10285   6.516   3.043   5.900
 3348WAT     H110286   6.475   3.051   5.810
 3348WAT     H210287   6.448   3.068   5.970
 3349WAT      O10288   6.819   2.073   1.311
 3349WAT     H110289   6.896   2.049   1.252
 3349WAT     H210290   6.764   1.991   1.330
 3350WAT      O10291   7.301   5.141   6.312
 3350WAT     H110292   7.329   5.227   6.354
 3350WAT     H210293   7.380   5.098   6.268
 3351WAT      O10294   8.998   4.947   4.854
 3351WAT     H110295   8.997   4.863   4.908
 3351WAT     H210296   8.965   4.928   4.762
 3352WAT      O10297   7.330   8.668   9.431
 3352WAT     H110298   7.369   8.639   9.519
 3352WAT     H210299   7.315   8.767   9.433
 3353WAT      O10300   1.326   4.842   6.541
 3353WAT     H110301   1.359   4.812   6.631
 3353WAT     H210302   1.247   4.902   6.554
 3354WAT      O10303   8.777   5.464   6.002
 3354WAT     H110304   8.750   5.547   6.051
 3354WAT     H210305   8.876   5.468   5.983
 3355WAT      O10306   3.180   3.046   4.309
 3355WAT     H110307   3.082   3.039   4.288
 3355WAT     H210308   3.209   3.142   4.301
 3356WAT      O10309   4.502   4.797   5.039
 3356WAT     H110310   4.409   4.772   5.063
 3356WAT     H210311   4.505   4.829   4.944
 3357WAT      O10312   6.053   5.870   0.198
 3357WAT     H110313   6.110   5.884   0.116
 3357WAT     H210314   6.075   5.940   0.266
 3358WAT      O10315   0.459   1.643   5.073
 3358WAT     H110316   0.447   1.701   4.992
 3358WAT     H210317   0.543   1.590   5.064
 3359WAT      O10318   5.558   5.993   9.060
 3359WAT     H110319   5.648   6.035   9.044
 3359WAT     H210320   5.554   5.905   9.011
 3360WAT      O10321   1.457   4.221   8.455
 3360WAT     H110322   1.360   4.229   8.479
 3360WAT     H210323   1.474   4.273   8.371
 3361WAT      O10324   0.399   4.778   8.652
 3361WAT     H110325   0.468   4.713   8.622
 3361WAT     H210326   0.425   4.817   8.741
 3362WAT      O10327   0.907   7.224   4.235
 3362WAT     H110328   0.928   7.129   4.216
 3362WAT     H210329   0.991   7.277   4.243
 3363WAT      O10330   5.063   3.010   4.630
 3363WAT     H110331   5.117   2.998   4.547
 3363WAT     H210332   5.090   2.941   4.698
 3364WAT      O10333   0.959   3.357   6.226
 3364WAT     H110334   0.998   3.268   6.201
 3364WAT     H210335   0.958   3.417   6.146
 3365WAT      O10336   0.641   8.769   8.780
 3365WAT     H110337   0.715   8.722   8.732
 3365WAT     H210338   0.592   8.828   8.715
 3366WAT      O10339   2.082   7.943   0.563
 3366WAT     H110340   2.115   7.975   0.475
 3366WAT     H210341   2.016   7.868   0.548
 3367WAT      O10342   6.404   6.010   8.413
 3367WAT     H110343   6.348   5.986   8.334
 3367WAT     H210344   6.501   6.002   8.389
 3368WAT      O10345   6.453   3.499   6.759
 3368WAT     H110346   6.415   3.553   6.834
 3368WAT     H210347   6.548   3.528   6.743
 3369WAT      O10348   2.747   5.282   2.847
 3369WAT     H110349   2.699   5.333   2.776
 3369WAT     H210350   2.818   5.340   2.887
 3370WAT      O10351   6.507   2.681   0.441
 3370WAT     H110352   6.507   2.767   0.493
 3370WAT     H210353   6.437   2.620   0.478
 3371WAT      O10354   8.522   7.612   7.155
 3371WAT     H110355   8.507   7.705   7.122
 3371WAT     H210356   8.469   7.597   7.239
 3372WAT      O10357   0.737   2.531   9.668
 3372WAT     H110358   0.725   2.547   9.766
 3372WAT     H210359   0.726   2.434   9.648
 3373WAT      O10360   6.758   1.067   8.441
 3373WAT     H110361   6.742   1.149   8.386
 3373WAT     H210362   6.729   0.986   8.390
 3374WAT      O10363   6.793   6.443   7.375
 3374WAT     H110364   6.811   6.530   7.421
 3374WAT     H210365   6.773   6.459   7.279
 3375WAT      O10366   5.485   1.136   0.242
 3375WAT     H110367   5.391   1.128   0.208
 3375WAT     H210368   5.489   1.102   0.336
 3376WAT      O10369   8.952   3.103   0.151
 3376WAT     H110370   8.922   3.114   0.246
 3376WAT     H210371   8.959   3.193   0.108
 3377WAT      O10372   2.469   9.612   6.319
 3377WAT     H110373   2.446   9.515   6.316
 3377WAT     H210374   2.469   9.649   6.226
 3378WAT      O10375   1.594   3.219   5.869
 3378WAT     H110376   1.654   3.186   5.943
 3378WAT     H210377   1.636   3.299   5.825
 3379WAT      O10378   8.095   3.714   5.185
 3379WAT     H110379   8.130   3.622   5.203
 3379WAT     H210380   7.998   3.708   5.162
 3380WAT      O10381   3.006   5.564   1.804
 3380WAT     H110382   3.101   5.533   1.815
 3380WAT     H210383   3.003   5.664   1.803
 3381WAT      O10384   2.483   1.820   2.966
 3381WAT     H110385   2.417   1.789   3.034
 3381WAT     H210386   2.575   1.791   2.992
 3382WAT      O10387   5.192   1.384   7.190
 3382WAT     H110388   5.184   1.285   7.180
 3382WAT     H210389   5.265   1.405   7.255
 3383WAT      O10390   1.849   1.745   1.112
 3383WAT     H110391   1.870   1.801   1.032
 3383WAT     H210392   1.897   1.782   1.192
 3384WAT      O10393   9.228   7.835   2.669
 3384WAT     H110394   9.159   7.907   2.660
 3384WAT     H210395   9.292   7.860   2.742
 3385WAT      O10396   5.924   1.077   1.433
 3385WAT     H110397   5.866   1.028   1.368
 3385WAT     H210398   5.877   1.161   1.463
 3386WAT      O10399   2.843   5.513   0.245
 3386WAT     H110400   2.801   5.548   0.329
 3386WAT     H210401   2.800   5.557   0.166
 3387WAT      O10402   4.610   6.785   5.786
 3387WAT     H110403   4.666   6.747   5.712
 3387WAT     H210404   4.666   6.850   5.839
 3388WAT      O10405   4.651   4.871   9.573
 3388WAT     H110406   4.734   4.852   9.520
 3388WAT     H210407   4.588   4.794   9.564
 3389WAT      O10408   4.010   7.735   6.527
 3389WAT     H110409   4.016   7.643   6.564
 3389WAT     H210410   4.102   7.772   6.515
 3390WAT      O10411   0.233   4.512   5.192
 3390WAT     H110412   0.148   4.477   5.230
 3390WAT     H210413   0.306   4.504   5.260
 3391WAT      O10414   6.158   6.571   3.298
 3391WAT     H110415   6.247   6.617   3.289
 3391WAT     H210416   6.137   6.556   3.394
 3392WAT      O10417   5.282   2.969   5.614
 3392WAT     H110418   5.192   2.975   5.571
 3392WAT     H210419   5.343   3.036   5.572
 3393WAT      O10420   4.230   0.169   7.889
 3393WAT     H110421   4.170   0.247   7.873
 3393WAT     H210422   4.176   0.091   7.922
 3394WAT      O10423   0.699   9.791   6.448
 3394WAT     H110424   0.758   9.711   6.432
 3394WAT     H210425   0.622   9.789   6.384
 3395WAT      O10426   2.416   7.033   1.351
 3395WAT     H110427   2.332   7.039   1.297
 3395WAT     H210428   2.402   6.967   1.426
 3396WAT      O10429   9.858   4.425   2.973
 3396WAT     H110430   9.820   4.358   3.037
 3396WAT     H210431   9.956   4.437   2.993
 3397WAT      O10432   1.805   7.409   4.258
 3397WAT     H110433   1.759   7.496   4.240
 3397WAT     H210434   1.845   7.374   4.173
 3398WAT      O10435   6.166   2.476   1.102
 3398WAT     H110436   6.152   2.405   1.171
 3398WAT     H210437   6.113   2.454   1.021
 3399WAT      O10438   7.236   8.511   3.308
 3399WAT     H110439   7.227   8.531   3.406
 3399WAT     H210440   7.170   8.440   3.282
 3400WAT      O10441   2.090   3.672   5.222
 3400WAT     H110442   2.005   3.666   5.168
 3400WAT     H210443   2.067   3.690   5.318
 3401WAT      O10444   2.426   6.480   5.628
 3401WAT     H110445   2.381   6.548   5.571
 3401WAT     H210446   2.391   6.487   5.722
 3402WAT      O10447   6.943   5.702   3.412
 3402WAT     H110448   6.879   5.642   3.364
 3402WAT     H210449   7.032   5.658   3.419
 3403WAT      O10450   0.660   9.844   9.133
 3403WAT     H110451   0.616   9.761   9.098
 3403WAT     H210452   0.686   9.903   9.057
 3404WAT      O10453   0.275   7.375   9.205
 3404WAT     H110454   0.301   7.438   9.278
 3404WAT     H210455   0.183   7.340   9.222
 3405WAT      O10456   7.832   4.432   1.626
 3405WAT     H110457   7.815   4.424   1.528
 3405WAT     H210458   7.924   4.399   1.647
 3406WAT      O10459   7.487   0.054   0.635
 3406WAT     H110460   7.537   0.141   0.631
 3406WAT     H210461   7.552  -0.022   0.639
 3407WAT      O10462   0.629   1.974   8.958
 3407WAT     H110463   0.725   1.982   8.984
 3407WAT     H210464   0.623   1.950   8.861
 3408WAT      O10465   7.760   0.411   2.386
 3408WAT     H110466   7.729   0.438   2.295
 3408WAT     H210467   7.855   0.439   2.399
 3409WAT      O10468   5.778   7.989   2.405
 3409WAT     H110469   5.726   8.027   2.481
 3409WAT     H210470   5.716   7.939   2.344
 3410WAT      O10471   9.714   3.395   1.395
 3410WAT     H110472   9.742   3.481   1.353
 3410WAT     H210473   9.643   3.413   1.464
 3411WAT      O10474   8.380   0.276   8.898
 3411WAT     H110475   8.376   0.283   8.799
 3411WAT     H210476   8.287   0.276   8.936
 3412WAT      O10477   3.592   7.976   0.021
 3412WAT     H110478   3.594   7.876   0.011
 3412WAT     H210479   3.630   8.001   0.110
 3413WAT      O10480   0.198   6.397   4.886
 3413WAT     H110481   0.224   6.493   4.897
 3413WAT     H210482   0.157   6.363   4.970
 3414WAT      O10483   9.558   5.908   3.212
 3414WAT     H110484   9.506   5.956   3.142
 3414WAT     H210485   9.654   5.938   3.209
 3415WAT      O10486   1.143   7.898   5.009
 3415WAT     H110487   1.149   7.829   5.081
 3415WAT     H210488   1.079   7.970   5.038
 3416WAT      O10489   0.868   9.150   4.831
 3416WAT     H110490   0.916   9.149   4.918
 3416WAT     H210491   0.928   9.187   4.760
 3417WAT      O10492   4.056   3.956   0.320
 3417WAT     H110493   3.972   3.990   0.362
 3417WAT     H210494   4.109   3.906   0.389
 3418WAT      O10495   4.035   6.598   6.703
 3418WAT     H110496   4.044   6.538   6.623
 3418WAT     H210497   4.035   6.543   6.786
 3419WAT      O10498   4.027   5.084   1.106
 3419WAT     H110499   4.078   5.151   1.053
 3419WAT     H210500   4.059   5.085   1.201
 3420WAT      O10501   3.449   8.999   4.193
 3420WAT     H110502   3.463   8.989   4.292
 3420WAT     H210503   3.356   8.972   4.169
 3421WAT      O10504   2.363   5.766   8.536
 3421WAT     H110505   2.331   5.675   8.510
 3421WAT     H210506   2.405   5.762   8.627
 3422WAT      O10507   3.256   7.718   5.280
 3422WAT     H110508   3.346   7.680   5.257
 3422WAT     H210509   3.190   7.644   5.292
 3423WAT      O10510   2.793   9.734   4.298
 3423WAT     H110511   2.703   9.694   4.317
 3423WAT     H210512   2.859   9.699   4.365
 3424WAT      O10513   2.679   5.536   6.133
 3424WAT     H110514   2.773   5.505   6.116
 3424WAT     H210515   2.631   5.469   6.189
 3425WAT      O10516   9.603   0.406   0.090
 3425WAT     H110517   9.620   0.500   0.120
 3425WAT     H210518   9.521   0.403   0.033
 3426WAT      O10519   4.423   3.975   8.814
 3426WAT     H110520   4.462   4.053   8.765
 3426WAT     H210521   4.332   3.999   8.849
 3427WAT      O10522   2.376   2.505   2.668
 3427WAT     H110523   2.437   2.559   2.725
 3427WAT     H210524   2.395   2.525   2.572
 3428WAT      O10525   5.254   7.372   6.878
 3428WAT     H110526   5.292   7.362   6.970
 3428WAT     H210527   5.167   7.421   6.883
 3429WAT      O10528   3.797   0.687   1.662
 3429WAT     H110529   3.804   0.745   1.581
 3429WAT     H210530   3.859   0.610   1.654
 3430WAT      O10531   3.268   5.137   0.122
 3430WAT     H110532   3.172   5.118   0.143
 3430WAT     H210533   3.274   5.179   0.032
 3431WAT      O10534   9.377   3.084   2.281
 3431WAT     H110535   9.343   3.078   2.187
 3431WAT     H210536   9.395   2.993   2.316
 3432WAT      O10537   5.306   5.553   2.809
 3432WAT     H110538   5.397   5.569   2.846
 3432WAT     H210539   5.252   5.500   2.875
 3433WAT      O10540   6.871   0.775   9.562
 3433WAT     H110541   6.794   0.791   9.624
 3433WAT     H210542   6.848   0.703   9.497
 3434WAT      O10543   0.957   4.554   4.442
 3434WAT     H110544   0.993   4.647   4.448
 3434WAT     H210545   0.858   4.557   4.438
 3435WAT      O10546   0.589   7.763   7.550
 3435WAT     H110547   0.604   7.668   7.521
 3435WAT     H210548   0.665   7.792   7.608
 3436WAT      O10549   1.751   0.794   2.207
 3436WAT     H110550   1.783   0.817   2.299
 3436WAT     H210551   1.707   0.704   2.209
 3437WAT      O10552   5.553   5.237   6.749
 3437WAT     H110553   5.647   5.208   6.734
 3437WAT     H210554   5.552   5.332   6.781
 3438WAT      O10555   3.077   3.332   1.771
 3438WAT     H110556   3.076   3.417   1.823
 3438WAT     H210557   3.023   3.343   1.688
 3439WAT      O10558   6.180   4.984   6.057
 3439WAT     H110559   6.189   4.889   6.086
 3439WAT     H210560   6.135   4.988   5.968
 3440WAT      O10561   8.161   7.338   4.607
 3440WAT     H110562   8.217   7.411   4.569
 3440WAT     H210563   8.079   7.377   4.650
 3441WAT      O10564   3.152   0.293   2.520
 3441WAT     H110565   3.155   0.389   2.548
 3441WAT     H210566   3.105   0.239   2.590
 3442WAT      O10567   3.721   1.164   1.024
 3442WAT     H110568   3.711   1.264   1.022
 3442WAT     H210569   3.649   1.122   0.970
 3443WAT      O10570   5.717   2.594   7.191
 3443WAT     H110571   5.732   2.511   7.137
 3443WAT     H210572   5.620   2.602   7.213
 3444WAT      O10573   9.462   5.260   8.534
 3444WAT     H110574   9.539   5.324   8.526
 3444WAT     H210575   9.494   5.174   8.574
 3445WAT      O10576   9.838   2.373   4.801
 3445WAT     H110577   9.796   2.320   4.727
 3445WAT     H210578   9.774   2.441   4.834
 3446WAT      O10579   1.810   8.093   2.626
 3446WAT     H110580   1.782   8.179   2.583
 3446WAT     H210581   1.879   8.049   2.570
 3447WAT      O10582   2.472   4.567   7.911
 3447WAT     H110583   2.405   4.557   7.985
 3447WAT     H210584   2.496   4.477   7.876
 3448WAT      O10585   4.829   1.746   4.605
 3448WAT     H110586   4.887   1.716   4.681
 3448WAT     H210587   4.736   1.713   4.618
 3449WAT      O10588   7.903   5.818   0.488
 3449WAT     H110589   7.900   5.785   0.582
 3449WAT     H210590   7.840   5.894   0.476
 3450WAT      O10591   5.020   4.475   4.139
 3450WAT     H110592   5.095   4.411   4.124
 3450WAT     H210593   5.053   4.555   4.189
 3451WAT      O10594   8.317   7.941   6.600
 3451WAT     H110595   8.221   7.933   6.574
 3451WAT     H210596   8.333   8.028   6.646
 3452WAT      O10597   7.869   6.897   8.174
 3452WAT     H110598   7.840   6.936   8.087
 3452WAT     H210599   7.966   6.916   8.189
 3453WAT      O10600   5.780   4.234   3.571
 3453WAT     H110601   5.719   4.154   3.571
 3453WAT     H210602   5.855   4.219   3.635
 3454WAT      O10603   7.052   1.124   5.477
 3454WAT     H110604   6.953   1.133   5.463
 3454WAT     H210605   7.090   1.212   5.504
 3455WAT      O10606   9.552   8.805   6.908
 3455WAT     H110607   9.484   8.758   6.852
 3455WAT     H210608   9.544   8.904   6.895
 3456WAT      O10609   8.067   9.382   5.066
 3456WAT     H110610   8.018   9.362   4.981
 3456WAT     H210611   8.000   9.391   5.140
 3457WAT      O10612   8.361   4.289   3.247
 3457WAT     H110613   8.313   4.297   3.334
 3457WAT     H210614   8.366   4.193   3.219
 3458WAT      O10615   7.661   1.677   2.437
 3458WAT     H110616   7.749   1.680   2.391
 3458WAT     H210617   7.656   1.749   2.506
 3459WAT      O10618   9.277   0.434   4.527
 3459WAT     H110619   9.270   0.531   4.550
 3459WAT     H210620   9.323   0.385   4.601
 3460WAT      O10621   8.785   1.483   9.886
 3460WAT     H110622   8.852   1.420   9.846
 3460WAT     H210623   8.697   1.472   9.840
 3461WAT      O10624   8.818   7.657   7.457
 3461WAT     H110625   8.746   7.588   7.461
 3461WAT     H210626   8.802   7.718   7.378
 3462WAT      O10627   2.226   1.395   6.554
 3462WAT     H110628   2.127   1.408   6.547
 3462WAT     H210629   2.251   1.304   6.522
 3463WAT      O10630   7.356   0.633   9.539
 3463WAT     H110631   7.327   0.572   9.466
 3463WAT     H210632   7.287   0.704   9.552
 3464WAT      O10633   2.798   8.661   9.389
 3464WAT     H110634   2.786   8.687   9.485
 3464WAT     H210635   2.814   8.563   9.384
 3465WAT      O10636   7.929   5.991   3.291
 3465WAT     H110637   7.978   6.068   3.331
 3465WAT     H210638   7.989   5.911   3.288
 3466WAT      O10639   2.856   4.661   6.060
 3466WAT     H110640   2.803   4.744   6.043
 3466WAT     H210641   2.825   4.588   5.999
 3467WAT      O10642   3.614   0.761   3.039
 3467WAT     H110643   3.661   0.673   3.035
 3467WAT     H210644   3.553   0.762   3.118
 3468WAT      O10645   6.920   6.085   7.205
 3468WAT     H110646   7.011   6.124   7.197
 3468WAT     H210647   6.868   6.133   7.275
 3469WAT      O10648   3.475   5.235   9.300
 3469WAT     H110649   3.519   5.145   9.302
 3469WAT     H210650   3.498   5.282   9.215
 3470WAT      O10651   2.277   8.379   4.198
 3470WAT     H110652   2.284   8.288   4.238
 3470WAT     H210653   2.226   8.375   4.112
 3471WAT      O10654   9.327   0.403   5.191
 3471WAT     H110655   9.333   0.348   5.108
 3471WAT     H210656   9.412   0.396   5.243
 3472WAT      O10657   6.361   8.965   0.465
 3472WAT     H110658   6.264   8.975   0.488
 3472WAT     H210659   6.385   8.868   0.462
 3473WAT      O10660   8.875   4.645   0.454
 3473WAT     H110661   8.809   4.635   0.528
 3473WAT     H210662   8.837   4.606   0.370
 3474WAT      O10663   6.379   2.630   8.267
 3474WAT     H110664   6.362   2.577   8.351
 3474WAT     H210665   6.409   2.722   8.291
 3475WAT      O10666   7.979   3.441   5.891
 3475WAT     H110667   7.981   3.535   5.925
 3475WAT     H210668   8.010   3.440   5.796
 3476WAT      O10669   3.493   9.517   4.518
 3476WAT     H110670   3.516   9.438   4.462
 3476WAT     H210671   3.567   9.585   4.512
 3477WAT      O10672   0.388   1.499   1.927
 3477WAT     H110673   0.324   1.433   1.889
 3477WAT     H210674   0.356   1.592   1.908
 3478WAT      O10675   5.371   5.799   4.045
 3478WAT     H110676   5.280   5.821   4.081
 3478WAT     H210677   5.405   5.716   4.090
 3479WAT      O10678   1.486   2.325   9.696
 3479WAT     H110679   1.410   2.263   9.677
 3479WAT     H210680   1.560   2.308   9.631
 3480WAT      O10681   2.819   4.905   4.533
 3480WAT     H110682   2.785   4.833   4.594
 3480WAT     H210683   2.751   4.924   4.463
 3481WAT      O10684   4.391   5.160   0.366
 3481WAT     H110685   4.347   5.076   0.336
 3481WAT     H210686   4.490   5.146   0.371
 3482WAT      O10687   8.420   8.751   0.636
 3482WAT     H110688   8.333   8.779   0.676
 3482WAT     H210689   8.465   8.830   0.594
 3483WAT      O10690   9.258   7.908   5.094
 3483WAT     H110691   9.273   8.005   5.077
 3483WAT     H210692   9.187   7.897   5.164
 3484WAT      O10693   9.207   8.669   9.412
 3484WAT     H110694   9.237   8.580   9.376
 3484WAT     H210695   9.227   8.740   9.344
 3485WAT      O10696   4.796   3.722   2.081
 3485WAT     H110697   4.746   3.802   2.046
 3485WAT     H210698   4.806   3.729   2.180
 3486WAT      O10699   6.367   6.210   3.890
 3486WAT     H110700   6.285   6.258   3.921
 3486WAT     H210701   6.411   6.262   3.817
 3487WAT      O10702   3.194   3.407   4.900
 3487WAT     H110703   3.113   3.439   4.850
 3487WAT     H210704   3.164   3.355   4.980
 3488WAT      O10705   8.302   5.703   5.516
 3488WAT     H110706   8.378   5.645   5.485
 3488WAT     H210707   8.219   5.648   5.524
 3489WAT      O10708   0.558   9.227   0.015
 3489WAT     H110709   0.618   9.246   0.092
 3489WAT     H210710   0.504   9.309  -0.005
 3490WAT      O10711   9.069   9.619   0.872
 3490WAT     H110712   9.167   9.620   0.896
 3490WAT     H210713   9.044   9.706   0.830
 3491WAT      O10714   0.505   3.686   4.200
 3491WAT     H110715   0.487   3.588   4.202
 3491WAT     H210716   0.602   3.702   4.222
 3492WAT      O10717   3.100   3.979   0.990
 3492WAT     H110718   3.137   3.887   1.002
 3492WAT     H210719   3.125   4.014   0.899
 3493WAT      O10720   2.711   0.594   9.719
 3493WAT     H110721   2.785   0.529   9.736
 3493WAT     H210722   2.623   0.548   9.728
 3494WAT      O10723   9.071   6.766   5.611
 3494WAT     H110724   9.121   6.846   5.578
 3494WAT     H210725   9.010   6.794   5.685
 3495WAT      O10726   4.132   4.868   8.597
 3495WAT     H110727   4.038   4.840   8.580
 3495WAT     H210728   4.167   4.821   8.678
 3496WAT      O10729   2.522   3.267   0.379
 3496WAT     H110730   2.607   3.306   0.414
 3496WAT     H210731   2.514   3.287   0.281
 3497WAT      O10732   0.545   6.059   7.542
 3497WAT     H110733   0.523   6.154   7.567
 3497WAT     H210734   0.547   6.003   7.624
 3498WAT      O10735   5.601   8.981   7.945
 3498WAT     H110736   5.572   8.907   7.884
 3498WAT     H210737   5.686   8.955   7.991
 3499WAT      O10738   5.225   4.378   4.368
 3499WAT     H110739   5.264   4.469   4.354
 3499WAT     H210740   5.287   4.309   4.331
 3500WAT      O10741   0.015   4.211   9.055
 3500WAT     H110742  -0.079   4.246   9.052
 3500WAT     H210743   0.023   4.144   9.129
 3501WAT      O10744   8.741   1.814   8.498
 3501WAT     H110745   8.768   1.883   8.565
 3501WAT     H210746   8.671   1.851   8.438
 3502WAT      O10747   6.638   4.286   9.334
 3502WAT     H110748   6.693   4.271   9.416
 3502WAT     H210749   6.638   4.203   9.278
 3503WAT      O10750   7.212   2.437   6.825
 3503WAT     H110751   7.153   2.466   6.900
 3503WAT     H210752   7.156   2.402   6.750
 3504WAT      O10753   1.523   5.253   1.203
 3504WAT     H110754   1.518   5.169   1.149
 3504WAT     H210755   1.619   5.274   1.224
 3505WAT      O10756   6.476   4.620   3.770
 3505WAT     H110757   6.575   4.625   3.780
 3505WAT     H210758   6.448   4.668   3.686
 3506WAT      O10759   2.774   9.282   1.732
 3506WAT     H110760   2.717   9.242   1.661
 3506WAT     H210761   2.728   9.275   1.820
 3507WAT      O10762   0.506   5.927   5.558
 3507WAT     H110763   0.504   6.027   5.569
 3507WAT     H210764   0.415   5.890   5.577
 3508WAT      O10765   9.137   3.220   5.789
 3508WAT     H110766   9.108   3.284   5.719
 3508WAT     H210767   9.168   3.135   5.746
 3509WAT      O10768   1.106   0.018   0.880
 3509WAT     H110769   1.079   0.057   0.968
 3509WAT     H210770   1.152  -0.069   0.895
 3510WAT      O10771   2.801   0.210   9.644
 3510WAT     H110772   2.843   0.256   9.722
 3510WAT     H210773   2.726   0.266   9.608
 3511WAT      O10774   4.750   8.824   8.689
 3511WAT     H110775   4.824   8.758   8.694
 3511WAT     H210776   4.778   8.909   8.734
 3512WAT      O10777   0.754   2.288   0.709
 3512WAT     H110778   0.665   2.290   0.755
 3512WAT     H210779   0.783   2.193   0.698
 3513WAT      O10780   5.668   0.999   9.669
 3513WAT     H110781   5.584   1.023   9.621
 3513WAT     H210782   5.742   0.987   9.602
 3514WAT      O10783   8.248   3.964   8.733
 3514WAT     H110784   8.331   3.954   8.678
 3514WAT     H210785   8.168   3.960   8.673
 3515WAT      O10786   2.317   1.056   4.206
 3515WAT     H110787   2.347   0.981   4.264
 3515WAT     H210788   2.229   1.091   4.239
 3516WAT      O10789   2.575   8.677   1.183
 3516WAT     H110790   2.675   8.686   1.183
 3516WAT     H210791   2.533   8.767   1.177
 3517WAT      O10792   9.551   5.988   0.027
 3517WAT     H110793   9.587   6.074  -0.011
 3517WAT     H210794   9.472   5.958  -0.027
 3518WAT      O10795   6.091   8.989   9.827
 3518WAT     H110796   6.033   8.983   9.746
 3518WAT     H210797   6.156   9.063   9.817
 3519WAT      O10798   2.545   2.050   0.419
 3519WAT     H110799   2.529   2.135   0.470
 3519WAT     H210800   2.610   2.067   0.345
 3520WAT      O10801   2.074   7.790   3.678
 3520WAT     H110802   2.136   7.838   3.739
 3520WAT     H210803   1.981   7.823   3.692
 3521WAT      O10804   0.797   2.085   5.925
 3521WAT     H110805   0.828   2.180   5.924
 3521WAT     H210806   0.733   2.072   6.001
 3522WAT      O10807   4.169   8.034   7.558
 3522WAT     H110808   4.249   8.092   7.574
 3522WAT     H210809   4.185   7.943   7.597
 3523WAT      O10810   9.321   5.923   8.951
 3523WAT     H110811   9.284   5.997   8.895
 3523WAT     H210812   9.256   5.847   8.955
 3524WAT      O10813   2.505   7.856   2.953
 3524WAT     H110814   2.546   7.922   3.016
 3524WAT     H210815   2.575   7.793   2.920
 3525WAT      O10816   3.260   8.811   1.660
 3525WAT     H110817   3.270   8.883   1.729
 3525WAT     H210818   3.207   8.846   1.583
 3526WAT      O10819   4.521   1.279   0.287
 3526WAT     H110820   4.548   1.280   0.384
 3526WAT     H210821   4.434   1.328   0.276
 3527WAT      O10822   4.720   8.702   4.211
 3527WAT     H110823   4.729   8.786   4.157
 3527WAT     H210824   4.810   8.659   4.220
 3528WAT      O10825   0.855   5.421   9.203
 3528WAT     H110826   0.765   5.393   9.237
 3528WAT     H210827   0.846   5.510   9.157
 3529WAT      O10828   7.167   7.068   5.037
 3529WAT     H110829   7.144   7.092   4.942
 3529WAT     H210830   7.266   7.068   5.047
 3530WAT      O10831   2.851   4.204   5.724
 3530WAT     H110832   2.820   4.249   5.640
 3530WAT     H210833   2.779   4.146   5.760
 3531WAT      O10834   7.080   5.326   9.108
 3531WAT     H110835   6.989   5.297   9.081
 3531WAT     H210836   7.086   5.331   9.208
 3532WAT      O10837   4.071   0.779   2.795
 3532WAT     H110838   4.157   0.748   2.838
 3532WAT     H210839   4.026   0.701   2.753
 3533WAT      O10840   3.373   2.930   1.308
 3533WAT     H110841   3.319   2.996   1.254
 3533WAT     H210842   3.452   2.977   1.348
 3534WAT      O10843   1.284   6.667   8.218
 3534WAT     H110844   1.220   6.605   8.174
 3534WAT     H210845   1.271   6.760   8.183
 3535WAT      O10846   8.007   8.068  -0.005
 3535WAT     H110847   8.026   8.105   0.086
 3535WAT     H210848   7.913   8.035  -0.008
 3536WAT      O10849   8.862   4.150   9.419
 3536WAT     H110850   8.832   4.196   9.502
 3536WAT     H210851   8.882   4.055   9.439
 3537WAT      O10852   3.253   0.523   2.676
 3537WAT     H110853   3.238   0.549   2.771
 3537WAT     H210854   3.305   0.594   2.629
 3538WAT      O10855   6.670   0.755   9.744
 3538WAT     H110856   6.573   0.731   9.734
 3538WAT     H210857   6.685   0.792   9.836
 3539WAT      O10858   3.959   5.144   3.080
 3539WAT     H110859   3.902   5.166   3.159
 3539WAT     H210860   4.049   5.114   3.112
 3540WAT      O10861   5.891   7.881   0.917
 3540WAT     H110862   5.837   7.891   1.000
 3540WAT     H210863   5.914   7.971   0.881
 3541WAT      O10864   8.084   6.036   0.074
 3541WAT     H110865   8.099   5.958   0.013
 3541WAT     H210866   8.080   6.004   0.169
 3542WAT      O10867   5.438   2.214   6.704
 3542WAT     H110868   5.462   2.185   6.611
 3542WAT     H210869   5.428   2.314   6.706
 3543WAT      O10870   7.506   9.573   3.579
 3543WAT     H110871   7.604   9.579   3.596
 3543WAT     H210872   7.480   9.637   3.506
 3544WAT      O10873   0.892   8.847   3.550
 3544WAT     H110874   0.894   8.771   3.486
 3544WAT     H210875   0.800   8.858   3.587
 3545WAT      O10876   0.342   5.695   9.663
 3545WAT     H110877   0.268   5.652   9.612
 3545WAT     H210878   0.429   5.652   9.638
 3546WAT      O10879   9.062   5.005   3.434
 3546WAT     H110880   9.119   4.924   3.446
 3546WAT     H210881   9.117   5.079   3.395
 3547WAT      O10882   9.172   9.325   8.601
 3547WAT     H110883   9.217   9.236   8.591
 3547WAT     H210884   9.240   9.393   8.631
 3548WAT      O10885   1.483   2.901   3.600
 3548WAT     H110886   1.467   2.804   3.618
 3548WAT     H210887   1.396   2.950   3.602
 3549WAT      O10888   6.406   0.590   8.070
 3549WAT     H110889   6.333   0.523   8.063
 3549WAT     H210890   6.414   0.620   8.165
 3550WAT      O10891   4.656   9.244   1.114
 3550WAT     H110892   4.614   9.197   1.037
 3550WAT     H210893   4.604   9.223   1.198
 3551WAT      O10894   4.577   4.384   5.406
 3551WAT     H110895   4.582   4.315   5.334
 3551WAT     H210896   4.504   4.359   5.471
 3552WAT      O10897   7.485   3.954   1.028
 3552WAT     H110898   7.523   3.897   0.956
 3552WAT     H210899   7.551   3.964   1.102
 3553WAT      O10900   0.297   6.226   6.908
 3553WAT     H110901   0.235   6.148   6.915
 3553WAT     H210902   0.325   6.255   7.000
 3554WAT      O10903   4.881   0.030   0.405
 3554WAT     H110904   4.853  -0.063   0.429
 3554WAT     H210905   4.802   0.091   0.411
 3555WAT      O10906   1.763   1.754   6.874
 3555WAT     H110907   1.815   1.766   6.790
 3555WAT     H210908   1.820   1.707   6.942
 3556WAT      O10909   5.743   4.071   4.639
 3556WAT     H110910   5.779   4.034   4.725
 3556WAT     H210911   5.732   4.170   4.647
 3557WAT      O10912   3.836   8.358   2.188
 3557WAT     H110913   3.776   8.357   2.108
 3557WAT     H210914   3.844   8.265   2.224
 3558WAT      O10915   7.211   0.406   4.847
 3558WAT     H110916   7.187   0.402   4.750
 3558WAT     H210917   7.247   0.318   4.876
 3559WAT      O10918   2.930   4.024   6.853
 3559WAT     H110919   2.874   4.018   6.936
 3559WAT     H210920   2.871   4.032   6.773
 3560WAT      O10921   2.562   4.327   7.812
 3560WAT     H110922   2.516   4.247   7.850
 3560WAT     H210923   2.535   4.339   7.717
 3561WAT      O10924   1.672   5.478   2.958
 3561WAT     H110925   1.757   5.459   2.908
 3561WAT     H210926   1.596   5.433   2.912
 3562WAT      O10927   3.892   3.073   3.433
 3562WAT     H110928   3.796   3.061   3.459
 3562WAT     H210929   3.940   3.124   3.504
 3563WAT      O10930   0.021   4.922   8.582
 3563WAT     H110931   0.047   4.962   8.494
 3563WAT     H210932   0.064   4.832   8.591
 3564WAT      O10933   6.537   8.453   7.389
 3564WAT     H110934   6.550   8.402   7.475
 3564WAT     H210935   6.441   8.475   7.378
 3565WAT      O10936   2.310   9.008   2.753
 3565WAT     H110937   2.347   9.053   2.835
 3565WAT     H210938   2.358   8.922   2.739
 3566WAT      O10939   5.607   0.548   1.840
 3566WAT     H110940   5.672   0.612   1.798
 3566WAT     H210941   5.536   0.524   1.773
 3567WAT      O10942   2.898   7.335   8.226
 3567WAT     H110943   2.965   7.368   8.292
 3567WAT     H210944   2.911   7.383   8.138
 3568WAT      O10945   0.253   8.574   0.986
 3568WAT     H110946   0.189   8.555   0.912
 3568WAT     H210947   0.293   8.665   0.973
 3569WAT      O10948   6.780   2.712   1.227
 3569WAT     H110949   6.825   2.769   1.158
 3569WAT     H210950   6.682   2.711   1.211
 3570WAT      O10951   8.115   1.466   6.690
 3570WAT     H110952   8.034   1.515   6.719
 3570WAT     H210953   8.196   1.525   6.700
 3571WAT      O10954   4.225   4.712   8.800
 3571WAT     H110955   4.272   4.755   8.878
 3571WAT     H210956   4.292   4.675   8.737
 3572WAT      O10957   7.765   1.338   7.964
 3572WAT     H110958   7.751   1.415   8.027
 3572WAT     H210959   7.862   1.313   7.964
 3573WAT      O10960   9.263   4.802   2.097
 3573WAT     H110961   9.334   4.733   2.105
 3573WAT     H210962   9.300   4.884   2.053
 3574WAT      O10963   8.866   4.545   0.717
 3574WAT     H110964   8.864   4.621   0.781
 3574WAT     H210965   8.816   4.467   0.757
 3575WAT      O10966   9.643   9.835   5.878
 3575WAT     H110967   9.557   9.841   5.829
 3575WAT     H210968   9.707   9.778   5.827
 3576WAT      O10969   2.581   9.766   4.610
 3576WAT     H110970   2.553   9.698   4.542
 3576WAT     H210971   2.554   9.857   4.579
 3577WAT      O10972   5.555   6.081   5.887
 3577WAT     H110973   5.640   6.078   5.835
 3577WAT     H210974   5.505   5.995   5.875
 3578WAT      O10975   6.061   8.331   3.334
 3578WAT     H110976   6.042   8.245   3.383
 3578WAT     H210977   6.140   8.376   3.377
 3579WAT      O10978   4.393   7.296   9.757
 3579WAT     H110979   4.407   7.213   9.812
 3579WAT     H210980   4.342   7.363   9.810
 3580WAT      O10981   8.831   2.553   2.708
 3580WAT     H110982   8.903   2.545   2.777
 3580WAT     H210983   8.750   2.503   2.740
 3581WAT      O10984   6.983   4.335   2.552
 3581WAT     H110985   6.908   4.269   2.548
 3581WAT     H210986   7.035   4.321   2.636
 3582WAT      O10987   4.588   3.563   1.498
 3582WAT     H110988   4.516   3.564   1.429
 3582WAT     H210989   4.586   3.476   1.548
 3583WAT      O10990   0.148   4.216   9.645
 3583WAT     H110991   0.172   4.149   9.715
 3583WAT     H210992   0.061   4.191   9.604
 3584WAT      O10993   1.856   5.320   0.352
 3584WAT     H110994   1.925   5.312   0.279
 3584WAT     H210995   1.820   5.230   0.374
 3585WAT      O10996   1.790   0.207   2.631
 3585WAT     H110997   1.733   0.283   2.599
 3585WAT     H210998   1.757   0.174   2.719
 3586WAT      O10999   5.621   6.242   7.520
 3586WAT     H111000   5.553   6.307   7.554
 3586WAT     H211001   5.702   6.245   7.579
 3587WAT      O11002   8.828   6.903   0.272
 3587WAT     H111003   8.879   6.981   0.309
 3587WAT     H211004   8.759   6.873   0.338
 3588WAT      O11005   9.834   7.562   2.773
 3588WAT     H111006   9.855   7.643   2.717
 3588WAT     H211007   9.870   7.480   2.728
 3589WAT      O11008   6.531   8.050   6.013
 3589WAT     H111009   6.514   8.041   6.111
 3589WAT     H211010   6.484   7.975   5.965
 3590WAT      O11011   5.888   9.793   9.773
 3590WAT     H111012   5.879   9.820   9.677
 3590WAT     H211013   5.960   9.847   9.816
 3591WAT      O11014   2.852   9.038   6.567
 3591WAT     H111015   2.801   8.954   6.549
 3591WAT     H211016   2.878   9.082   6.481
 3592WAT      O11017   1.581   3.752   8.893
 3592WAT     H111018   1.642   3.763   8.971
 3592WAT     H211019   1.529   3.837   8.879
 3593WAT      O11020   6.411   1.522   2.713
 3593WAT     H111021   6.342   1.487   2.650
 3593WAT     H211022   6.399   1.621   2.725
 3594WAT      O11023   0.917   1.680   0.860
 3594WAT     H111024   0.972   1.602   0.889
 3594WAT     H211025   0.909   1.745   0.936
 3595WAT      O11026   5.829   9.138   1.864
 3595WAT     H111027   5.777   9.216   1.830
 3595WAT     H211028   5.774   9.090   1.933
 3596WAT      O11029   6.310   1.346   2.503
 3596WAT     H111030   6.405   1.349   2.472
 3596WAT     H211031   6.281   1.250   2.511
 3597WAT      O11032   8.193   4.851   5.659
 3597WAT     H111033   8.136   4.778   5.695
 3597WAT     H211034   8.242   4.819   5.578
 3598WAT      O11035   3.075   6.875   7.817
 3598WAT     H111036   3.071   6.805   7.745
 3598WAT     H211037   3.100   6.963   7.776
 3599WAT      O11038   5.721   5.246   3.842
 3599WAT     H111039   5.779   5.187   3.786
 3599WAT     H211040   5.779   5.307   3.897
 3600WAT      O11041   7.627   8.391   1.391
 3600WAT     H111042   7.710   8.373   1.338
 3600WAT     H211043   7.643   8.366   1.486
 3601WAT      O11044   0.209   8.691   5.700
 3601WAT     H111045   0.283   8.659   5.759
 3601WAT     H211046   0.131   8.628   5.706
 3602WAT      O11047   4.406   4.391   9.669
 3602WAT     H111048   4.399   4.326   9.593
 3602WAT     H211049   4.331   4.457   9.664
 3603WAT      O11050   8.273   6.768   7.793
 3603WAT     H111051   8.288   6.720   7.707
 3603WAT     H211052   8.179   6.755   7.824
 3604WAT      O11053   3.350   4.167   7.335
 3604WAT     H111054   3.260   4.141   7.300
 3604WAT     H211055   3.380   4.099   7.402
 3605WAT      O11056   9.768   9.520   3.481
 3605WAT     H111057   9.733   9.443   3.535
 3605WAT     H211058   9.694   9.559   3.427
 3606WAT      O11059   5.555   0.999   1.421
 3606WAT     H111060   5.494   0.924   1.395
 3606WAT     H211061   5.562   1.003   1.521
 3607WAT      O11062   3.239   5.311   4.724
 3607WAT     H111063   3.197   5.289   4.812
 3607WAT     H211064   3.334   5.279   4.723
 3608WAT      O11065   3.977   3.981   5.597
 3608WAT     H111066   4.068   3.948   5.620
 3608WAT     H211067   3.959   4.067   5.646
 3609WAT      O11068   4.753   4.036   3.173
 3609WAT     H111069   4.779   3.964   3.108
 3609WAT     H211070   4.757   3.999   3.266
 3610WAT      O11071   1.052   6.808   4.914
 3610WAT     H111072   1.025   6.866   4.991
 3610WAT     H211073   0.988   6.820   4.838
 3611WAT      O11074   9.487   4.282   1.526
 3611WAT     H111075   9.493   4.378   1.553
 3611WAT     H211076   9.533   4.226   1.595
 3612WAT      O11077   8.807   5.474   1.931
 3612WAT     H111078   8.815   5.565   1.970
 3612WAT     H211079   8.879   5.461   1.862
 3613WAT      O11080   5.630   1.507   0.938
 3613WAT     H111081   5.573   1.573   0.987
 3613WAT     H211082   5.699   1.556   0.885
 3614WAT      O11083   5.490   0.183   5.143
 3614WAT     H111084   5.482   0.164   5.241
 3614WAT     H211085   5.417   0.136   5.094
 3615WAT      O11086   3.266   8.554   1.097
 3615WAT     H111087   3.285   8.562   1.195
 3615WAT     H211088   3.303   8.634   1.049
 3616WAT      O11089   3.417   9.272   0.825
 3616WAT     H111090   3.408   9.189   0.770
 3616WAT     H211091   3.514   9.292   0.840
 3617WAT      O11092   6.587   5.414   1.301
 3617WAT     H111093   6.577   5.314   1.304
 3617WAT     H211094   6.681   5.438   1.275
 3618WAT      O11095   2.764   3.598   0.724
 3618WAT     H111096   2.677   3.594   0.674
 3618WAT     H211097   2.837   3.559   0.668
 3619WAT      O11098   9.863   0.931   5.544
 3619WAT     H111099   9.940   0.990   5.520
 3619WAT     H211100   9.827   0.888   5.461
 3620WAT      O11101   2.686   3.567   6.104
 3620WAT     H111102   2.679   3.473   6.073
 3620WAT     H211103   2.681   3.629   6.025
 3621WAT      O11104   6.636   3.251   5.636
 3621WAT     H111105   6.571   3.180   5.662
 3621WAT     H211106   6.727   3.210   5.626
 3622WAT      O11107   1.324   0.987   2.981
 3622WAT     H111108   1.420   0.958   2.985
 3622WAT     H211109   1.303   1.041   3.063
 3623WAT      O11110   3.222   2.127   0.122
 3623WAT     H111111   3.299   2.191   0.129
 3623WAT     H211112   3.169   2.148   0.040
 3624WAT      O11113   5.441   7.670  -0.001
 3624WAT     H111114   5.440   7.664   0.099
 3624WAT     H211115   5.467   7.763  -0.028
 3625WAT      O11116   7.703   0.299   8.332
 3625WAT     H111117   7.740   0.212   8.367
 3625WAT     H211118   7.772   0.344   8.275
 3626WAT      O11119   8.958   5.152   2.614
 3626WAT     H111120   8.869   5.106   2.616
 3626WAT     H211121   9.006   5.128   2.530
 3627WAT      O11122   0.554   4.626   6.532
 3627WAT     H111123   0.613   4.554   6.571
 3627WAT     H211124   0.481   4.647   6.596
 3628WAT      O11125   3.861   2.426   0.835
 3628WAT     H111126   3.899   2.486   0.906
 3628WAT     H211127   3.905   2.446   0.748
 3629WAT      O11128   8.552   9.494   3.921
 3629WAT     H111129   8.470   9.502   3.979
 3629WAT     H211130   8.634   9.505   3.978
 3630WAT      O11131   6.019   3.890   1.580
 3630WAT     H111132   6.100   3.945   1.604
 3630WAT     H211133   5.953   3.948   1.532
 3631WAT      O11134   3.374   6.149   8.506
 3631WAT     H111135   3.419   6.085   8.443
 3631WAT     H211136   3.300   6.195   8.458
 3632WAT      O11137   1.948   6.915   2.003
 3632WAT     H111138   1.990   6.945   2.089
 3632WAT     H211139   1.857   6.880   2.021
 3633WAT      O11140   1.299   5.933   7.873
 3633WAT     H111141   1.381   5.931   7.929
 3633WAT     H211142   1.287   5.845   7.827
 3634WAT      O11143   0.603   2.276   0.421
 3634WAT     H111144   0.624   2.364   0.377
 3634WAT     H211145   0.654   2.269   0.506
 3635WAT      O11146   3.374   6.508   0.188
 3635WAT     H111147   3.329   6.596   0.177
 3635WAT     H211148   3.470   6.516   0.162
 3636WAT      O11149   5.553   2.404   4.595
 3636WAT     H111150   5.554   2.452   4.683
 3636WAT     H211151   5.459   2.396   4.562
 3637WAT      O11152   0.464   0.892   0.180
 3637WAT     H111153   0.464   0.804   0.229
 3637WAT     H211154   0.463   0.966   0.247
 3638WAT      O11155   3.757   2.419   0.081
 3638WAT     H111156   3.662   2.450   0.077
 3638WAT     H211157   3.759   2.319   0.075
 3639WAT      O11158   9.251   1.687   1.371
 3639WAT     H111159   9.246   1.625   1.449
 3639WAT     H211160   9.327   1.751   1.385
 3640WAT      O11161   0.689   6.142   1.265
 3640WAT     H111162   0.608   6.199   1.275
 3640WAT     H211163   0.661   6.048   1.243
 3641WAT      O11164   9.259   1.159   2.672
 3641WAT     H111165   9.218   1.176   2.582
 3641WAT     H211166   9.245   1.238   2.731
 3642WAT      O11167   7.544   5.815   0.123
 3642WAT     H111168   7.567   5.908   0.151
 3642WAT     H211169   7.628   5.764   0.105
 3643WAT      O11170   2.256   4.778   9.397
 3643WAT     H111171   2.251   4.876   9.417
 3643WAT     H211172   2.172   4.749   9.352
 3644WAT      O11173   2.099   7.204   4.557
 3644WAT     H111174   2.107   7.282   4.494
 3644WAT     H211175   2.190   7.167   4.574
 3645WAT      O11176   6.587   3.713   4.398
 3645WAT     H111177   6.629   3.665   4.475
 3645WAT     H211178   6.559   3.647   4.328
 3646WAT      O11179   8.607   1.796   3.684
 3646WAT     H111180   8.594   1.893   3.704
 3646WAT     H211181   8.704   1.776   3.678
 3647WAT      O11182   4.949   5.505   6.271
 3647WAT     H111183   5.010   5.459   6.336
 3647WAT     H211184   4.996   5.583   6.231
 3648WAT      O11185   5.702   4.270   4.897
 3648WAT     H111186   5.744   4.346   4.948
 3648WAT     H211187   5.692   4.296   4.801
 3649WAT      O11188   6.582   5.450   4.295
 3649WAT     H111189   6.520   5.373   4.283
 3649WAT     H211190   6.571   5.513   4.218
 3650WAT      O11191   5.709   3.190   1.305
 3650WAT     H111192   5.627   3.183   1.249
 3650WAT     H211193   5.692   3.251   1.383
 3651WAT      O11194   7.158   0.183   6.693
 3651WAT     H111195   7.132   0.200   6.598
 3651WAT     H211196   7.084   0.213   6.754
 3652WAT      O11197   6.217   9.183   5.684
 3652WAT     H111198   6.120   9.174   5.661
 3652WAT     H211199   6.267   9.104   5.649
 3653WAT      O11200   5.898   2.432   2.749
 3653WAT     H111201   5.922   2.346   2.794
 3653WAT     H211202   5.982   2.482   2.727
 3654WAT      O11203   3.845   6.244   6.373
 3654WAT     H111204   3.765   6.191   6.401
 3654WAT     H211205   3.885   6.202   6.292
 3655WAT      O11206   2.593   1.399   3.722
 3655WAT     H111207   2.626   1.320   3.774
 3655WAT     H211208   2.561   1.369   3.633
 3656WAT      O11209   3.076   6.301   5.512
 3656WAT     H111210   3.108   6.307   5.417
 3656WAT     H211211   3.093   6.208   5.547
 3657WAT      O11212   6.346   0.731   4.225
 3657WAT     H111213   6.296   0.734   4.312
 3657WAT     H211214   6.283   0.705   4.152
 3658WAT      O11215   6.534   9.811   9.712
 3658WAT     H111216   6.436   9.794   9.711
 3658WAT     H211217   6.558   9.865   9.793
 3659WAT      O11218   5.754   3.558   3.884
 3659WAT     H111219   5.789   3.560   3.978
 3659WAT     H211220   5.656   3.541   3.885
 3660WAT      O11221   1.019   3.273   1.373
 3660WAT     H111222   1.052   3.204   1.438
 3660WAT     H211223   1.074   3.269   1.289
 3661WAT      O11224   1.023   2.082   3.734
 3661WAT     H111225   1.021   2.127   3.645
 3661WAT     H211226   0.972   1.996   3.729
 3662WAT      O11227   4.686   0.850   6.863
 3662WAT     H111228   4.757   0.910   6.827
 3662WAT     H211229   4.691   0.761   6.817
 3663WAT      O11230   1.187   3.495   4.848
 3663WAT     H111231   1.261   3.446   4.894
 3663WAT     H211232   1.201   3.492   4.749
 3664WAT      O11233   9.829   9.357   6.744
 3664WAT     H111234   9.767   9.331   6.670
 3664WAT     H211235   9.790   9.432   6.796
 3665WAT      O11236   5.933   9.679   2.710
 3665WAT     H111237   5.855   9.657   2.769
 3665WAT     H211238   5.902   9.695   2.617
 3666WAT      O11239   7.385   7.120   0.174
 3666WAT     H111240   7.311   7.138   0.239
 3666WAT     H211241   7.373   7.177   0.092
 3667WAT      O11242   2.883   1.607   4.113
 3667WAT     H111243   2.839   1.603   4.024
 3667WAT     H211244   2.824   1.565   4.182
 3668WAT      O11245   4.170   2.863   0.865
 3668WAT     H111246   4.230   2.943   0.868
 3668WAT     H211247   4.167   2.827   0.771
 3669WAT      O11248   8.233   1.521   8.940
 3669WAT     H111249   8.155   1.525   8.877
 3669WAT     H211250   8.245   1.428   8.974
 3670WAT      O11251   8.283   8.524   9.668
 3670WAT     H111252   8.243   8.433   9.678
 3670WAT     H211253   8.225   8.580   9.609
 3671WAT      O11254   4.999   6.268   5.078
 3671WAT     H111255   5.065   6.315   5.136
 3671WAT     H211256   4.950   6.335   5.022
 3672WAT      O11257   3.227   9.822   8.948
 3672WAT     H111258   3.236   9.722   8.945
 3672WAT     H211259   3.195   9.849   9.039
 3673WAT      O11260   1.404   2.237   2.091
 3673WAT     H111261   1.346   2.259   2.012
 3673WAT     H211262   1.380   2.296   2.168
 3674WAT      O11263   2.642   3.570   3.088
 3674WAT     H111264   2.645   3.658   3.042
 3674WAT     H211265   2.552   3.557   3.130
 3675WAT      O11266   1.887   2.650   0.134
 3675WAT     H111267   1.867   2.653   0.037
 3675WAT     H211268   1.819   2.593   0.181
 3676WAT      O11269   8.317   2.249   5.866
 3676WAT     H111270   8.328   2.181   5.792
 3676WAT     H211271   8.220   2.258   5.888
 3677WAT      O11272   8.716   2.523   2.454
 3677WAT     H111273   8.755   2.485   2.538
 3677WAT     H211274   8.637   2.579   2.477
 3678WAT      O11275   7.117   1.411   5.521
 3678WAT     H111276   7.027   1.405   5.564
 3678WAT     H211277   7.163   1.495   5.549
 3679WAT      O11278   8.961   2.570   5.440
 3679WAT     H111279   8.930   2.524   5.524
 3679WAT     H211280   8.972   2.501   5.367
 3680WAT      O11281   6.056   5.200   4.392
 3680WAT     H111282   6.046   5.299   4.386
 3680WAT     H211283   5.973   5.156   4.356
 3681WAT      O11284   8.709   4.375   3.353
 3681WAT     H111285   8.790   4.434   3.358
 3681WAT     H211286   8.644   4.412   3.287
 3682WAT      O11287   5.086   5.562   8.387
 3682WAT     H111288   5.038   5.509   8.456
 3682WAT     H211289   5.100   5.655   8.421
 3683WAT      O11290   7.277   9.583   7.534
 3683WAT     H111291   7.255   9.673   7.496
 3683WAT     H211292   7.311   9.524   7.461
 3684WAT      O11293   3.849   4.813   3.424
 3684WAT     H111294   3.911   4.756   3.477
 3684WAT     H211295   3.805   4.757   3.354
 3685WAT      O11296   7.776   0.395   4.192
 3685WAT     H111297   7.860   0.408   4.245
 3685WAT     H211298   7.700   0.378   4.254
 3686WAT      O11299   7.082   5.195   9.872
 3686WAT     H111300   7.173   5.230   9.850
 3686WAT     H211301   7.020   5.271   9.888
 3687WAT      O11302   7.371   8.967   2.477
 3687WAT     H111303   7.406   8.897   2.539
 3687WAT     H211304   7.439   8.986   2.406
 3688WAT      O11305   5.400   3.722   9.757
 3688WAT     H111306   5.391   3.760   9.665
 3688WAT     H211307   5.355   3.783   9.823
 3689WAT      O11308   7.228   1.456   1.623
 3689WAT     H111309   7.299   1.520   1.654
 3689WAT     H211310   7.144   1.472   1.675
 3690WAT      O11311   2.682   2.273   3.025
 3690WAT     H111312   2.706   2.327   2.945
 3690WAT     H211313   2.765   2.242   3.071
 3691WAT      O11314   6.139   2.426   8.261
 3691WAT     H111315   6.211   2.361   8.283
 3691WAT     H211316   6.154   2.511   8.313
 3692WAT      O11317   0.081   0.649   3.232
 3692WAT     H111318   0.131   0.673   3.315
 3692WAT     H211319  -0.008   0.609   3.257
 3693WAT      O11320   4.332   2.670   4.222
 3693WAT     H111321   4.340   2.763   4.259
 3693WAT     H211322   4.264   2.619   4.274
 3694WAT      O11323   0.562   8.999   9.458
 3694WAT     H111324   0.551   9.086   9.411
 3694WAT     H211325   0.582   8.927   9.391
 3695WAT      O11326   8.129   3.797   0.304
 3695WAT     H111327   8.162   3.750   0.386
 3695WAT     H211328   8.178   3.884   0.293
 3696WAT      O11329   2.030   6.702   8.886
 3696WAT     H111330   2.041   6.800   8.867
 3696WAT     H211331   1.970   6.661   8.817
 3697WAT      O11332   9.695   7.753   8.131
 3697WAT     H111333   9.598   7.756   8.105
 3697WAT     H211334   9.748   7.717   8.054
 3698WAT      O11335   5.616   5.683   5.962
 3698WAT     H111336   5.699   5.737   5.968
 3698WAT     H211337   5.536   5.743   5.972
 3699WAT      O11338   1.412   2.104   5.505
 3699WAT     H111339   1.416   2.004   5.501
 3699WAT     H211340   1.412   2.141   5.412
 3700WAT      O11341   1.499   2.708   4.323
 3700WAT     H111342   1.592   2.716   4.285
 3700WAT     H211343   1.501   2.727   4.421
 3701WAT      O11344   6.149   7.148   3.538
 3701WAT     H111345   6.201   7.228   3.508
 3701WAT     H211346   6.084   7.122   3.467
 3702WAT      O11347   5.065   3.605   9.406
 3702WAT     H111348   5.143   3.555   9.368
 3702WAT     H211349   5.048   3.687   9.351
 3703WAT      O11350   8.501   3.291   9.857
 3703WAT     H111351   8.498   3.366   9.923
 3703WAT     H211352   8.585   3.238   9.870
 3704WAT      O11353   0.338   8.628   3.093
 3704WAT     H111354   0.422   8.601   3.140
 3704WAT     H211355   0.353   8.624   2.994
 3705WAT      O11356   8.533   0.152   6.766
 3705WAT     H111357   8.448   0.142   6.818
 3705WAT     H211358   8.602   0.089   6.801
 3706WAT      O11359   5.081   1.683   9.871
 3706WAT     H111360   5.030   1.601   9.844
 3706WAT     H211361   5.178   1.662   9.877
 3707WAT      O11362   8.274   0.682   6.257
 3707WAT     H111363   8.360   0.713   6.216
 3707WAT     H211364   8.275   0.582   6.263
 3708WAT      O11365   0.104   9.798   4.786
 3708WAT     H111366   0.179   9.859   4.762
 3708WAT     H211367   0.048   9.782   4.704
 3709WAT      O11368   9.667   3.209   2.762
 3709WAT     H111369   9.752   3.158   2.775
 3709WAT     H211370   9.595   3.147   2.732
 3710WAT      O11371   7.812   2.803   3.140
 3710WAT     H111372   7.803   2.889   3.089
 3710WAT     H211373   7.874   2.742   3.091
 3711WAT      O11374   1.985   9.662   1.885
 3711WAT     H111375   2.045   9.711   1.823
 3711WAT     H211376   2.038   9.593   1.935
 3712WAT      O11377   9.465   4.106   6.630
 3712WAT     H111378   9.564   4.089   6.632
 3712WAT     H211379   9.446   4.191   6.679
 3713WAT      O11380   6.961   8.312   0.110
 3713WAT     H111381   6.886   8.378   0.122
 3713WAT     H211382   6.931   8.222   0.141
 3714WAT      O11383   2.006   6.512   7.228
 3714WAT     H111384   2.040   6.529   7.135
 3714WAT     H211385   1.938   6.438   7.225
 3715WAT      O11386   5.803   9.334   3.762
 3715WAT     H111387   5.777   9.279   3.683
 3715WAT     H211388   5.885   9.388   3.739
 3716WAT      O11389   8.800   1.693   7.304
 3716WAT     H111390   8.885   1.717   7.351
 3716WAT     H211391   8.728   1.756   7.331
 3717WAT      O11392   4.207   0.828   7.485
 3717WAT     H111393   4.116   0.850   7.450
 3717WAT     H211394   4.222   0.729   7.480
 3718WAT      O11395   4.103   2.277   5.653
 3718WAT     H111396   4.030   2.300   5.588
 3718WAT     H211397   4.118   2.178   5.652
 3719WAT      O11398   8.222   5.681   1.647
 3719WAT     H111399   8.262   5.728   1.569
 3719WAT     H211400   8.166   5.605   1.615
 3720WAT      O11401   6.106   0.568   2.178
 3720WAT     H111402   6.030   0.552   2.241
 3720WAT     H211403   6.150   0.481   2.155
 3721WAT      O11404   7.579   7.619   3.721
 3721WAT     H111405   7.546   7.541   3.774
 3721WAT     H211406   7.618   7.586   3.635
 3722WAT      O11407   7.594   0.420   9.106
 3722WAT     H111408   7.531   0.372   9.044
 3722WAT     H211409   7.543   0.456   9.184
 3723WAT      O11410   2.338   4.131   6.886
 3723WAT     H111411   2.258   4.095   6.935
 3723WAT     H211412   2.394   4.054   6.855
 3724WAT      O11413   8.610   8.499   9.398
 3724WAT     H111414   8.694   8.501   9.343
 3724WAT     H211415   8.590   8.404   9.424
 3725WAT      O11416   6.741   9.550   6.499
 3725WAT     H111417   6.715   9.570   6.404
 3725WAT     H211418   6.697   9.617   6.560
 3726WAT      O11419   7.964   8.832   0.196
 3726WAT     H111420   7.954   8.820   0.295
 3726WAT     H211421   7.976   8.742   0.153
 3727WAT      O11422   9.745   6.137   8.739
 3727WAT     H111423   9.682   6.060   8.746
 3727WAT     H211424   9.713   6.200   8.669
 3728WAT      O11425   4.801   5.169   3.760
 3728WAT     H111426   4.822   5.084   3.807
 3728WAT     H211427   4.738   5.150   3.685
 3729WAT      O11428   4.004   8.842   1.710
 3729WAT     H111429   3.941   8.854   1.633
 3729WAT     H211430   3.973   8.898   1.787
 3730WAT      O11431   0.442   4.982   4.489
 3730WAT     H111432   0.535   5.004   4.517
 3730WAT     H211433   0.443   4.945   4.396
 3731WAT      O11434   7.408   6.906   1.447
 3731WAT     H111435   7.486   6.958   1.482
 3731WAT     H211436   7.363   6.858   1.522
 3732WAT      O11437   2.975   8.656   4.025
 3732WAT     H111438   2.887   8.626   3.986
 3732WAT     H211439   2.992   8.750   3.998
 3733WAT      O11440   5.388   7.138   0.306
 3733WAT     H111441   5.430   7.057   0.265
 3733WAT     H211442   5.305   7.110   0.355
 3734WAT      O11443   6.445   9.015   0.893
 3734WAT     H111444   6.418   9.073   0.970
 3734WAT     H211445   6.531   9.048   0.854
 3735WAT      O11446   2.965   2.783   5.751
 3735WAT     H111447   2.947   2.688   5.778
 3735WAT     H211448   2.900   2.843   5.797
 3736WAT      O11449   8.595   6.948   4.477
 3736WAT     H111450   8.614   6.961   4.574
 3736WAT     H211451   8.653   6.874   4.442
 3737WAT      O11452   7.840   6.191   9.433
 3737WAT     H111453   7.799   6.124   9.370
 3737WAT     H211454   7.938   6.173   9.441
 3738WAT      O11455   5.149   2.885   7.766
 3738WAT     H111456   5.209   2.960   7.795
 3738WAT     H211457   5.055   2.907   7.794
 3739WAT      O11458   3.893   2.400   4.475
 3739WAT     H111459   3.861   2.407   4.570
 3739WAT     H211460   3.838   2.459   4.417
 3740WAT      O11461   6.533   0.088   1.754
 3740WAT     H111462   6.498  -0.004   1.739
 3740WAT     H211463   6.536   0.138   1.667
 3741WAT      O11464   3.278   4.648   2.870
 3741WAT     H111465   3.309   4.671   2.962
 3741WAT     H211466   3.328   4.567   2.838
 3742WAT      O11467   6.286   4.128   3.270
 3742WAT     H111468   6.308   4.151   3.365
 3742WAT     H211469   6.340   4.049   3.242
 3743WAT      O11470   3.550   7.278   8.425
 3743WAT     H111471   3.586   7.359   8.472
 3743WAT     H211472   3.512   7.306   8.336
 3744WAT      O11473   1.792   4.384   1.109
 3744WAT     H111474   1.728   4.324   1.062
 3744WAT     H211475   1.797   4.472   1.061
 3745WAT      O11476   5.385   1.609   2.544
 3745WAT     H111477   5.392   1.708   2.528
 3745WAT     H211478   5.475   1.573   2.570
 3746WAT      O11479   3.382   4.056   2.885
 3746WAT     H111480   3.368   4.154   2.894
 3746WAT     H211481   3.413   4.018   2.972
 3747WAT      O11482   0.125   7.086   9.423
 3747WAT     H111483   0.030   7.074   9.453
 3747WAT     H211484   0.147   7.014   9.356
 3748WAT      O11485   0.595   1.078   6.499
 3748WAT     H111486   0.605   0.995   6.444
 3748WAT     H211487   0.639   1.064   6.588
 3749WAT      O11488   4.753   5.824   7.509
 3749WAT     H111489   4.736   5.861   7.417
 3749WAT     H211490   4.776   5.727   7.502
 3750WAT      O11491   0.770   6.188   4.448
 3750WAT     H111492   0.729   6.137   4.524
 3750WAT     H211493   0.869   6.174   4.449
 3751WAT      O11494   4.836   9.331   9.852
 3751WAT     H111495   4.935   9.341   9.862
 3751WAT     H211496   4.809   9.239   9.881
 3752WAT      O11497   0.601   4.321   2.994
 3752WAT     H111498   0.656   4.364   2.923
 3752WAT     H211499   0.661   4.293   3.069
 3753WAT      O11500   0.340   1.928   8.042
 3753WAT     H111501   0.291   2.012   8.017
 3753WAT     H211502   0.303   1.852   7.988
 3754WAT      O11503   6.667   9.769   2.327
 3754WAT     H111504   6.616   9.785   2.243
 3754WAT     H211505   6.631   9.688   2.373
 3755WAT      O11506   1.153   6.638   1.320
 3755WAT     H111507   1.150   6.693   1.236
 3755WAT     H211508   1.142   6.542   1.298
 3756WAT      O11509   9.838   1.693   6.564
 3756WAT     H111510   9.791   1.637   6.632
 3756WAT     H211511   9.821   1.790   6.583
 3757WAT      O11512   8.084   7.710   8.447
 3757WAT     H111513   8.001   7.759   8.472
 3757WAT     H211514   8.063   7.646   8.373
 3758WAT      O11515   1.554   8.792   7.246
 3758WAT     H111516   1.537   8.891   7.243
 3758WAT     H211517   1.521   8.750   7.161
 3759WAT      O11518   1.092   7.799   0.722
 3759WAT     H111519   1.103   7.810   0.821
 3759WAT     H211520   1.012   7.741   0.704
 3760WAT      O11521   1.725   6.806   2.150
 3760WAT     H111522   1.674   6.867   2.211
 3760WAT     H211523   1.662   6.766   2.083
 3761WAT      O11524   3.881   6.390   8.291
 3761WAT     H111525   3.961   6.364   8.345
 3761WAT     H211526   3.823   6.451   8.345
 3762WAT      O11527   8.179   7.894   6.327
 3762WAT     H111528   8.237   7.975   6.315
 3762WAT     H211529   8.203   7.826   6.258
 3763WAT      O11530   7.916   2.711   8.925
 3763WAT     H111531   7.956   2.775   8.860
 3763WAT     H211532   7.828   2.747   8.957
 3764WAT      O11533   7.886   1.460   3.655
 3764WAT     H111534   7.880   1.484   3.559
 3764WAT     H211535   7.956   1.390   3.668
 3765WAT      O11536   5.425   7.746   6.397
 3765WAT     H111537   5.416   7.646   6.396
 3765WAT     H211538   5.459   7.776   6.486
 3766WAT      O11539   2.297   2.479   5.217
 3766WAT     H111540   2.373   2.439   5.165
 3766WAT     H211541   2.237   2.406   5.249
 3767WAT      O11542   9.302   4.303   4.756
 3767WAT     H111543   9.374   4.369   4.775
 3767WAT     H211544   9.224   4.350   4.714
 3768WAT      O11545   6.772   3.505   1.748
 3768WAT     H111546   6.695   3.567   1.760
 3768WAT     H211547   6.853   3.557   1.721
 3769WAT      O11548   3.325   3.620   3.581
 3769WAT     H111549   3.361   3.706   3.545
 3769WAT     H211550   3.231   3.608   3.551
 3770WAT      O11551   1.003   7.106   7.264
 3770WAT     H111552   1.018   7.202   7.241
 3770WAT     H211553   1.074   7.075   7.327
 3771WAT      O11554   6.488   0.426   7.664
 3771WAT     H111555   6.439   0.340   7.678
 3771WAT     H211556   6.536   0.451   7.748
 3772WAT      O11557   0.535   0.889   1.936
 3772WAT     H111558   0.558   0.963   1.999
 3772WAT     H211559   0.513   0.806   1.988
 3773WAT      O11560   4.184   2.983   0.410
 3773WAT     H111561   4.094   3.023   0.425
 3773WAT     H211562   4.182   2.927   0.327
 3774WAT      O11563   8.267   2.117   1.056
 3774WAT     H111564   8.200   2.044   1.074
 3774WAT     H211565   8.316   2.097   0.972
 3775WAT      O11566   1.595   8.398   9.217
 3775WAT     H111567   1.519   8.335   9.201
 3775WAT     H211568   1.627   8.388   9.311
 3776WAT      O11569   1.740   8.554   9.703
 3776WAT     H111570   1.653   8.602   9.704
 3776WAT     H211571   1.759   8.517   9.794
 3777WAT      O11572   0.569   4.064   2.005
 3777WAT     H111573   0.639   4.077   1.935
 3777WAT     H211574   0.515   3.982   1.983
 3778WAT      O11575   4.368   3.698   5.406
 3778WAT     H111576   4.306   3.775   5.425
 3778WAT     H211577   4.455   3.734   5.374
 3779WAT      O11578   2.656   5.360   5.753
 3779WAT     H111579   2.707   5.295   5.697
 3779WAT     H211580   2.710   5.443   5.767
 3780WAT      O11581   4.492   4.211   3.514
 3780WAT     H111582   4.515   4.215   3.417
 3780WAT     H211583   4.412   4.151   3.527
 3781WAT      O11584   1.563   3.521   3.549
 3781WAT     H111585   1.581   3.430   3.512
 3781WAT     H211586   1.505   3.513   3.630
 3782WAT      O11587   4.929   6.566   3.365
 3782WAT     H111588   5.006   6.540   3.306
 3782WAT     H211589   4.957   6.641   3.425
 3783WAT      O11590   2.715   5.695   1.367
 3783WAT     H111591   2.787   5.658   1.308
 3783WAT     H211592   2.722   5.655   1.458
 3784WAT      O11593   7.799   4.083   4.781
 3784WAT     H111594   7.832   4.103   4.689
 3784WAT     H211595   7.816   3.987   4.803
 3785WAT      O11596   2.927   7.032   5.133
 3785WAT     H111597   2.837   6.990   5.124
 3785WAT     H211598   2.993   6.963   5.163
 3786WAT      O11599   0.131   0.019   0.091
 3786WAT     H111600   0.172  -0.056   0.040
 3786WAT     H211601   0.038   0.035   0.057
 3787WAT      O11602   4.381   5.583   1.789
 3787WAT     H111603   4.410   5.679   1.793
 3787WAT     H211604   4.322   5.563   1.867
 3788WAT      O11605   5.079   7.440   1.780
 3788WAT     H111606   5.098   7.449   1.682
 3788WAT     H211607   5.162   7.460   1.832
 3789WAT      O11608   4.462   5.397   8.835
 3789WAT     H111609   4.550   5.445   8.827
 3789WAT     H211610   4.443   5.347   8.750
 3790WAT      O11611   0.293   2.102   5.051
 3790WAT     H111612   0.280   2.139   5.143
 3790WAT     H211613   0.352   2.022   5.055
 3791WAT      O11614   3.858   6.579   4.843
 3791WAT     H111615   3.818   6.489   4.823
 3791WAT     H211616   3.915   6.571   4.925
 3792WAT      O11617   0.758   3.383   2.336
 3792WAT     H111618   0.852   3.392   2.302
 3792WAT     H211619   0.736   3.461   2.395
 3793WAT      O11620   1.776   6.781   3.586
 3793WAT     H111621   1.752   6.709   3.651
 3793WAT     H211622   1.709   6.855   3.592
 3794WAT      O11623   7.338   0.596   0.196
 3794WAT     H111624   7.301   0.527   0.259
 3794WAT     H211625   7.406   0.553   0.136
 3795WAT      O11626   9.071   3.870   6.739
 3795WAT     H111627   9.072   3.954   6.685
 3795WAT     H211628   9.162   3.828   6.736
 3796WAT      O11629   3.269   9.731   7.273
 3796WAT     H111630   3.293   9.811   7.328
 3796WAT     H211631   3.174   9.739   7.242
 3797WAT      O11632   1.867   6.041   4.694
 3797WAT     H111633   1.804   6.119   4.698
 3797WAT     H211634   1.820   5.959   4.725
 3798WAT      O11635   7.836   3.630   3.331
 3798WAT     H111636   7.779   3.635   3.249
 3798WAT     H211637   7.843   3.535   3.361
 3799WAT      O11638   5.636   3.701   4.469
 3799WAT     H111639   5.723   3.746   4.487
 3799WAT     H211640   5.561   3.767   4.482
 3800WAT      O11641   9.622   9.308   6.494
 3800WAT     H111642   9.672   9.257   6.424
 3800WAT     H211643   9.526   9.278   6.495
 3801WAT      O11644   2.803   8.474   0.915
 3801WAT     H111645   2.738   8.528   0.862
 3801WAT     H211646   2.870   8.433   0.853
 3802WAT      O11647   6.672   5.540   5.946
 3802WAT     H111648   6.645   5.589   6.029
 3802WAT     H211649   6.608   5.563   5.872
 3803WAT      O11650   8.372   1.073   4.894
 3803WAT     H111651   8.341   1.165   4.868
 3803WAT     H211652   8.295   1.010   4.891
 3804WAT      O11653   8.369   7.578   5.974
 3804WAT     H111654   8.353   7.622   5.886
 3804WAT     H211655   8.350   7.481   5.967
 3805WAT      O11656   7.925   8.917   0.849
 3805WAT     H111657   8.019   8.950   0.862
 3805WAT     H211658   7.927   8.830   0.800
 3806WAT      O11659   1.188   6.545   8.891
 3806WAT     H111660   1.150   6.512   8.977
 3806WAT     H211661   1.175   6.475   8.820
 3807WAT      O11662   9.231   5.140   2.719
 3807WAT     H111663   9.132   5.140   2.703
 3807WAT     H211664   9.267   5.048   2.705
 3808WAT      O11665   4.014   7.976   7.860
 3808WAT     H111666   3.967   7.896   7.897
 3808WAT     H211667   4.051   7.953   7.769
 3809WAT      O11668   3.972   0.556   5.056
 3809WAT     H111669   4.050   0.609   5.090
 3809WAT     H211670   3.905   0.544   5.129
 3810WAT      O11671   8.766   6.870   5.956
 3810WAT     H111672   8.679   6.896   5.998
 3810WAT     H211673   8.823   6.824   6.025
 3811WAT      O11674   4.187   3.731   3.049
 3811WAT     H111675   4.245   3.697   3.123
 3811WAT     H211676   4.243   3.742   2.967
 3812WAT      O11677   5.467   2.677   2.202
 3812WAT     H111678   5.447   2.631   2.289
 3812WAT     H211679   5.385   2.676   2.145
 3813WAT      O11680   6.513   5.894   6.500
 3813WAT     H111681   6.608   5.912   6.473
 3813WAT     H211682   6.496   5.936   6.589
 3814WAT      O11683   0.911   3.764   0.403
 3814WAT     H111684   0.857   3.753   0.320
 3814WAT     H211685   0.989   3.825   0.385
 3815WAT      O11686   0.588   0.270   1.784
 3815WAT     H111687   0.517   0.252   1.852
 3815WAT     H211688   0.594   0.192   1.721
 3816WAT      O11689   0.586   0.354   5.807
 3816WAT     H111690   0.517   0.419   5.837
 3816WAT     H211691   0.661   0.351   5.873
 3817WAT      O11692   6.197   0.030   8.713
 3817WAT     H111693   6.260   0.105   8.733
 3817WAT     H211694   6.109   0.068   8.684
 3818WAT      O11695   5.197   6.572   6.278
 3818WAT     H111696   5.131   6.647   6.287
 3818WAT     H211697   5.259   6.591   6.201
 3819WAT      O11698   6.200   6.828   2.101
 3819WAT     H111699   6.191   6.927   2.103
 3819WAT     H211700   6.236   6.799   2.012
 3820WAT      O11701   2.071   4.477   1.839
 3820WAT     H111702   2.121   4.400   1.799
 3820WAT     H211703   1.992   4.443   1.889
 3821WAT      O11704   2.311   2.327   6.393
 3821WAT     H111705   2.321   2.417   6.437
 3821WAT     H211706   2.255   2.268   6.452
 3822WAT      O11707   7.214   3.559   1.809
 3822WAT     H111708   7.294   3.606   1.845
 3822WAT     H211709   7.176   3.499   1.880
 3823WAT      O11710   0.771   7.974   8.739
 3823WAT     H111711   0.782   7.875   8.739
 3823WAT     H211712   0.778   8.008   8.645
 3824WAT      O11713   6.874   7.972   5.271
 3824WAT     H111714   6.880   8.066   5.240
 3824WAT     H211715   6.837   7.915   5.197
 3825WAT      O11716   9.694   6.893   5.657
 3825WAT     H111717   9.744   6.980   5.649
 3825WAT     H211718   9.759   6.817   5.654
 3826WAT      O11719   2.739   2.045   6.692
 3826WAT     H111720   2.705   2.017   6.781
 3826WAT     H211721   2.665   2.085   6.638
 3827WAT      O11722   2.063   0.032   0.890
 3827WAT     H111723   2.001  -0.033   0.847
 3827WAT     H211724   2.087   0.104   0.825
 3828WAT      O11725   6.143   9.053   2.822
 3828WAT     H111726   6.091   9.127   2.779
 3828WAT     H211727   6.099   8.966   2.801
 3829WAT      O11728   8.458   0.479   2.125
 3829WAT     H111729   8.519   0.527   2.062
 3829WAT     H211730   8.455   0.527   2.213
 3830WAT      O11731   1.785   0.213   8.101
 3830WAT     H111732   1.787   0.114   8.092
 3830WAT     H211733   1.812   0.239   8.193
 3831WAT      O11734   2.337   9.665   3.587
 3831WAT     H111735   2.253   9.613   3.601
 3831WAT     H211736   2.410   9.625   3.642
 3832WAT      O11737   2.326   7.156   7.082
 3832WAT     H111738   2.369   7.171   6.993
 3832WAT     H211739   2.228   7.138   7.069
 3833WAT      O11740   2.635   3.234   7.775
 3833WAT     H111741   2.576   3.312   7.795
 3833WAT     H211742   2.581   3.150   7.779
 3834WAT      O11743   1.868   3.060   6.794
 3834WAT     H111744   1.810   3.141   6.789
 3834WAT     H211745   1.959   3.085   6.828
 3835WAT      O11746   4.417   5.777   9.013
 3835WAT     H111747   4.464   5.709   9.069
 3835WAT     H211748   4.324   5.745   8.993
 3836WAT      O11749   7.981   6.703   5.019
 3836WAT     H111750   8.040   6.663   5.090
 3836WAT     H211751   8.033   6.770   4.967
 3837WAT      O11752   2.895   3.293   0.217
 3837WAT     H111753   2.979   3.303   0.271
 3837WAT     H211754   2.915   3.316   0.121
 3838WAT      O11755   7.030   3.643   6.834
 3838WAT     H111756   7.011   3.572   6.766
 3838WAT     H211757   6.997   3.731   6.799
 3839WAT      O11758   9.216   5.842   0.572
 3839WAT     H111759   9.146   5.912   0.586
 3839WAT     H211760   9.197   5.792   0.487
 3840WAT      O11761   9.174   4.751   8.139
 3840WAT     H111762   9.151   4.661   8.102
 3840WAT     H211763   9.206   4.742   8.234
 3841WAT      O11764   9.364   7.691   9.018
 3841WAT     H111765   9.399   7.766   9.074
 3841WAT     H211766   9.303   7.634   9.072
 3842WAT      O11767   7.799   9.527   3.205
 3842WAT     H111768   7.874   9.463   3.187
 3842WAT     H211769   7.725   9.479   3.253
 3843WAT      O11770   1.693   6.119   0.828
 3843WAT     H111771   1.763   6.110   0.899
 3843WAT     H211772   1.661   6.028   0.801
 3844WAT      O11773   1.852   5.522   4.089
 3844WAT     H111774   1.841   5.594   4.020
 3844WAT     H211775   1.895   5.561   4.171
 3845WAT      O11776   4.597   9.026   5.353
 3845WAT     H111777   4.601   9.094   5.280
 3845WAT     H211778   4.502   9.001   5.370
 3846WAT      O11779   6.415   7.326   4.018
 3846WAT     H111780   6.324   7.361   3.997
 3846WAT     H211781   6.427   7.319   4.117
 3847WAT      O11782   3.380   0.668   0.389
 3847WAT     H111783   3.394   0.765   0.410
 3847WAT     H211784   3.437   0.612   0.448
 3848WAT      O11785   1.834   9.527   4.455
 3848WAT     H111786   1.901   9.452   4.450
 3848WAT     H211787   1.746   9.491   4.487
 3849WAT      O11788   0.638   4.091   7.191
 3849WAT     H111789   0.715   4.090   7.255
 3849WAT     H211790   0.555   4.061   7.239
 3850WAT      O11791   4.651   1.238   5.310
 3850WAT     H111792   4.708   1.163   5.274
 3850WAT     H211793   4.711   1.309   5.348
 3851WAT      O11794   6.232   7.115   9.271
 3851WAT     H111795   6.214   7.016   9.277
 3851WAT     H211796   6.145   7.164   9.262
 3852WAT      O11797   1.496   2.334   3.160
 3852WAT     H111798   1.402   2.303   3.146
 3852WAT     H211799   1.495   2.420   3.212
 3853WAT      O11800   9.855   8.097   2.771
 3853WAT     H111801   9.898   8.145   2.848
 3853WAT     H211802   9.814   8.163   2.709
 3854WAT      O11803   9.499   5.633   5.493
 3854WAT     H111804   9.427   5.695   5.522
 3854WAT     H211805   9.566   5.621   5.567
 3855WAT      O11806   0.557   1.984   7.554
 3855WAT     H111807   0.518   1.914   7.614
 3855WAT     H211808   0.601   2.054   7.610
 3856WAT      O11809   9.571   1.511   9.598
 3856WAT     H111810   9.644   1.556   9.545
 3856WAT     H211811   9.610   1.436   9.651
 3857WAT      O11812   2.804   2.614   5.536
 3857WAT     H111813   2.799   2.519   5.566
 3857WAT     H211814   2.899   2.644   5.532
 3858WAT      O11815   5.583   0.513   8.267
 3858WAT     H111816   5.570   0.568   8.350
 3858WAT     H211817   5.650   0.441   8.284
 3859WAT      O11818   0.604   0.389   9.111
 3859WAT     H111819   0.701   0.397   9.132
 3859WAT     H211820   0.590   0.319   9.042
 3860WAT      O11821   1.228   6.575   3.214
 3860WAT     H111822   1.152   6.572   3.149
 3860WAT     H211823   1.315   6.566   3.164
 3861WAT      O11824   6.959   4.826   9.881
 3861WAT     H111825   6.968   4.882   9.798
 3861WAT     H211826   7.048   4.787   9.904
 3862WAT      O11827   6.552   5.810   5.579
 3862WAT     H111828   6.651   5.792   5.573
 3862WAT     H211829   6.507   5.774   5.497
 3863WAT      O11830   9.730   8.085   3.555
 3863WAT     H111831   9.664   8.160   3.548
 3863WAT     H211832   9.724   8.028   3.473
 3864WAT      O11833   8.141   3.536   4.049
 3864WAT     H111834   8.228   3.494   4.075
 3864WAT     H211835   8.100   3.484   3.974
 3865WAT      O11836   7.774   3.198   4.590
 3865WAT     H111837   7.675   3.203   4.604
 3865WAT     H211838   7.821   3.260   4.653
 3866WAT      O11839   0.146   2.231   8.678
 3866WAT     H111840   0.199   2.314   8.697
 3866WAT     H211841   0.173   2.193   8.590
 3867WAT      O11842   0.871   1.894   3.455
 3867WAT     H111843   0.876   1.809   3.403
 3867WAT     H211844   0.867   1.874   3.552
 3868WAT      O11845   0.780   2.100   1.701
 3868WAT     H111846   0.844   2.152   1.758
 3868WAT     H211847   0.716   2.051   1.760
 3869WAT      O11848   7.883   1.983   3.543
 3869WAT     H111849   7.841   2.074   3.538
 3869WAT     H211850   7.963   1.987   3.604
 3870WAT      O11851   1.580   5.466   9.454
 3870WAT     H111852   1.533   5.391   9.501
 3870WAT     H211853   1.550   5.553   9.493
 3871WAT      O11854   8.039   1.253   7.920
 3871WAT     H111855   8.011   1.184   7.853
 3871WAT     H211856   8.053   1.209   8.009
 3872WAT      O11857   9.274   0.610   9.118
 3872WAT     H111858   9.302   0.704   9.101
 3872WAT     H211859   9.282   0.589   9.215
 3873WAT      O11860   0.638   6.824   6.690
 3873WAT     H111861   0.584   6.767   6.751
 3873WAT     H211862   0.735   6.814   6.713
 3874WAT      O11863   6.589   6.696   1.889
 3874WAT     H111864   6.669   6.637   1.902
 3874WAT     H211865   6.577   6.715   1.791
 3875WAT      O11866   3.516   4.136   1.415
 3875WAT     H111867   3.456   4.205   1.375
 3875WAT     H211868   3.558   4.173   1.498
 3876WAT      O11869   4.008   2.231   8.714
 3876WAT     H111870   3.915   2.255   8.739
 3876WAT     H211871   4.008   2.174   8.632
 3877WAT      O11872   3.948   5.938   1.216
 3877WAT     H111873   4.047   5.953   1.207
 3877WAT     H211874   3.912   5.899   1.131
 3878WAT      O11875   8.464   1.423   4.265
 3878WAT     H111876   8.394   1.353   4.276
 3878WAT     H211877   8.422   1.508   4.233
 3879WAT      O11878   8.139   8.564   9.057
 3879WAT     H111879   8.117   8.556   8.960
 3879WAT     H211880   8.233   8.534   9.073
 3880WAT      O11881   3.056   0.176   1.108
 3880WAT     H111882   3.130   0.241   1.126
 3880WAT     H211883   3.055   0.106   1.179
 3881WAT      O11884   3.088   8.814   7.026
 3881WAT     H111885   3.088   8.906   6.987
 3881WAT     H211886   3.013   8.761   6.986
 3882WAT      O11887   3.622   8.065   5.621
 3882WAT     H111888   3.537   8.023   5.589
 3882WAT     H211889   3.601   8.146   5.676
 3883WAT      O11890   4.949   4.353   0.883
 3883WAT     H111891   4.902   4.424   0.830
 3883WAT     H211892   4.883   4.307   0.941
 3884WAT      O11893   2.788   0.397   3.842
 3884WAT     H111894   2.850   0.418   3.918
 3884WAT     H211895   2.769   0.299   3.841
 3885WAT      O11896   5.367   9.709   7.033
 3885WAT     H111897   5.432   9.764   6.980
 3885WAT     H211898   5.276   9.716   6.993
 3886WAT      O11899   3.632   4.263   1.671
 3886WAT     H111900   3.613   4.360   1.685
 3886WAT     H211901   3.579   4.209   1.736
 3887WAT      O11902   9.879   3.241   2.457
 3887WAT     H111903   9.957   3.245   2.394
 3887WAT     H211904   9.840   3.148   2.455
 3888WAT      O11905   3.888   7.486   5.982
 3888WAT     H111906   3.948   7.449   6.053
 3888WAT     H211907   3.805   7.431   5.976
 3889WAT      O11908   1.970   7.220   0.970
 3889WAT     H111909   2.063   7.203   1.001
 3889WAT     H211910   1.970   7.236   0.871
 3890WAT      O11911   9.686   5.690   0.386
 3890WAT     H111912   9.597   5.708   0.428
 3890WAT     H211913   9.719   5.600   0.417
 3891WAT      O11914   1.643   4.992   3.527
 3891WAT     H111915   1.699   5.007   3.609
 3891WAT     H211916   1.655   5.070   3.465
 3892WAT      O11917   5.746   1.760   9.064
 3892WAT     H111918   5.715   1.789   9.154
 3892WAT     H211919   5.686   1.799   8.994
 3893WAT      O11920   5.501   7.029   8.387
 3893WAT     H111921   5.418   6.987   8.424
 3893WAT     H211922   5.479   7.079   8.304
 3894WAT      O11923   4.870   7.139   1.682
 3894WAT     H111924   4.885   7.218   1.741
 3894WAT     H211925   4.904   7.056   1.727
 3895WAT      O11926   8.506   5.688   0.348
 3895WAT     H111927   8.556   5.712   0.431
 3895WAT     H211928   8.446   5.764   0.323
 3896WAT      O11929   2.089   9.542   3.599
 3896WAT     H111930   2.005   9.595   3.593
 3896WAT     H211931   2.102   9.490   3.514
 3897WAT      O11932   9.534   0.758   9.251
 3897WAT     H111933   9.492   0.752   9.342
 3897WAT     H211934   9.489   0.830   9.198
 3898WAT      O11935   7.203   1.281   3.042
 3898WAT     H111936   7.114   1.284   2.995
 3898WAT     H211937   7.231   1.374   3.066
 3899WAT      O11938   2.168   0.982   5.110
 3899WAT     H111939   2.104   0.976   5.187
 3899WAT     H211940   2.118   0.968   5.025
 3900WAT      O11941   6.062   8.783   6.509
 3900WAT     H111942   5.981   8.760   6.455
 3900WAT     H211943   6.118   8.702   6.522
 3901WAT      O11944   6.188   6.340   8.827
 3901WAT     H111945   6.262   6.304   8.772
 3901WAT     H211946   6.193   6.303   8.920
 3902WAT      O11947   5.450   1.060   7.565
 3902WAT     H111948   5.362   1.011   7.570
 3902WAT     H211949   5.525   0.994   7.573
 3903WAT      O11950   4.675   5.363   7.060
 3903WAT     H111951   4.669   5.345   7.158
 3903WAT     H211952   4.586   5.348   7.017
 3904WAT      O11953   8.348   5.573   5.039
 3904WAT     H111954   8.375   5.669   5.045
 3904WAT     H211955   8.299   5.557   4.953
 3905WAT      O11956   8.185   1.034   9.778
 3905WAT     H111957   8.181   0.958   9.713
 3905WAT     H211958   8.208   1.119   9.729
 3906WAT      O11959   3.697   0.998   6.286
 3906WAT     H111960   3.732   0.905   6.280
 3906WAT     H211961   3.694   1.026   6.382
 3907WAT      O11962   5.963   2.522   2.333
 3907WAT     H111963   6.030   2.484   2.398
 3907WAT     H211964   5.956   2.621   2.348
 3908WAT      O11965   9.824   0.154   8.435
 3908WAT     H111966   9.732   0.124   8.408
 3908WAT     H211967   9.831   0.253   8.425
 3909WAT      O11968   9.065   0.742   7.875
 3909WAT     H111969   9.047   0.819   7.815
 3909WAT     H211970   8.995   0.672   7.862
 3910WAT      O11971   7.973   9.077   9.633
 3910WAT     H111972   8.014   9.017   9.564
 3910WAT     H211973   7.894   9.124   9.595
 3911WAT      O11974   5.959   6.478   8.786
 3911WAT     H111975   5.942   6.542   8.860
 3911WAT     H211976   6.053   6.443   8.792
 3912WAT      O11977   6.330   6.825   9.452
 3912WAT     H111978   6.232   6.812   9.464
 3912WAT     H211979   6.379   6.748   9.494
 3913WAT      O11980   1.581   4.660   2.959
 3913WAT     H111981   1.681   4.667   2.963
 3913WAT     H211982   1.553   4.572   2.997
 3914WAT      O11983   3.718   4.608   3.658
 3914WAT     H111984   3.686   4.699   3.634
 3914WAT     H211985   3.815   4.598   3.634
 3915WAT      O11986   8.062   4.771   4.393
 3915WAT     H111987   8.122   4.795   4.469
 3915WAT     H211988   8.094   4.686   4.351
 3916WAT      O11989   9.706   6.125   0.360
 3916WAT     H111990   9.749   6.127   0.270
 3916WAT     H211991   9.620   6.177   0.357
 3917WAT      O11992   9.491   5.414   0.039
 3917WAT     H111993   9.462   5.332  -0.009
 3917WAT     H211994   9.537   5.388   0.125
 3918WAT      O11995   5.561   6.448   2.706
 3918WAT     H111996   5.513   6.416   2.788
 3918WAT     H211997   5.495   6.463   2.633
 3919WAT      O11998   4.118   7.993   9.521
 3919WAT     H111999   4.168   7.940   9.453
 3919WAT     H212000   4.147   8.088   9.517
 3920WAT      O12001   2.454   7.759   8.042
 3920WAT     H112002   2.530   7.723   7.989
 3920WAT     H212003   2.464   7.858   8.052
 3921WAT      O12004   3.433   0.904   6.514
 3921WAT     H112005   3.398   0.927   6.423
 3921WAT     H212006   3.398   0.814   6.541
 3922WAT      O12007   3.770   2.246   5.019
 3922WAT     H112008   3.855   2.274   4.973
 3922WAT     H212009   3.779   2.150   5.047
 3923WAT      O12010   0.580   7.054   6.317
 3923WAT     H112011   0.560   7.074   6.412
 3923WAT     H212012   0.535   6.968   6.291
 3924WAT      O12013   6.112   3.373   4.685
 3924WAT     H112014   6.065   3.461   4.691
 3924WAT     H212015   6.211   3.389   4.677
 3925WAT      O12016   7.086   9.445   3.563
 3925WAT     H112017   7.139   9.495   3.631
 3925WAT     H212018   6.988   9.465   3.575
 3926WAT      O12019   9.575   2.057   2.264
 3926WAT     H112020   9.485   2.101   2.265
 3926WAT     H212021   9.592   2.016   2.174
 3927WAT      O12022   0.746   5.722   0.215
 3927WAT     H112023   0.659   5.680   0.193
 3927WAT     H212024   0.737   5.776   0.298
 3928WAT      O12025   9.216   8.346   6.598
 3928WAT     H112026   9.215   8.420   6.530
 3928WAT     H212027   9.272   8.374   6.676
 3929WAT      O12028   3.379   2.361   5.957
 3929WAT     H112029   3.404   2.337   6.051
 3929WAT     H212030   3.462   2.375   5.903
 3930WAT      O12031   1.871   6.158   1.042
 3930WAT     H112032   1.898   6.253   1.031
 3930WAT     H212033   1.854   6.139   1.139
 3931WAT      O12034   2.077   4.853   7.053
 3931WAT     H112035   2.167   4.896   7.043
 3931WAT     H212036   2.066   4.782   6.983
 3932WAT      O12037   9.466   0.925   5.002
 3932WAT     H112038   9.429   0.835   5.027
 3932WAT     H212039   9.443   0.991   5.073
 3933WAT      O12040   2.108   3.930   5.098
 3933WAT     H112041   2.136   3.945   5.003
 3933WAT     H212042   2.081   3.834   5.110
 3934WAT      O12043   0.677   7.084   8.629
 3934WAT     H112044   0.752   7.089   8.563
 3934WAT     H212045   0.707   7.120   8.717
 3935WAT      O12046   3.542   1.261   1.575
 3935WAT     H112047   3.470   1.222   1.632
 3935WAT     H212048   3.514   1.351   1.543
 3936WAT      O12049   5.278   1.052   9.334
 3936WAT     H112050   5.251   1.108   9.256
 3936WAT     H212051   5.222   1.077   9.414
 3937WAT      O12052   6.735   6.899   5.537
 3937WAT     H112053   6.804   6.926   5.604
 3937WAT     H212054   6.692   6.981   5.499
 3938WAT      O12055   7.718   1.144   3.999
 3938WAT     H112056   7.633   1.144   3.946
 3938WAT     H212057   7.709   1.078   4.074
 3939WAT      O12058   2.736   0.526   3.618
 3939WAT     H112059   2.643   0.560   3.630
 3939WAT     H212060   2.774   0.501   3.706
 3940WAT      O12061   4.564   0.313   7.542
 3940WAT     H112062   4.629   0.383   7.512
 3940WAT     H212063   4.474   0.354   7.553
 3941WAT      O12064   9.201   6.256   0.258
 3941WAT     H112065   9.202   6.268   0.357
 3941WAT     H212066   9.174   6.341   0.214
 3942WAT      O12067   6.851   0.168   3.683
 3942WAT     H112068   6.925   0.141   3.744
 3942WAT     H212069   6.849   0.107   3.604
 3943WAT      O12070   3.398   2.052   2.674
 3943WAT     H112071   3.381   1.965   2.627
 3943WAT     H212072   3.355   2.050   2.764
 3944WAT      O12073   1.286   8.966   2.082
 3944WAT     H112074   1.224   9.043   2.090
 3944WAT     H212075   1.376   8.998   2.052
 3945WAT      O12076   1.447   7.852   9.239
 3945WAT     H112077   1.458   7.779   9.171
 3945WAT     H212078   1.477   7.819   9.329
 3946WAT      O12079   8.939   9.387   9.258
 3946WAT     H112080   8.888   9.326   9.197
 3946WAT     H212081   9.021   9.421   9.211
 3947WAT      O12082   7.919   3.336   0.814
 3947WAT     H112083   7.850   3.315   0.883
 3947WAT     H212084   7.876   3.383   0.737
 3948WAT      O12085   5.087   9.810   2.706
 3948WAT     H112086   5.150   9.736   2.729
 3948WAT     H212087   5.135   9.878   2.651
 3949WAT      O12088   2.710   5.746   6.694
 3949WAT     H112089   2.684   5.730   6.599
 3949WAT     H212090   2.788   5.688   6.717
 3950WAT      O12091   8.630   7.348   7.716
 3950WAT     H112092   8.726   7.349   7.742
 3950WAT     H212093   8.575   7.387   7.791
 3951WAT      O12094   7.499   3.371   5.651
 3951WAT     H112095   7.585   3.358   5.701
 3951WAT     H212096   7.509   3.333   5.559
 3952WAT      O12097   4.954   8.711   0.359
 3952WAT     H112098   5.002   8.728   0.445
 3952WAT     H212099   4.993   8.631   0.314
 3953WAT      O12100   2.521   0.009   8.683
 3953WAT     H112101   2.471   0.027   8.598
 3953WAT     H212102   2.606   0.062   8.683
 3954WAT      O12103   7.935   4.670   7.590
 3954WAT     H112104   7.882   4.703   7.668
 3954WAT     H212105   7.883   4.600   7.541
 3955WAT      O12106   3.566   6.918   6.330
 3955WAT     H112107   3.535   6.988   6.394
 3955WAT     H212108   3.493   6.898   6.264
 3956WAT      O12109   4.223   9.307   7.725
 3956WAT     H112110   4.278   9.245   7.780
 3956WAT     H212111   4.270   9.395   7.716
 3957WAT      O12112   3.609   4.840   3.569
 3957WAT     H112113   3.603   4.926   3.621
 3957WAT     H212114   3.684   4.846   3.503
 3958WAT      O12115   6.565   9.281   7.869
 3958WAT     H112116   6.538   9.347   7.940
 3958WAT     H212117   6.657   9.246   7.890
 3959WAT      O12118   2.560   8.162   6.256
 3959WAT     H112119   2.625   8.226   6.216
 3959WAT     H212120   2.474   8.167   6.206
 3960WAT      O12121   5.469   0.701   6.675
 3960WAT     H112122   5.451   0.717   6.578
 3960WAT     H212123   5.555   0.745   6.701
 3961WAT      O12124   4.752   7.919   8.885
 3961WAT     H112125   4.809   7.838   8.901
 3961WAT     H212126   4.783   7.966   8.803
 3962WAT      O12127   1.859   4.817   9.681
 3962WAT     H112128   1.794   4.868   9.737
 3962WAT     H212129   1.894   4.739   9.733
 3963WAT      O12130   8.439   1.782   3.023
 3963WAT     H112131   8.339   1.778   3.017
 3963WAT     H212132   8.470   1.874   2.999
 3964WAT      O12133   7.143   8.934   9.090
 3964WAT     H112134   7.243   8.926   9.084
 3964WAT     H212135   7.104   8.936   8.999
 3965WAT      O12136   1.923   4.160   8.472
 3965WAT     H112137   2.001   4.110   8.510
 3965WAT     H212138   1.864   4.098   8.422
 3966WAT      O12139   2.756   1.998   9.592
 3966WAT     H112140   2.798   2.034   9.508
 3966WAT     H212141   2.795   2.046   9.671
 3967WAT      O12142   8.256   2.731   7.787
 3967WAT     H112143   8.284   2.642   7.749
 3967WAT     H212144   8.314   2.754   7.865
 3968WAT      O12145   2.648   6.300   2.628
 3968WAT     H112146   2.563   6.261   2.664
 3968WAT     H212147   2.724   6.238   2.649
 3969WAT      O12148   5.825   0.041   5.160
 3969WAT     H112149   5.864  -0.039   5.114
 3969WAT     H212150   5.749   0.013   5.219
 3970WAT      O12151   4.945   5.188   0.281
 3970WAT     H112152   4.948   5.127   0.201
 3970WAT     H212153   4.965   5.281   0.252
 3971WAT      O12154   8.284   4.539   9.743
 3971WAT     H112155   8.221   4.611   9.772
 3971WAT     H212156   8.244   4.489   9.666
 3972WAT      O12157   1.407   1.725   1.274
 3972WAT     H112158   1.315   1.717   1.235
 3972WAT     H212159   1.402   1.709   1.372
 3973WAT      O12160   7.069   2.782   4.414
 3973WAT     H112161   7.161   2.819   4.421
 3973WAT     H212162   7.002   2.855   4.430
 3974WAT      O12163   9.790   8.931   9.707
 3974WAT     H112164   9.757   9.002   9.769
 3974WAT     H212165   9.745   8.845   9.729
 3975WAT      O12166   5.604   1.694   1.707
 3975WAT     H112167   5.599   1.750   1.790
 3975WAT     H212168   5.669   1.619   1.722
 3976WAT      O12169   3.520   3.717   4.070
 3976WAT     H112170   3.590   3.765   4.122
 3976WAT     H212171   3.522   3.620   4.093
 3977WAT      O12172   3.185   7.631   1.657
 3977WAT     H112173   3.187   7.580   1.572
 3977WAT     H212174   3.220   7.573   1.731
 3978WAT      O12175   4.760   6.653   0.618
 3978WAT     H112176   4.843   6.598   0.608
 3978WAT     H212177   4.702   6.614   0.689
 3979WAT      O12178   7.421   0.955   4.694
 3979WAT     H112179   7.404   0.857   4.687
 3979WAT     H212180   7.410   0.984   4.789
 3980WAT      O12181   1.218   5.738   1.113
 3980WAT     H112182   1.281   5.677   1.064
 3980WAT     H212183   1.156   5.683   1.169
 3981WAT      O12184   4.305   5.056   7.243
 3981WAT     H112185   4.364   5.110   7.182
 3981WAT     H212186   4.357   5.029   7.324
 3982WAT      O12187   4.677   5.817   6.654
 3982WAT     H112188   4.748   5.872   6.611
 3982WAT     H212189   4.587   5.847   6.620
 3983WAT      O12190   2.215   6.179   9.621
 3983WAT     H112191   2.256   6.197   9.710
 3983WAT     H212192   2.246   6.247   9.555
 3984WAT      O12193   5.896   8.606   8.220
 3984WAT     H112194   5.844   8.528   8.185
 3984WAT     H212195   5.862   8.629   8.312
 3985WAT      O12196   1.576   7.003   1.776
 3985WAT     H112197   1.498   6.984   1.716
 3985WAT     H212198   1.584   7.102   1.790
 3986WAT      O12199   1.474   1.179   3.448
 3986WAT     H112200   1.511   1.241   3.517
 3986WAT     H212201   1.443   1.094   3.491
 3987WAT      O12202   1.467   4.250   3.954
 3987WAT     H112203   1.532   4.207   4.016
 3987WAT     H212204   1.399   4.182   3.925
 3988WAT      O12205   4.027   1.208   9.701
 3988WAT     H112206   4.113   1.172   9.737
 3988WAT     H212207   4.046   1.277   9.632
 3989WAT      O12208   6.497   3.082   9.557
 3989WAT     H112209   6.522   2.985   9.550
 3989WAT     H212210   6.398   3.091   9.545
 3990WAT      O12211   3.531   9.594   5.753
 3990WAT     H112212   3.497   9.685   5.779
 3990WAT     H212213   3.631   9.596   5.751
 3991WAT      O12214   8.079   0.581   1.273
 3991WAT     H112215   8.010   0.641   1.314
 3991WAT     H212216   8.038   0.492   1.255
 3992WAT      O12217   1.195   1.223   3.617
 3992WAT     H112218   1.183   1.170   3.533
 3992WAT     H212219   1.253   1.302   3.599
 3993WAT      O12220   6.201   7.942   5.323
 3993WAT     H112221   6.101   7.944   5.319
 3993WAT     H212222   6.234   7.861   5.273
 3994WAT      O12223   4.280   3.009   2.243
 3994WAT     H112224   4.322   2.963   2.321
 3994WAT     H212225   4.212   3.075   2.275
 3995WAT      O12226   5.992   2.149   4.994
 3995WAT     H112227   6.092   2.141   4.989
 3995WAT     H212228   5.962   2.227   4.940
 3996WAT      O12229   0.760   9.729   1.801
 3996WAT     H112230   0.825   9.660   1.832
 3996WAT     H212231   0.804   9.819   1.804
 3997WAT      O12232   2.904   3.305   8.141
 3997WAT     H112233   2.899   3.306   8.241
 3997WAT     H212234   2.975   3.242   8.111
 3998WAT      O12235   3.930   7.341   9.259
 3998WAT     H112236   3.997   7.405   9.223
 3998WAT     H212237   3.850   7.338   9.199
 3999WAT      O12238   0.234   4.390   2.581
 3999WAT     H112239   0.156   4.378   2.520
 3999WAT     H212240   0.222   4.334   2.663
 4000WAT      O12241   3.455   4.776   6.360
 4000WAT     H112242   3.371   4.730   6.390
 4000WAT     H212243   3.530   4.748   6.420
 4001WAT      O12244   4.761   2.416   2.212
 4001WAT     H112245   4.825   2.365   2.155
 4001WAT     H212246   4.806   2.496   2.251
 4002WAT      O12247   9.112   7.412   5.430
 4002WAT     H112248   9.071   7.434   5.518
 4002WAT     H212249   9.121   7.313   5.421
 4003WAT      O12250   8.501   2.048   5.577
 4003WAT     H112251   8.473   2.121   5.515
 4003WAT     H212252   8.421   2.016   5.629
 4004WAT      O12253   6.326   7.767   5.619
 4004WAT     H112254   6.228   7.747   5.623
 4004WAT     H212255   6.370   7.703   5.556
 4005WAT      O12256   6.957   6.748   4.588
 4005WAT     H112257   6.909   6.788   4.510
 4005WAT     H212258   6.906   6.768   4.672
 4006WAT      O12259   7.305   5.010   6.851
 4006WAT     H112260   7.290   4.931   6.911
 4006WAT     H212261   7.244   5.003   6.772
 4007WAT      O12262   3.433   2.440   9.084
 4007WAT     H112263   3.398   2.479   8.999
 4007WAT     H212264   3.365   2.376   9.122
 4008WAT      O12265   4.936   4.748   2.389
 4008WAT     H112266   4.989   4.796   2.319
 4008WAT     H212267   4.842   4.734   2.355
 4009WAT      O12268   9.609   8.657   8.177
 4009WAT     H112269   9.630   8.687   8.084
 4009WAT     H212270   9.652   8.719   8.243
 4010WAT      O12271   6.532   5.602   4.074
 4010WAT     H112272   6.452   5.631   4.126
 4010WAT     H212273   6.503   5.571   3.983
 4011WAT      O12274   4.343   3.206   0.376
 4011WAT     H112275   4.388   3.195   0.465
 4011WAT     H212276   4.271   3.137   0.366
 4012WAT      O12277   6.296   0.778   9.049
 4012WAT     H112278   6.265   0.822   9.133
 4012WAT     H212279   6.371   0.831   9.010
 4013WAT      O12280   6.281   7.103   2.075
 4013WAT     H112281   6.379   7.087   2.069
 4013WAT     H212282   6.243   7.115   1.984
 4014WAT      O12283   9.298   0.873   3.693
 4014WAT     H112284   9.226   0.813   3.657
 4014WAT     H212285   9.260   0.935   3.761
 4015WAT      O12286   7.141   1.225   5.906
 4015WAT     H112287   7.190   1.278   5.836
 4015WAT     H212288   7.050   1.203   5.872
 4016WAT      O12289   8.348   7.537   7.358
 4016WAT     H112290   8.328   7.441   7.337
 4016WAT     H212291   8.266   7.581   7.392
 4017WAT      O12292   0.048   9.139   7.068
 4017WAT     H112293   0.103   9.201   7.012
 4017WAT     H212294   0.006   9.070   7.009
 4018WAT      O12295   6.962   3.734   9.219
 4018WAT     H112296   7.062   3.736   9.228
 4018WAT     H212297   6.924   3.671   9.287
 4019WAT      O12298   5.987   0.250   5.040
 4019WAT     H112299   5.938   0.331   5.006
 4019WAT     H212300   5.921   0.183   5.074
 4020WAT      O12301   1.672   2.740   6.834
 4020WAT     H112302   1.749   2.764   6.775
 4020WAT     H212303   1.593   2.719   6.777
 4021WAT      O12304   4.825   3.381   5.370
 4021WAT     H112305   4.784   3.445   5.305
 4021WAT     H212306   4.911   3.347   5.332
 4022WAT      O12307   8.539   0.998   5.985
 4022WAT     H112308   8.623   1.026   5.939
 4022WAT     H212309   8.483   1.078   6.004
 4023WAT      O12310   0.968   5.189   3.425
 4023WAT     H112311   0.968   5.258   3.353
 4023WAT     H212312   0.893   5.206   3.488
 4024WAT      O12313   1.035   8.671   6.656
 4024WAT     H112314   1.025   8.621   6.742
 4024WAT     H212315   1.068   8.764   6.674
 4025WAT      O12316   3.121   0.459   5.806
 4025WAT     H112317   3.035   0.496   5.770
 4025WAT     H212318   3.124   0.361   5.790
 4026WAT      O12319   7.326   6.578   3.730
 4026WAT     H112320   7.343   6.581   3.828
 4026WAT     H212321   7.379   6.650   3.685
 4027WAT      O12322   9.313   1.722   5.946
 4027WAT     H112323   9.324   1.651   6.015
 4027WAT     H212324   9.344   1.688   5.857
 4028WAT      O12325   9.108   8.452   3.174
 4028WAT     H112326   9.178   8.520   3.197
 4028WAT     H212327   9.047   8.490   3.104
 4029WAT      O12328   1.558   1.479   8.021
 4029WAT     H112329   1.470   1.431   8.018
 4029WAT     H212330   1.549   1.566   7.974
 4030WAT      O12331   7.905   6.882   2.259
 4030WAT     H112332   7.922   6.828   2.341
 4030WAT     H212333   7.863   6.970   2.284
 4031WAT      O12334   0.252   8.743   7.830
 4031WAT     H112335   0.323   8.721   7.896
 4031WAT     H212336   0.251   8.673   7.758
 4032WAT      O12337   0.342   3.626   5.303
 4032WAT     H112338   0.304   3.540   5.335
 4032WAT     H212339   0.404   3.663   5.372
 4033WAT      O12340   1.665   3.520   4.142
 4033WAT     H112341   1.688   3.617   4.132
 4033WAT     H212342   1.720   3.466   4.079
 4034WAT      O12343   8.953   0.446   8.152
 4034WAT     H112344   8.861   0.408   8.139
 4034WAT     H212345   9.021   0.373   8.145
 4035WAT      O12346   3.266   0.919   1.831
 4035WAT     H112347   3.175   0.891   1.861
 4035WAT     H212348   3.335   0.864   1.878
 4036WAT      O12349   4.574   9.718   9.310
 4036WAT     H112350   4.646   9.787   9.302
 4036WAT     H212351   4.574   9.682   9.403
 4037WAT      O12352   6.051   0.296   3.884
 4037WAT     H112353   6.058   0.197   3.872
 4037WAT     H212354   5.955   0.323   3.890
 4038WAT      O12355   6.745   6.988   2.503
 4038WAT     H112356   6.820   6.990   2.437
 4038WAT     H212357   6.774   6.938   2.585
 4039WAT      O12358   4.027   9.219   7.554
 4039WAT     H112359   4.094   9.235   7.626
 4039WAT     H212360   3.936   9.212   7.594
 4040WAT      O12361   2.253   8.064   9.184
 4040WAT     H112362   2.327   8.116   9.141
 4040WAT     H212363   2.166   8.113   9.172
 4041WAT      O12364   6.502   3.298   8.844
 4041WAT     H112365   6.591   3.324   8.806
 4041WAT     H212366   6.434   3.296   8.770
 4042WAT      O12367   7.241   9.231   6.405
 4042WAT     H112368   7.214   9.159   6.341
 4042WAT     H212369   7.202   9.211   6.495
 4043WAT      O12370   0.759   1.758   6.049
 4043WAT     H112371   0.831   1.827   6.058
 4043WAT     H212372   0.774   1.685   6.116
 4044WAT      O12373   7.602   8.805   5.014
 4044WAT     H112374   7.562   8.892   4.986
 4044WAT     H212375   7.690   8.822   5.059
 4045WAT      O12376   4.172   0.420   3.830
 4045WAT     H112377   4.225   0.370   3.762
 4045WAT     H212378   4.080   0.382   3.834
 4046WAT      O12379   4.047   7.153   2.016
 4046WAT     H112380   4.146   7.160   2.010
 4046WAT     H212381   4.010   7.123   1.928
 4047WAT      O12382   9.106   1.300   6.931
 4047WAT     H112383   9.148   1.285   6.841
 4047WAT     H212384   9.154   1.373   6.979
 4048WAT      O12385   5.424   5.638   4.258
 4048WAT     H112386   5.386   5.568   4.319
 4048WAT     H212387   5.524   5.638   4.266
 4049WAT      O12388   7.747   0.776   5.662
 4049WAT     H112389   7.695   0.743   5.740
 4049WAT     H212390   7.709   0.740   5.577
 4050WAT      O12391   2.280   4.744   7.397
 4050WAT     H112392   2.301   4.769   7.492
 4050WAT     H212393   2.220   4.814   7.358
 4051WAT      O12394   9.414   5.179   9.813
 4051WAT     H112395   9.378   5.158   9.722
 4051WAT     H212396   9.386   5.107   9.877
 4052WAT      O12397   3.661   5.201   6.424
 4052WAT     H112398   3.682   5.108   6.396
 4052WAT     H212399   3.709   5.266   6.366
 4053WAT      O12400   8.168   8.660   2.189
 4053WAT     H112401   8.087   8.719   2.195
 4053WAT     H212402   8.205   8.648   2.281
 4054WAT      O12403   3.304   5.534   0.363
 4054WAT     H112404   3.214   5.556   0.403
 4054WAT     H212405   3.364   5.613   0.371
 4055WAT      O12406   6.678   6.908   9.546
 4055WAT     H112407   6.686   7.006   9.564
 4055WAT     H212408   6.665   6.893   9.448
 4056WAT      O12409   5.466   0.146   7.666
 4056WAT     H112410   5.443   0.049   7.664
 4056WAT     H212411   5.452   0.186   7.575
 4057WAT      O12412   6.461   0.068   4.174
 4057WAT     H112413   6.524   0.038   4.246
 4057WAT     H212414   6.371   0.029   4.191
 4058WAT      O12415   0.258   7.612   4.166
 4058WAT     H112416   0.181   7.573   4.216
 4058WAT     H212417   0.338   7.553   4.178
 4059WAT      O12418   3.465   5.195   4.772
 4059WAT     H112419   3.455   5.103   4.733
 4059WAT     H212420   3.553   5.234   4.745
 4060WAT      O12421   6.121   7.943   5.031
 4060WAT     H112422   6.174   7.970   5.111
 4060WAT     H212423   6.073   8.023   4.994
 4061WAT      O12424   8.114   2.676   0.101
 4061WAT     H112425   8.165   2.762   0.100
 4061WAT     H212426   8.048   2.677   0.176
 4062WAT      O12427   1.803   6.305   8.213
 4062WAT     H112428   1.861   6.260   8.281
 4062WAT     H212429   1.838   6.284   8.121
 4063WAT      O12430   0.478   4.271   4.965
 4063WAT     H112431   0.517   4.213   4.893
 4063WAT     H212432   0.536   4.352   4.977
 4064WAT      O12433   0.724   6.423   0.436
 4064WAT     H112434   0.738   6.520   0.456
 4064WAT     H212435   0.657   6.385   0.499
 4065WAT      O12436   6.753   9.500   0.009
 4065WAT     H112437   6.738   9.403  -0.009
 4065WAT     H212438   6.741   9.518   0.107
 4066WAT      O12439   0.169   6.042   7.344
 4066WAT     H112440   0.217   6.008   7.264
 4066WAT     H212441   0.216   6.012   7.427
 4067WAT      O12442   2.791   2.473   3.678
 4067WAT     H112443   2.701   2.502   3.712
 4067WAT     H212444   2.837   2.420   3.750
 4068WAT      O12445   3.467   2.247   5.326
 4068WAT     H112446   3.435   2.241   5.232
 4068WAT     H212447   3.554   2.199   5.335
 4069WAT      O12448   4.341   2.140   5.830
 4069WAT     H112449   4.253   2.182   5.808
 4069WAT     H212450   4.413   2.186   5.779
 4070WAT      O12451   5.903   1.383   8.821
 4070WAT     H112452   5.932   1.292   8.791
 4070WAT     H212453   5.875   1.437   8.742
 4071WAT      O12454   4.536   4.899   2.548
 4071WAT     H112455   4.630   4.869   2.568
 4071WAT     H212456   4.482   4.821   2.519
 4072WAT      O12457   2.562   9.290   1.264
 4072WAT     H112458   2.613   9.204   1.270
 4072WAT     H212459   2.622   9.362   1.228
 4073WAT      O12460   0.802   0.868   2.298
 4073WAT     H112461   0.827   0.841   2.391
 4073WAT     H212462   0.869   0.933   2.263
 4074WAT      O12463   3.284   8.399   0.752
 4074WAT     H112464   3.308   8.398   0.655
 4074WAT     H212465   3.367   8.416   0.807
 4075WAT      O12466   9.352   8.360   7.185
 4075WAT     H112467   9.432   8.392   7.236
 4075WAT     H212468   9.292   8.308   7.247
 4076WAT      O12469   5.457   7.237   2.922
 4076WAT     H112470   5.532   7.196   2.872
 4076WAT     H212471   5.493   7.298   2.992
 4077WAT      O12472   0.406   5.918   0.596
 4077WAT     H112473   0.492   5.880   0.563
 4077WAT     H212474   0.421   5.964   0.683
 4078WAT      O12475   7.482   2.417   5.981
 4078WAT     H112476   7.522   2.327   5.963
 4078WAT     H212477   7.512   2.481   5.911
 4079WAT      O12478   0.470   6.274   4.727
 4079WAT     H112479   0.405   6.283   4.803
 4079WAT     H212480   0.438   6.328   4.649
 4080WAT      O12481   1.087   2.604   9.363
 4080WAT     H112482   1.041   2.580   9.277
 4080WAT     H212483   1.173   2.552   9.370
 4081WAT      O12484   8.630   8.919   1.171
 4081WAT     H112485   8.624   8.953   1.078
 4081WAT     H212486   8.585   8.829   1.177
 4082WAT      O12487   2.489   5.742   6.168
 4082WAT     H112488   2.560   5.674   6.151
 4082WAT     H212489   2.505   5.822   6.110
 4083WAT      O12490   6.262   1.522   9.275
 4083WAT     H112491   6.295   1.540   9.367
 4083WAT     H212492   6.200   1.444   9.276
 4084WAT      O12493   4.455   9.668   7.831
 4084WAT     H112494   4.365   9.623   7.837
 4084WAT     H212495   4.490   9.684   7.923
 4085WAT      O12496   7.147   2.704   7.274
 4085WAT     H112497   7.096   2.674   7.355
 4085WAT     H212498   7.209   2.631   7.245
 4086WAT      O12499   4.863   9.540   8.308
 4086WAT     H112500   4.783   9.599   8.302
 4086WAT     H212501   4.847   9.457   8.254
 4087WAT      O12502   8.782   1.109   9.226
 4087WAT     H112503   8.699   1.067   9.187
 4087WAT     H212504   8.812   1.183   9.166
 4088WAT      O12505   6.654   0.492   7.871
 4088WAT     H112506   6.629   0.400   7.900
 4088WAT     H212507   6.648   0.554   7.949
 4089WAT      O12508   0.193   3.815   6.784
 4089WAT     H112509   0.222   3.845   6.693
 4089WAT     H212510   0.098   3.844   6.799
 4090WAT      O12511   2.735   6.919   8.291
 4090WAT     H112512   2.815   6.860   8.296
 4090WAT     H212513   2.684   6.914   8.376
 4091WAT      O12514   3.321   6.712   0.443
 4091WAT     H112515   3.337   6.748   0.352
 4091WAT     H212516   3.239   6.655   0.443
 4092WAT      O12517   6.276   7.197   4.626
 4092WAT     H112518   6.323   7.272   4.671
 4092WAT     H212519   6.225   7.144   4.693
 4093WAT      O12520   0.713   4.493   1.826
 4093WAT     H112521   0.758   4.581   1.841
 4093WAT     H212522   0.769   4.436   1.767
 4094WAT      O12523   7.274   3.634   4.147
 4094WAT     H112524   7.334   3.689   4.205
 4094WAT     H212525   7.327   3.596   4.070
 4095WAT      O12526   2.007   8.692   2.543
 4095WAT     H112527   2.021   8.613   2.483
 4095WAT     H212528   1.973   8.662   2.632
 4096WAT      O12529   8.044   2.142   5.254
 4096WAT     H112530   8.141   2.157   5.275
 4096WAT     H212531   8.035   2.058   5.201
 4097WAT      O12532   7.374   4.558   6.878
 4097WAT     H112533   7.346   4.526   6.787
 4097WAT     H212534   7.471   4.539   6.891
 4098WAT      O12535   4.915   4.389   9.232
 4098WAT     H112536   5.010   4.412   9.215
 4098WAT     H212537   4.856   4.438   9.168
 4099WAT      O12538   7.607   7.549   8.092
 4099WAT     H112539   7.698   7.542   8.135
 4099WAT     H212540   7.555   7.622   8.136
 4100WAT      O12541   8.070   8.344   2.481
 4100WAT     H112542   8.135   8.374   2.411
 4100WAT     H212543   8.062   8.245   2.480
 4101WAT      O12544   2.176   5.504   0.367
 4101WAT     H112545   2.182   5.599   0.336
 4101WAT     H212546   2.125   5.450   0.300
 4102WAT      O12547   4.902   0.928   0.079
 4102WAT     H112548   4.871   0.852   0.136
 4102WAT     H212549   4.826   0.958   0.020
 4103WAT      O12550   5.179   3.221   9.316
 4103WAT     H112551   5.251   3.266   9.263
 4103WAT     H212552   5.187   3.122   9.306
 4104WAT      O12553   6.811   4.477   0.719
 4104WAT     H112554   6.909   4.468   0.705
 4104WAT     H212555   6.780   4.564   0.680
 4105WAT      O12556   2.314   6.031   3.092
 4105WAT     H112557   2.281   6.120   3.060
 4105WAT     H212558   2.413   6.036   3.108
 4106WAT      O12559   3.846   8.737   9.792
 4106WAT     H112560   3.890   8.779   9.712
 4106WAT     H212561   3.799   8.654   9.765
 4107WAT      O12562   2.907   9.003   6.300
 4107WAT     H112563   2.879   8.929   6.361
 4107WAT     H212564   2.931   8.966   6.211
 4108WAT      O12565   5.880   8.457   0.433
 4108WAT     H112566   5.799   8.438   0.377
 4108WAT     H212567   5.956   8.401   0.400
 4109WAT      O12568   1.397   4.783   0.204
 4109WAT     H112569   1.478   4.839   0.185
 4109WAT     H212570   1.333   4.836   0.259
 4110WAT      O12571   6.000   5.490   7.817
 4110WAT     H112572   6.022   5.404   7.862
 4110WAT     H212573   5.951   5.472   7.731
 4111WAT      O12574   7.165   4.889   5.700
 4111WAT     H112575   7.265   4.883   5.708
 4111WAT     H212576   7.138   4.864   5.608
 4112WAT      O12577   3.742   2.248   2.393
 4112WAT     H112578   3.700   2.189   2.462
 4112WAT     H212579   3.730   2.206   2.303
 4113WAT      O12580   8.563   7.424   6.716
 4113WAT     H112581   8.621   7.495   6.756
 4113WAT     H212582   8.486   7.406   6.776
 4114WAT      O12583   5.578   0.821   0.582
 4114WAT     H112584   5.665   0.844   0.539
 4114WAT     H212585   5.566   0.722   0.582
 4115WAT      O12586   9.275   9.674   9.508
 4115WAT     H112587   9.278   9.695   9.606
 4115WAT     H212588   9.252   9.578   9.495
 4116WAT      O12589   4.336   6.442   6.609
 4116WAT     H112590   4.317   6.470   6.514
 4116WAT     H212591   4.321   6.520   6.670
 4117WAT      O12592   2.943   1.165   7.578
 4117WAT     H112593   2.985   1.216   7.653
 4117WAT     H212594   2.998   1.084   7.558
 4118WAT      O12595   8.230   0.863   6.543
 4118WAT     H112596   8.202   0.944   6.492
 4118WAT     H212597   8.313   0.826   6.503
 4119WAT      O12598   6.191   9.683   4.716
 4119WAT     H112599   6.133   9.762   4.699
 4119WAT     H212600   6.274   9.712   4.764
 4120WAT      O12601   0.165   1.496   3.822
 4120WAT     H112602   0.148   1.426   3.891
 4120WAT     H212603   0.165   1.586   3.865
 4121WAT      O12604   2.958   6.070   7.272
 4121WAT     H112605   2.970   6.023   7.360
 4121WAT     H212606   3.002   6.018   7.200
 4122WAT      O12607   9.012   4.323   8.499
 4122WAT     H112608   8.991   4.403   8.555
 4122WAT     H212609   9.086   4.270   8.543
 4123WAT      O12610   8.997   7.907   8.841
 4123WAT     H112611   9.014   7.976   8.911
 4123WAT     H212612   8.900   7.887   8.836
 4124WAT      O12613   9.857   4.553   0.394
 4124WAT     H112614   9.804   4.468   0.394
 4124WAT     H212615   9.916   4.556   0.475
 4125WAT      O12616   5.337   3.566   4.176
 4125WAT     H112617   5.370   3.544   4.085
 4125WAT     H212618   5.341   3.484   4.234
 4126WAT      O12619   6.721   7.925   9.726
 4126WAT     H112620   6.781   7.878   9.662
 4126WAT     H212621   6.746   7.901   9.820
 4127WAT      O12622   6.341   8.471   8.049
 4127WAT     H112623   6.306   8.453   8.140
 4127WAT     H212624   6.440   8.480   8.052
 4128WAT      O12625   2.232   5.137   6.710
 4128WAT     H112626   2.235   5.213   6.644
 4128WAT     H212627   2.136   5.113   6.728
 4129WAT      O12628   0.783   4.184   9.417
 4129WAT     H112629   0.769   4.201   9.319
 4129WAT     H212630   0.821   4.267   9.459
 4130WAT      O12631   5.084   2.547   6.719
 4130WAT     H112632   5.082   2.522   6.622
 4130WAT     H212633   5.101   2.645   6.728
 4131WAT      O12634   6.770   1.854   6.116
 4131WAT     H112635   6.784   1.894   6.025
 4131WAT     H212636   6.858   1.828   6.155
 4132WAT      O12637   9.706   0.903   2.607
 4132WAT     H112638   9.773   0.973   2.583
 4132WAT     H212639   9.753   0.816   2.623
 4133WAT      O12640   5.670   6.066   6.583
 4133WAT     H112641   5.638   6.132   6.515
 4133WAT     H212642   5.592   6.015   6.619
 4134WAT      O12643   9.544   8.697   0.388
 4134WAT     H112644   9.461   8.671   0.437
 4134WAT     H212645   9.625   8.667   0.440
 4135WAT      O12646   2.991   6.677   4.363
 4135WAT     H112647   2.938   6.602   4.402
 4135WAT     H212648   2.963   6.763   4.404
 4136WAT      O12649   5.466   2.472   9.184
 4136WAT     H112650   5.408   2.547   9.151
 4136WAT     H212651   5.416   2.386   9.178
 4137WAT      O12652   7.939   2.800   6.151
 4137WAT     H112653   7.880   2.869   6.109
 4137WAT     H212654   7.992   2.842   6.225
 4138WAT      O12655   8.653   7.916   4.054
 4138WAT     H112656   8.706   7.919   3.969
 4138WAT     H212657   8.672   7.998   4.108
 4139WAT      O12658   4.853   1.594   9.215
 4139WAT     H112659   4.887   1.603   9.308
 4139WAT     H212660   4.860   1.682   9.168
 4140WAT      O12661   9.458   3.160   6.369
 4140WAT     H112662   9.498   3.070   6.385
 4140WAT     H212663   9.508   3.229   6.420
 4141WAT      O12664   9.275   0.920   3.170
 4141WAT     H112665   9.279   1.016   3.196
 4141WAT     H212666   9.315   0.908   3.080
 4142WAT      O12667   0.017   0.819   4.345
 4142WAT     H112668   0.072   0.840   4.264
 4142WAT     H212669   0.057   0.741   4.393
 4143WAT      O12670   7.700   1.786   9.539
 4143WAT     H112671   7.617   1.841   9.524
 4143WAT     H212672   7.675   1.695   9.570
 4144WAT      O12673   4.078   2.193   8.453
 4144WAT     H112674   4.117   2.112   8.409
 4144WAT     H212675   4.039   2.253   8.383
 4145WAT      O12676   6.220   8.678   9.836
 4145WAT     H112677   6.142   8.634   9.790
 4145WAT     H212678   6.280   8.608   9.874
 4146WAT      O12679   1.354   1.839   3.342
 4146WAT     H112680   1.334   1.774   3.269
 4146WAT     H212681   1.346   1.794   3.431
 4147WAT      O12682   1.882   3.023   1.921
 4147WAT     H112683   1.966   2.989   1.880
 4147WAT     H212684   1.872   3.121   1.902
 4148WAT      O12685   4.356   8.003   3.924
 4148WAT     H112686   4.270   7.958   3.948
 4148WAT     H212687   4.386   8.061   3.999
 4149WAT      O12688   0.367   5.292   2.509
 4149WAT     H112689   0.289   5.354   2.521
 4149WAT     H212690   0.377   5.270   2.413
 4150WAT      O12691   1.848   9.216   3.387
 4150WAT     H112692   1.839   9.313   3.364
 4150WAT     H212693   1.895   9.169   3.312
 4151WAT      O12694   1.400   9.486   5.161
 4151WAT     H112695   1.342   9.422   5.111
 4151WAT     H212696   1.343   9.554   5.207
 4152WAT      O12697   4.142   3.917   0.072
 4152WAT     H112698   4.099   3.978   0.006
 4152WAT     H212699   4.094   3.925   0.160
 4153WAT      O12700   0.686   0.347   3.278
 4153WAT     H112701   0.702   0.432   3.228
 4153WAT     H212702   0.774   0.310   3.308
 4154WAT      O12703   3.137   9.220   9.050
 4154WAT     H112704   3.057   9.258   9.095
 4154WAT     H212705   3.111   9.185   8.960
 4155WAT      O12706   4.451   3.356   1.022
 4155WAT     H112707   4.491   3.384   1.109
 4155WAT     H212708   4.351   3.357   1.030
 4156WAT      O12709   4.030   1.613   9.784
 4156WAT     H112710   3.956   1.546   9.791
 4156WAT     H212711   4.031   1.653   9.692
 4157WAT      O12712   0.871   9.016   8.406
 4157WAT     H112713   0.901   9.071   8.328
 4157WAT     H212714   0.833   8.930   8.373
 4158WAT      O12715   7.338   2.845   1.372
 4158WAT     H112716   7.379   2.778   1.310
 4158WAT     H212717   7.314   2.927   1.320
 4159WAT      O12718   5.749   9.538   7.439
 4159WAT     H112719   5.847   9.521   7.438
 4159WAT     H212720   5.723   9.597   7.363
 4160WAT      O12721   9.435   1.461   8.980
 4160WAT     H112722   9.374   1.539   8.966
 4160WAT     H212723   9.505   1.460   8.909
 4161WAT      O12724   1.470   3.800   7.817
 4161WAT     H112725   1.419   3.885   7.811
 4161WAT     H212726   1.408   3.725   7.843
 4162WAT      O12727   1.212   1.257   7.493
 4162WAT     H112728   1.246   1.180   7.438
 4162WAT     H212729   1.286   1.323   7.504
 4163WAT      O12730   7.938   5.492   8.396
 4163WAT     H112731   7.876   5.530   8.326
 4163WAT     H212732   7.897   5.503   8.486
 4164WAT      O12733   7.009   6.793   6.548
 4164WAT     H112734   7.103   6.826   6.563
 4164WAT     H212735   7.002   6.698   6.579
 4165WAT      O12736   8.886   6.614   3.005
 4165WAT     H112737   8.814   6.590   2.940
 4165WAT     H212738   8.855   6.590   3.098
 4166WAT      O12739   4.479   2.164   4.644
 4166WAT     H112740   4.577   2.147   4.639
 4166WAT     H212741   4.448   2.207   4.559
 4167WAT      O12742   3.820   7.736   1.749
 4167WAT     H112743   3.769   7.805   1.697
 4167WAT     H212744   3.770   7.716   1.834
 4168WAT      O12745   5.436   5.750   7.898
 4168WAT     H112746   5.424   5.721   7.803
 4168WAT     H212747   5.513   5.701   7.939
 4169WAT      O12748   5.696   2.415   2.288
 4169WAT     H112749   5.794   2.436   2.286
 4169WAT     H212750   5.644   2.500   2.280
 4170WAT      O12751   0.527   6.207   5.531
 4170WAT     H112752   0.591   6.253   5.470
 4170WAT     H212753   0.500   6.268   5.605
 4171WAT      O12754   5.471   3.782   1.807
 4171WAT     H112755   5.442   3.780   1.712
 4171WAT     H212756   5.561   3.825   1.813
 4172WAT      O12757   0.020   4.980   7.526
 4172WAT     H112758   0.119   4.990   7.517
 4172WAT     H212759  -0.025   5.055   7.477
 4173WAT      O12760   5.058   2.440   0.471
 4173WAT     H112761   5.028   2.352   0.508
 4173WAT     H212762   5.136   2.427   0.411
 4174WAT      O12763   0.558   1.198   4.027
 4174WAT     H112764   0.651   1.179   4.058
 4174WAT     H212765   0.520   1.116   3.983
 4175WAT      O12766   8.946   9.451   1.656
 4175WAT     H112767   8.880   9.427   1.585
 4175WAT     H212768   8.950   9.551   1.664
 4176WAT      O12769   8.150   4.202   1.801
 4176WAT     H112770   8.093   4.203   1.719
 4176WAT     H212771   8.246   4.193   1.775
 4177WAT      O12772   3.703   8.956   2.456
 4177WAT     H112773   3.700   8.988   2.551
 4177WAT     H212774   3.796   8.928   2.434
 4178WAT      O12775   2.635   2.647   8.917
 4178WAT     H112776   2.547   2.653   8.870
 4178WAT     H212777   2.696   2.719   8.885
 4179WAT      O12778   8.960   0.394   2.696
 4179WAT     H112779   8.880   0.335   2.687
 4179WAT     H212780   8.999   0.384   2.788
 4180WAT      O12781   7.401   4.363   2.477
 4180WAT     H112782   7.450   4.443   2.511
 4180WAT     H212783   7.464   4.287   2.467
 4181WAT      O12784   9.231   1.871   8.726
 4181WAT     H112785   9.327   1.889   8.706
 4181WAT     H212786   9.182   1.958   8.734
 4182WAT      O12787   3.578   2.428   5.778
 4182WAT     H112788   3.526   2.498   5.729
 4182WAT     H212789   3.673   2.456   5.785
 4183WAT      O12790   1.617   6.061   8.890
 4183WAT     H112791   1.669   6.125   8.947
 4183WAT     H212792   1.676   6.023   8.819
 4184WAT      O12793   8.828   3.409   1.031
 4184WAT     H112794   8.914   3.453   1.005
 4184WAT     H212795   8.843   3.311   1.040
 4185WAT      O12796   7.699   5.022   8.041
 4185WAT     H112797   7.606   4.988   8.038
 4185WAT     H212798   7.736   5.012   8.133
 4186WAT      O12799   1.957   5.007   2.249
 4186WAT     H112800   1.950   5.107   2.247
 4186WAT     H212801   1.913   4.972   2.331
 4187WAT      O12802   4.734   9.101   3.748
 4187WAT     H112803   4.634   9.106   3.743
 4187WAT     H212804   4.766   9.021   3.698
 4188WAT      O12805   1.465   8.518   6.816
 4188WAT     H112806   1.424   8.572   6.743
 4188WAT     H212807   1.487   8.577   6.893
 4189WAT      O12808   4.152   9.360   7.330
 4189WAT     H112809   4.171   9.269   7.294
 4189WAT     H212810   4.110   9.352   7.421
 4190WAT      O12811   8.109   9.109   3.975
 4190WAT     H112812   8.157   9.037   4.027
 4190WAT     H212813   8.166   9.191   3.972
 4191WAT      O12814   1.319   5.342   9.012
 4191WAT     H112815   1.254   5.397   8.959
 4191WAT     H212816   1.388   5.303   8.950
 4192WAT      O12817   0.635   6.103   3.486
 4192WAT     H112818   0.647   6.051   3.571
 4192WAT     H212819   0.597   6.043   3.416
 4193WAT      O12820   7.904   3.940   6.565
 4193WAT     H112821   7.836   3.875   6.531
 4193WAT     H212822   7.985   3.937   6.507
 4194WAT      O12823   7.076   4.647   0.986
 4194WAT     H112824   7.068   4.740   1.021
 4194WAT     H212825   7.089   4.583   1.062
 4195WAT      O12826   2.878   5.521   5.868
 4195WAT     H112827   2.919   5.501   5.779
 4195WAT     H212828   2.844   5.614   5.868
 4196WAT      O12829   7.657   9.208   1.986
 4196WAT     H112830   7.705   9.205   2.074
 4196WAT     H212831   7.648   9.303   1.956
 4197WAT      O12832   8.245   6.141   3.976
 4197WAT     H112833   8.308   6.217   3.956
 4197WAT     H212834   8.252   6.117   4.073
 4198WAT      O12835   6.663   4.335   5.401
 4198WAT     H112836   6.754   4.376   5.401
 4198WAT     H212837   6.594   4.408   5.395
 4199WAT      O12838   1.156   0.748   8.616
 4199WAT     H112839   1.250   0.774   8.596
 4199WAT     H212840   1.154   0.690   8.698
 4200WAT      O12841   2.436   5.721   7.182
 4200WAT     H112842   2.369   5.795   7.182
 4200WAT     H212843   2.480   5.716   7.093
 4201WAT      O12844   3.910   6.103   7.323
 4201WAT     H112845   3.926   6.080   7.419
 4201WAT     H212846   3.815   6.133   7.311
 4202WAT      O12847   2.858   0.415   1.368
 4202WAT     H112848   2.805   0.335   1.394
 4202WAT     H212849   2.800   0.479   1.317
 4203WAT      O12850   6.717   4.515   8.921
 4203WAT     H112851   6.788   4.572   8.880
 4203WAT     H212852   6.754   4.470   9.002
 4204WAT      O12853   6.805   6.836   7.252
 4204WAT     H112854   6.712   6.870   7.260
 4204WAT     H212855   6.859   6.866   7.330
 4205WAT      O12856   2.147   1.093   7.164
 4205WAT     H112857   2.065   1.100   7.222
 4205WAT     H212858   2.204   1.017   7.196
 4206WAT      O12859   2.164   3.330   5.996
 4206WAT     H112860   2.210   3.290   5.916
 4206WAT     H212861   2.230   3.343   6.069
 4207WAT      O12862   1.368   1.215   3.174
 4207WAT     H112863   1.406   1.181   3.261
 4207WAT     H212864   1.276   1.251   3.190
 4208WAT      O12865   1.658   4.965   5.429
 4208WAT     H112866   1.637   4.972   5.526
 4208WAT     H212867   1.660   5.057   5.389
 4209WAT      O12868   5.028   9.005   8.216
 4209WAT     H112869   5.078   9.086   8.186
 4209WAT     H212870   4.939   9.002   8.171
 4210WAT      O12871   7.049   2.889   8.581
 4210WAT     H112872   6.977   2.820   8.570
 4210WAT     H212873   7.083   2.887   8.675
 4211WAT      O12874   4.194   3.683   9.037
 4211WAT     H112875   4.207   3.609   9.103
 4211WAT     H212876   4.155   3.763   9.083
 4212WAT      O12877   5.815   4.653   2.383
 4212WAT     H112878   5.740   4.659   2.448
 4212WAT     H212879   5.862   4.741   2.378
 4213WAT      O12880   8.485   4.033   0.926
 4213WAT     H112881   8.506   4.063   1.019
 4213WAT     H212882   8.469   3.935   0.925
 4214WAT      O12883   5.462   7.607   8.215
 4214WAT     H112884   5.556   7.607   8.180
 4214WAT     H212885   5.452   7.536   8.285
 4215WAT      O12886   6.959   4.667   3.494
 4215WAT     H112887   7.009   4.745   3.532
 4215WAT     H212888   7.023   4.592   3.479
 4216WAT      O12889   0.795   7.035   6.144
 4216WAT     H112890   0.825   6.981   6.065
 4216WAT     H212891   0.697   7.020   6.159
 4217WAT      O12892   7.809   1.849   4.935
 4217WAT     H112893   7.810   1.880   4.840
 4217WAT     H212894   7.762   1.916   4.992
 4218WAT      O12895   6.354   6.222   8.667
 4218WAT     H112896   6.303   6.156   8.612
 4218WAT     H212897   6.452   6.208   8.652
 4219WAT      O12898   2.679   0.780   9.272
 4219WAT     H112899   2.769   0.797   9.231
 4219WAT     H212900   2.680   0.693   9.320
 4220WAT      O12901   3.647   5.830   7.541
 4220WAT     H112902   3.659   5.856   7.637
 4220WAT     H212903   3.576   5.760   7.534
 4221WAT      O12904   6.937   9.769   2.198
 4221WAT     H112905   6.847   9.771   2.241
 4221WAT     H212906   6.935   9.709   2.119
 4222WAT      O12907   7.004   5.681   8.932
 4222WAT     H112908   7.044   5.627   8.858
 4222WAT     H212909   6.905   5.667   8.934
 4223WAT      O12910   8.539   7.712   3.086
 4223WAT     H112911   8.498   7.801   3.105
 4223WAT     H212912   8.590   7.716   3.000
 4224WAT      O12913   8.709   6.605   9.864
 4224WAT     H112914   8.710   6.560   9.953
 4224WAT     H212915   8.631   6.571   9.811
 4225WAT      O12916   7.046   7.001   5.281
 4225WAT     H112917   7.006   7.084   5.319
 4225WAT     H212918   7.061   7.014   5.183
 4226WAT      O12919   3.916   4.103   9.113
 4226WAT     H112920   3.854   4.135   9.185
 4226WAT     H212921   3.973   4.179   9.083
 4227WAT      O12922   6.412   9.759   6.260
 4227WAT     H112923   6.427   9.798   6.170
 4227WAT     H212924   6.333   9.697   6.257
 4228WAT      O12925   8.812   7.552   4.781
 4228WAT     H112926   8.901   7.542   4.825
 4228WAT     H212927   8.815   7.510   4.690
 4229WAT      O12928   6.362   0.644   5.707
 4229WAT     H112929   6.409   0.561   5.736
 4229WAT     H212930   6.368   0.713   5.780
 4230WAT      O12931   2.732   5.143   3.831
 4230WAT     H112932   2.662   5.079   3.797
 4230WAT     H212933   2.725   5.229   3.782
 4231WAT      O12934   9.298   2.322   0.413
 4231WAT     H112935   9.373   2.360   0.468
 4231WAT     H212936   9.286   2.378   0.331
 4232WAT      O12937   1.059   1.742   4.671
 4232WAT     H112938   1.014   1.822   4.632
 4232WAT     H212939   1.072   1.756   4.769
 4233WAT      O12940   6.192   2.192   6.027
 4233WAT     H112941   6.182   2.290   6.040
 4233WAT     H212942   6.254   2.154   6.096
 4234WAT      O12943   7.617   9.141   4.147
 4234WAT     H112944   7.570   9.056   4.122
 4234WAT     H212945   7.706   9.145   4.101
 4235WAT      O12946   1.387   9.636   2.292
 4235WAT     H112947   1.449   9.633   2.371
 4235WAT     H212948   1.375   9.731   2.263
 4236WAT      O12949   3.026   9.503   8.337
 4236WAT     H112950   2.985   9.446   8.266
 4236WAT     H212951   3.004   9.599   8.319
 4237WAT      O12952   5.785   5.653   1.981
 4237WAT     H112953   5.735   5.672   2.066
 4237WAT     H212954   5.733   5.589   1.925
 4238WAT      O12955   8.439   2.160   2.577
 4238WAT     H112956   8.528   2.115   2.567
 4238WAT     H212957   8.394   2.126   2.660
 4239WAT      O12958   3.480   1.505   7.696
 4239WAT     H112959   3.534   1.566   7.638
 4239WAT     H212960   3.523   1.414   7.698
 4240WAT      O12961   1.268   3.075   0.244
 4240WAT     H112962   1.302   3.133   0.318
 4240WAT     H212963   1.344   3.029   0.199
 4241WAT      O12964   2.766   4.738   7.627
 4241WAT     H112965   2.750   4.699   7.718
 4241WAT     H212966   2.784   4.664   7.562
 4242WAT      O12967   4.918   7.002   8.991
 4242WAT     H112968   4.899   7.072   8.922
 4242WAT     H212969   5.007   7.020   9.033
 4243WAT      O12970   4.971   5.315   6.727
 4243WAT     H112971   4.962   5.382   6.801
 4243WAT     H212972   4.886   5.262   6.719
 4244WAT      O12973   2.160   9.706   4.835
 4244WAT     H112974   2.248   9.717   4.790
 4244WAT     H212975   2.174   9.687   4.932
 4245WAT      O12976   2.010   0.566   5.698
 4245WAT     H112977   2.042   0.571   5.793
 4245WAT     H212978   2.088   0.569   5.636
 4246WAT      O12979   6.233   2.485   6.050
 4246WAT     H112980   6.231   2.581   6.023
 4246WAT     H212981   6.167   2.468   6.123
 4247WAT      O12982   6.115   4.912   4.198
 4247WAT     H112983   6.086   4.907   4.294
 4247WAT     H212984   6.065   4.845   4.144
 4248WAT      O12985   2.174   7.026   4.093
 4248WAT     H112986   2.196   6.976   4.177
 4248WAT     H212987   2.087   6.994   4.057
 4249WAT      O12988   5.734   9.341   6.815
 4249WAT     H112989   5.811   9.387   6.860
 4249WAT     H212990   5.715   9.387   6.728
 4250WAT      O12991   5.802   5.972   1.504
 4250WAT     H112992   5.771   5.879   1.522
 4250WAT     H212993   5.869   5.970   1.429
 4251WAT      O12994   7.215   5.145   2.188
 4251WAT     H112995   7.232   5.064   2.244
 4251WAT     H212996   7.117   5.151   2.168
 4252WAT      O12997   0.253   1.412   6.017
 4252WAT     H112998   0.318   1.438   5.947
 4252WAT     H212999   0.162   1.448   5.995
 4253WAT      O13000   8.585   9.076   3.390
 4253WAT     H113001   8.546   8.997   3.438
 4253WAT     H213002   8.607   9.051   3.296
 4254WAT      O13003   7.780   0.701   7.389
 4254WAT     H113004   7.865   0.714   7.440
 4254WAT     H213005   7.790   0.623   7.327
 4255WAT      O13006   5.888   0.732   4.067
 4255WAT     H113007   5.838   0.654   4.106
 4255WAT     H213008   5.861   0.815   4.115
 4256WAT      O13009   5.371   8.536   6.005
 4256WAT     H113010   5.297   8.602   6.018
 4256WAT     H213011   5.448   8.580   5.961
 4257WAT      O13012   5.518   6.709   2.969
 4257WAT     H113013   5.496   6.787   3.027
 4257WAT     H213014   5.486   6.727   2.875
 4258WAT      O13015   9.226   5.303   3.561
 4258WAT     H113016   9.300   5.244   3.595
 4258WAT     H213017   9.190   5.358   3.637
 4259WAT      O13018   7.777   4.028   7.974
 4259WAT     H113019   7.720   4.097   7.931
 4259WAT     H213020   7.756   4.021   8.071
 4260WAT      O13021   1.922   6.954   3.962
 4260WAT     H113022   1.950   6.958   3.867
 4260WAT     H213023   1.909   6.859   3.989
 4261WAT      O13024   4.106   4.324   6.842
 4261WAT     H113025   4.204   4.341   6.846
 4261WAT     H213026   4.080   4.261   6.916
 4262WAT      O13027   8.104   9.279   9.474
 4262WAT     H113028   8.183   9.259   9.531
 4262WAT     H213029   8.103   9.218   9.395
 4263WAT      O13030   1.874   4.530   0.674
 4263WAT     H113031   1.796   4.518   0.736
 4263WAT     H213032   1.854   4.602   0.609
 4264WAT      O13033   2.189   0.907   0.178
 4264WAT     H113034   2.148   0.992   0.147
 4264WAT     H213035   2.152   0.831   0.124
 4265WAT      O13036   3.396   3.170   7.601
 4265WAT     H113037   3.328   3.097   7.594
 4265WAT     H213038   3.382   3.222   7.685
 4266WAT      O13039   3.890   9.832   5.914
 4266WAT     H113040   3.871   9.734   5.915
 4266WAT     H213041   3.987   9.846   5.894
 4267WAT      O13042   8.549   8.235   5.615
 4267WAT     H113043   8.477   8.168   5.597
 4267WAT     H213044   8.535   8.277   5.704
 4268WAT      O13045   0.655   7.892   3.811
 4268WAT     H113046   0.702   7.956   3.871
 4268WAT     H213047   0.605   7.825   3.866
 4269WAT      O13048   2.945   3.763   8.170
 4269WAT     H113049   2.911   3.679   8.127
 4269WAT     H213050   2.952   3.835   8.101
 4270WAT      O13051   0.827   8.564   5.522
 4270WAT     H113052   0.854   8.544   5.428
 4270WAT     H213053   0.858   8.491   5.582
 4271WAT      O13054   3.451   3.732   0.514
 4271WAT     H113055   3.396   3.814   0.531
 4271WAT     H213056   3.468   3.723   0.416
 4272WAT      O13057   4.137   5.402   4.646
 4272WAT     H113058   4.071   5.364   4.711
 4272WAT     H213059   4.151   5.338   4.571
 4273WAT      O13060   9.001   3.614   7.941
 4273WAT     H113061   8.969   3.596   8.034
 4273WAT     H213062   9.071   3.546   7.917
 4274WAT      O13063   1.992   3.236   7.886
 4274WAT     H113064   2.014   3.327   7.920
 4274WAT     H213065   2.074   3.179   7.889
 4275WAT      O13066   5.660   7.498   9.802
 4275WAT     H113067   5.595   7.564   9.840
 4275WAT     H213068   5.705   7.538   9.722
 4276WAT      O13069   8.935   2.085   7.330
 4276WAT     H113070   8.958   1.991   7.355
 4276WAT     H213071   9.001   2.119   7.263
 4277WAT      O13072   3.762   1.322   3.834
 4277WAT     H113073   3.782   1.242   3.776
 4277WAT     H213074   3.717   1.291   3.918
 4278WAT      O13075   2.497   8.510   6.589
 4278WAT     H113076   2.586   8.466   6.604
 4278WAT     H213077   2.476   8.570   6.666
 4279WAT      O13078   1.359   5.674   9.450
 4279WAT     H113079   1.267   5.706   9.474
 4279WAT     H213080   1.352   5.610   9.373
 4280WAT      O13081   7.709   0.508   0.990
 4280WAT     H113082   7.719   0.524   1.088
 4280WAT     H213083   7.616   0.479   0.970
 4281WAT      O13084   0.340   4.770   3.643
 4281WAT     H113085   0.311   4.725   3.727
 4281WAT     H213086   0.353   4.701   3.571
 4282WAT      O13087   7.090   6.372   0.528
 4282WAT     H113088   7.081   6.324   0.615
 4282WAT     H213089   7.003   6.415   0.504
 4283WAT      O13090   0.446   9.751   3.562
 4283WAT     H113091   0.519   9.795   3.511
 4283WAT     H213092   0.417   9.668   3.515
 4284WAT      O13093   3.609   1.061   6.645
 4284WAT     H113094   3.539   1.013   6.593
 4284WAT     H213095   3.633   1.008   6.727
 4285WAT      O13096   5.224   4.595   6.308
 4285WAT     H113097   5.260   4.642   6.227
 4285WAT     H213098   5.140   4.547   6.283
 4286WAT      O13099   0.898   6.104   5.279
 4286WAT     H113100   0.996   6.098   5.293
 4286WAT     H213101   0.867   6.027   5.222
 4287WAT      O13102   5.753   5.815   3.352
 4287WAT     H113103   5.768   5.847   3.258
 4287WAT     H213104   5.781   5.720   3.360
 4288WAT      O13105   7.268   8.680   6.874
 4288WAT     H113106   7.335   8.622   6.922
 4288WAT     H213107   7.177   8.640   6.883
 4289WAT      O13108   8.144   0.354   7.133
 4289WAT     H113109   8.168   0.433   7.190
 4289WAT     H213110   8.191   0.273   7.167
 4290WAT      O13111   2.010   3.823   6.889
 4290WAT     H113112   2.038   3.743   6.836
 4290WAT     H213113   1.940   3.873   6.839
 4291WAT      O13114   6.436   6.504   6.745
 4291WAT     H113115   6.348   6.506   6.793
 4291WAT     H213116   6.425   6.457   6.658
 4292WAT      O13117   7.554   5.079   5.251
 4292WAT     H113118   7.618   5.155   5.243
 4292WAT     H213119   7.601   4.993   5.230
 4293WAT      O13120   4.528   5.384   4.995
 4293WAT     H113121   4.499   5.428   5.080
 4293WAT     H213122   4.523   5.285   5.005
 4294WAT      O13123   6.895   2.081   8.870
 4294WAT     H113124   6.824   2.113   8.807
 4294WAT     H213125   6.855   2.016   8.935
 4295WAT      O13126   1.844   4.484   2.366
 4295WAT     H113127   1.795   4.571   2.372
 4295WAT     H213128   1.787   4.416   2.320
 4296WAT      O13129   7.305   0.061   8.316
 4296WAT     H113130   7.282   0.064   8.414
 4296WAT     H213131   7.355   0.143   8.291
 4297WAT      O13132   3.390   5.595   2.677
 4297WAT     H113133   3.488   5.581   2.669
 4297WAT     H213134   3.349   5.599   2.586
 4298WAT      O13135   8.307   1.129   0.824
 4298WAT     H113136   8.283   1.046   0.874
 4298WAT     H213137   8.277   1.209   0.875
 4299WAT      O13138   4.676   4.845   7.459
 4299WAT     H113139   4.721   4.916   7.405
 4299WAT     H213140   4.602   4.886   7.512
 4300WAT      O13141   7.726   2.420   6.801
 4300WAT     H113142   7.671   2.438   6.720
 4300WAT     H213143   7.705   2.488   6.871
 4301WAT      O13144   1.896   2.392   6.899
 4301WAT     H113145   1.842   2.469   6.934
 4301WAT     H213146   1.981   2.385   6.952
 4302WAT      O13147   1.924   0.729   4.580
 4302WAT     H113148   1.956   0.790   4.508
 4302WAT     H213149   1.892   0.783   4.658
 4303WAT      O13150   1.632   6.974   3.240
 4303WAT     H113151   1.549   6.967   3.184
 4303WAT     H213152   1.712   6.950   3.185
 4304WAT      O13153   0.949   1.664   1.617
 4304WAT     H113154   0.955   1.739   1.552
 4304WAT     H213155   0.910   1.584   1.573
 4305WAT      O13156   4.346   4.418   2.984
 4305WAT     H113157   4.427   4.450   3.032
 4305WAT     H213158   4.267   4.474   3.010
 4306WAT      O13159   6.254   0.046   5.261
 4306WAT     H113160   6.249   0.142   5.233
 4306WAT     H213161   6.329   0.033   5.326
 4307WAT      O13162   7.338   8.959   6.897
 4307WAT     H113163   7.304   8.875   6.854
 4307WAT     H213164   7.434   8.946   6.921
 4308WAT      O13165   4.829   5.481   9.350
 4308WAT     H113166   4.749   5.516   9.398
 4308WAT     H213167   4.884   5.427   9.413
 4309WAT      O13168   6.921   8.724   6.461
 4309WAT     H113169   6.895   8.627   6.464
 4309WAT     H213170   7.006   8.737   6.512
 4310WAT      O13171   5.564   2.127   2.771
 4310WAT     H113172   5.465   2.119   2.780
 4310WAT     H213173   5.589   2.224   2.768
 4311WAT      O13174   5.241   2.849   0.314
 4311WAT     H113175   5.261   2.852   0.216
 4311WAT     H213176   5.142   2.858   0.328
 4312WAT      O13177   9.798   9.324   1.748
 4312WAT     H113178   9.821   9.232   1.781
 4312WAT     H213179   9.882   9.374   1.728
 4313WAT      O13180   8.868   1.727   9.716
 4313WAT     H113181   8.890   1.644   9.767
 4313WAT     H213182   8.921   1.729   9.631
 4314WAT      O13183   8.358   2.263   4.268
 4314WAT     H113184   8.400   2.353   4.259
 4314WAT     H213185   8.410   2.196   4.214
 4315WAT      O13186   4.970   2.187   0.556
 4315WAT     H113187   4.937   2.117   0.492
 4315WAT     H213188   4.934   2.168   0.648
 4316WAT      O13189   9.560   1.884   5.588
 4316WAT     H113190   9.558   1.984   5.590
 4316WAT     H213191   9.655   1.852   5.592
 4317WAT      O13192   2.887   2.252   5.032
 4317WAT     H113193   2.793   2.243   5.065
 4317WAT     H213194   2.895   2.335   4.976
 4318WAT      O13195   1.214   0.916   2.725
 4318WAT     H113196   1.288   0.874   2.674
 4318WAT     H213197   1.248   0.946   2.814
 4319WAT      O13198   7.680   5.781   5.969
 4319WAT     H113199   7.589   5.739   5.963
 4319WAT     H213200   7.748   5.718   5.930
 4320WAT      O13201   1.814   7.387   8.643
 4320WAT     H113202   1.740   7.391   8.575
 4320WAT     H213203   1.867   7.303   8.629
 4321WAT      O13204   0.580   6.528   5.509
 4321WAT     H113205   0.491   6.562   5.481
 4321WAT     H213206   0.615   6.465   5.439
 4322WAT      O13207   2.534   2.085   2.894
 4322WAT     H113208   2.519   1.990   2.921
 4322WAT     H213209   2.570   2.136   2.972
 4323WAT      O13210   7.137   9.697   6.111
 4323WAT     H113211   7.197   9.777   6.121
 4323WAT     H213212   7.134   9.647   6.197
 4324WAT      O13213   4.958   6.397   6.842
 4324WAT     H113214   4.973   6.317   6.900
 4324WAT     H213215   5.033   6.405   6.776
 4325WAT      O13216   3.422   8.181   4.402
 4325WAT     H113217   3.465   8.240   4.334
 4325WAT     H213218   3.442   8.216   4.494
 4326WAT      O13219   4.681   2.749   7.019
 4326WAT     H113220   4.772   2.776   7.052
 4326WAT     H213221   4.675   2.765   6.920
 4327WAT      O13222   3.844   1.090   9.538
 4327WAT     H113223   3.750   1.112   9.566
 4327WAT     H213224   3.908   1.135   9.600
 4328WAT      O13225   2.594   1.009   9.536
 4328WAT     H113226   2.560   0.929   9.488
 4328WAT     H213227   2.694   1.013   9.529
 4329WAT      O13228   4.690   0.307   4.390
 4329WAT     H113229   4.617   0.353   4.339
 4329WAT     H213230   4.767   0.288   4.329
 4330WAT      O13231   3.380   0.640   6.599
 4330WAT     H113232   3.429   0.621   6.514
 4330WAT     H213233   3.417   0.582   6.672
 4331WAT      O13234   6.077   5.624   3.536
 4331WAT     H113235   6.007   5.580   3.479
 4331WAT     H213236   6.033   5.683   3.604
 4332WAT      O13237   7.073   5.305   6.523
 4332WAT     H113238   7.117   5.298   6.433
 4332WAT     H213239   7.135   5.270   6.593
 4333WAT      O13240   5.153   3.372   4.536
 4333WAT     H113241   5.100   3.287   4.541
 4333WAT     H213242   5.250   3.351   4.546
 4334WAT      O13243   0.600   4.001   4.512
 4334WAT     H113244   0.653   4.081   4.540
 4334WAT     H213245   0.663   3.927   4.487
 4335WAT      O13246   0.695   4.857   5.989
 4335WAT     H113247   0.741   4.944   5.969
 4335WAT     H213248   0.668   4.813   5.903
 4336WAT      O13249   7.360   7.932   7.935
 4336WAT     H113250   7.371   8.027   7.908
 4336WAT     H213251   7.265   7.915   7.963
 4337WAT      O13252   0.556   7.365   4.988
 4337WAT     H113253   0.491   7.325   5.052
 4337WAT     H213254   0.630   7.410   5.038
 4338WAT      O13255   3.322   1.513   7.432
 4338WAT     H113256   3.400   1.452   7.445
 4338WAT     H213257   3.242   1.460   7.403
 4339WAT      O13258   3.900   3.753   3.850
 4339WAT     H113259   3.835   3.692   3.805
 4339WAT     H213260   3.877   3.761   3.947
 4340WAT      O13261   6.619   6.557   4.871
 4340WAT     H113262   6.526   6.524   4.886
 4340WAT     H213263   6.672   6.549   4.956
 4341WAT      O13264   0.711   4.611   4.347
 4341WAT     H113265   0.639   4.585   4.412
 4341WAT     H213266   0.710   4.546   4.270
 4342WAT      O13267   8.244   7.761   5.047
 4342WAT     H113268   8.164   7.701   5.052
 4342WAT     H213269   8.218   7.847   5.001
 4343WAT      O13270   2.111   2.052   8.021
 4343WAT     H113271   2.117   1.967   8.073
 4343WAT     H213272   2.062   2.036   7.935
 4344WAT      O13273   6.081   5.764   3.157
 4344WAT     H113274   6.086   5.682   3.214
 4344WAT     H213275   5.989   5.803   3.162
 4345WAT      O13276   7.043   8.348   8.280
 4345WAT     H113277   6.977   8.309   8.344
 4345WAT     H213278   7.071   8.279   8.214
 4346WAT      O13279   8.392   3.181   6.062
 4346WAT     H113280   8.306   3.197   6.013
 4346WAT     H213281   8.459   3.141   5.999
 4347WAT      O13282   2.105   2.960   7.930
 4347WAT     H113283   2.115   2.970   8.029
 4347WAT     H213284   2.133   2.868   7.903
 4348WAT      O13285   7.817   8.654   6.483
 4348WAT     H113286   7.748   8.723   6.506
 4348WAT     H213287   7.858   8.619   6.568
 4349WAT      O13288   0.305   9.532   9.582
 4349WAT     H113289   0.234   9.463   9.595
 4349WAT     H213290   0.385   9.490   9.538
 4350WAT      O13291   1.628   2.484   8.841
 4350WAT     H113292   1.608   2.581   8.859
 4350WAT     H213293   1.559   2.448   8.779
 4351WAT      O13294   0.600   2.050   5.331
 4351WAT     H113295   0.543   1.979   5.290
 4351WAT     H213296   0.646   2.102   5.259
 4352WAT      O13297   1.746   6.110   4.396
 4352WAT     H113298   1.844   6.123   4.406
 4352WAT     H213299   1.724   6.089   4.300
 4353WAT      O13300   0.344   3.750   0.714
 4353WAT     H113301   0.407   3.674   0.724
 4353WAT     H213302   0.383   3.818   0.652
 4354WAT      O13303   1.667   8.270   7.648
 4354WAT     H113304   1.712   8.289   7.561
 4354WAT     H213305   1.570   8.248   7.632
 4355WAT      O13306   3.000   1.619   7.429
 4355WAT     H113307   3.057   1.628   7.510
 4355WAT     H213308   3.053   1.576   7.355
 4356WAT      O13309   8.710   8.723   6.423
 4356WAT     H113310   8.710   8.819   6.398
 4356WAT     H213311   8.804   8.688   6.420
 4357WAT      O13312   2.709   5.248   4.491
 4357WAT     H113313   2.784   5.213   4.547
 4357WAT     H213314   2.626   5.198   4.512
 4358WAT      O13315   5.752   4.975   7.422
 4358WAT     H113316   5.776   4.879   7.437
 4358WAT     H213317   5.673   4.980   7.361
 4359WAT      O13318   4.484   0.216   7.819
 4359WAT     H113319   4.391   0.188   7.842
 4359WAT     H213320   4.484   0.262   7.731
 4360WAT      O13321   9.792   2.311   6.701
 4360WAT     H113322   9.836   2.382   6.645
 4360WAT     H213323   9.693   2.314   6.685
 4361WAT      O13324   2.341   0.405   6.219
 4361WAT     H113325   2.306   0.423   6.311
 4361WAT     H213326   2.383   0.314   6.215
 4362WAT      O13327   2.086   0.356   6.366
 4362WAT     H113328   2.140   0.272   6.360
 4362WAT     H213329   2.093   0.393   6.459
 4363WAT      O13330   0.385   7.554   5.160
 4363WAT     H113331   0.326   7.602   5.095
 4363WAT     H213332   0.477   7.546   5.122
 4364WAT      O13333   5.744   7.769   4.244
 4364WAT     H113334   5.733   7.741   4.340
 4364WAT     H213335   5.673   7.725   4.189
 4365WAT      O13336   4.622   7.808   5.069
 4365WAT     H113337   4.677   7.760   5.137
 4365WAT     H213338   4.662   7.899   5.053
 4366WAT      O13339   6.377   9.767   3.936
 4366WAT     H113340   6.445   9.823   3.985
 4366WAT     H213341   6.405   9.671   3.938
 4367WAT      O13342   5.522   1.967   3.494
 4367WAT     H113343   5.545   1.963   3.397
 4367WAT     H213344   5.504   1.874   3.528
 4368WAT      O13345   4.914   7.765   5.468
 4368WAT     H113346   4.967   7.783   5.551
 4368WAT     H213347   4.825   7.728   5.493
 4369WAT      O13348   2.369   2.500   0.440
 4369WAT     H113349   2.351   2.596   0.462
 4369WAT     H213350   2.376   2.489   0.341
 4370WAT      O13351   0.211   1.697   6.523
 4370WAT     H113352   0.112   1.706   6.521
 4370WAT     H213353   0.237   1.628   6.590
 4371WAT      O13354   8.920   9.525   6.665
 4371WAT     H113355   8.882   9.601   6.612
 4371WAT     H213356   8.862   9.444   6.655
 4372WAT      O13357   4.967   7.301   0.526
 4372WAT     H113358   4.951   7.389   0.480
 4372WAT     H213359   4.950   7.226   0.462
 4373WAT      O13360   4.941   4.152   3.013
 4373WAT     H113361   5.013   4.088   2.987
 4373WAT     H213362   4.889   4.115   3.089
 4374WAT      O13363   8.356   6.486   6.207
 4374WAT     H113364   8.257   6.485   6.192
 4374WAT     H213365   8.389   6.392   6.213
 4375WAT      O13366   5.430   0.356   3.278
 4375WAT     H113367   5.482   0.385   3.198
 4375WAT     H213368   5.332   0.353   3.255
 4376WAT      O13369   7.100   1.964   6.304
 4376WAT     H113370   7.094   1.982   6.206
 4376WAT     H213371   7.145   2.041   6.349
 4377WAT      O13372   6.526   9.074   1.656
 4377WAT     H113373   6.584   8.993   1.670
 4377WAT     H213374   6.440   9.062   1.704
 4378WAT      O13375   7.361   1.406   7.622
 4378WAT     H113376   7.398   1.367   7.706
 4378WAT     H213377   7.360   1.505   7.627
 4379WAT      O13378   3.376   9.372   2.351
 4379WAT     H113379   3.451   9.371   2.417
 4379WAT     H213380   3.291   9.397   2.399
 4380WAT      O13381   1.637   0.559   2.258
 4380WAT     H113382   1.568   0.493   2.289
 4380WAT     H213383   1.728   0.520   2.270
 4381WAT      O13384   6.307   3.493   2.883
 4381WAT     H113385   6.348   3.580   2.855
 4381WAT     H213386   6.215   3.510   2.917
 4382WAT      O13387   8.963   1.991   6.746
 4382WAT     H113388   8.932   1.977   6.652
 4382WAT     H213389   8.938   1.911   6.801
 4383WAT      O13390   0.469   2.571   1.594
 4383WAT     H113391   0.532   2.496   1.574
 4383WAT     H213392   0.375   2.536   1.598
 4384WAT      O13393   8.356   2.911   5.566
 4384WAT     H113394   8.337   2.815   5.586
 4384WAT     H213395   8.449   2.919   5.528
 4385WAT      O13396   6.265   1.522   4.093
 4385WAT     H113397   6.237   1.618   4.094
 4385WAT     H213398   6.298   1.497   4.002
 4386WAT      O13399   0.033   5.487   6.149
 4386WAT     H113400   0.084   5.554   6.202
 4386WAT     H213401  -0.065   5.497   6.168
 4387WAT      O13402   6.176   7.394   7.367
 4387WAT     H113403   6.092   7.447   7.376
 4387WAT     H213404   6.243   7.446   7.313
 4388WAT      O13405   3.588   0.929   1.667
 4388WAT     H113406   3.570   0.970   1.757
 4388WAT     H213407   3.501   0.908   1.622
 4389WAT      O13408   1.249   1.504   3.350
 4389WAT     H113409   1.268   1.492   3.447
 4389WAT     H213410   1.190   1.429   3.318
 4390WAT      O13411   4.091   1.124   7.015
 4390WAT     H113412   4.082   1.061   6.938
 4390WAT     H213413   4.178   1.108   7.061
 4391WAT      O13414   2.947   7.813   7.665
 4391WAT     H113415   3.045   7.820   7.683
 4391WAT     H213416   2.929   7.731   7.612
 4392WAT      O13417   5.406   8.374   5.578
 4392WAT     H113418   5.364   8.448   5.525
 4392WAT     H213419   5.345   8.295   5.579
 4393WAT      O13420   0.437   7.842   2.735
 4393WAT     H113421   0.476   7.891   2.813
 4393WAT     H213422   0.352   7.887   2.708
 4394WAT      O13423   5.468   5.975   4.667
 4394WAT     H113424   5.465   5.901   4.599
 4394WAT     H213425   5.551   6.029   4.654
 4395WAT      O13426   6.703   0.735   7.641
 4395WAT     H113427   6.798   0.763   7.658
 4395WAT     H213428   6.660   0.710   7.728
 4396WAT      O13429   4.071   3.129   6.900
 4396WAT     H113430   4.167   3.105   6.915
 4396WAT     H213431   4.048   3.115   6.804
 4397WAT      O13432   1.794   2.760   7.497
 4397WAT     H113433   1.797   2.860   7.493
 4397WAT     H213434   1.709   2.728   7.455
 4398WAT      O13435   5.993   8.440   2.688
 4398WAT     H113436   5.975   8.344   2.667
 4398WAT     H213437   5.921   8.498   2.649
 4399WAT      O13438   4.261   6.068   6.003
 4399WAT     H113439   4.254   6.094   5.907
 4399WAT     H213440   4.236   6.146   6.061
 4400WAT      O13441   2.011   0.584   6.241
 4400WAT     H113442   2.042   0.490   6.250
 4400WAT     H213443   1.930   0.598   6.298
 4401WAT      O13444   6.126   7.044   1.245
 4401WAT     H113445   6.179   7.103   1.306
 4401WAT     H213446   6.164   7.048   1.152
 4402WAT      O13447   3.073   0.564   6.329
 4402WAT     H113448   3.070   0.608   6.239
 4402WAT     H213449   3.069   0.634   6.400
 4403WAT      O13450   9.222   3.293   6.321
 4403WAT     H113451   9.207   3.340   6.408
 4403WAT     H213452   9.290   3.221   6.334
 4404WAT      O13453   3.039   6.222   3.297
 4404WAT     H113454   3.035   6.125   3.272
 4404WAT     H213455   3.091   6.272   3.227
 4405WAT      O13456   8.319   5.008   8.408
 4405WAT     H113457   8.361   4.950   8.479
 4405WAT     H213458   8.220   4.990   8.406
 4406WAT      O13459   1.255   4.083   3.354
 4406WAT     H113460   1.240   4.182   3.364
 4406WAT     H213461   1.353   4.063   3.359
 4407WAT      O13462   1.223   4.178   4.616
 4407WAT     H113463   1.236   4.151   4.711
 4407WAT     H213464   1.230   4.097   4.557
 4408WAT      O13465   8.751   8.002   2.413
 4408WAT     H113466   8.788   8.090   2.443
 4408WAT     H213467   8.651   8.007   2.410
 4409WAT      O13468   8.751   7.880   8.307
 4409WAT     H113469   8.738   7.932   8.392
 4409WAT     H213470   8.843   7.843   8.305
 4410WAT      O13471   3.943   7.009   2.259
 4410WAT     H113472   4.031   6.976   2.291
 4410WAT     H213473   3.956   7.063   2.175
 4411WAT      O13474   3.739   8.585   2.777
 4411WAT     H113475   3.768   8.490   2.764
 4411WAT     H213476   3.658   8.603   2.722
 4412WAT      O13477   1.310   8.915   4.423
 4412WAT     H113478   1.386   8.861   4.388
 4412WAT     H213479   1.310   8.911   4.523
 4413WAT      O13480   9.563   3.616   9.223
 4413WAT     H113481   9.548   3.715   9.211
 4413WAT     H213482   9.623   3.583   9.150
 4414WAT      O13483   7.918   7.939   3.988
 4414WAT     H113484   7.970   7.994   4.054
 4414WAT     H213485   7.887   7.997   3.913
 4415WAT      O13486   8.096   8.539   5.620
 4415WAT     H113487   8.124   8.444   5.604
 4415WAT     H213488   8.087   8.586   5.532
 4416WAT      O13489   8.923   5.752   7.973
 4416WAT     H113490   8.929   5.759   8.073
 4416WAT     H213491   9.015   5.741   7.935
 4417WAT      O13492   5.898   5.048   7.818
 4417WAT     H113493   5.891   4.953   7.787
 4417WAT     H213494   5.958   5.099   7.756
 4418WAT      O13495   1.285   4.813   0.658
 4418WAT     H113496   1.376   4.785   0.629
 4418WAT     H213497   1.224   4.733   0.658
 4419WAT      O13498   5.791   4.703   0.327
 4419WAT     H113499   5.757   4.650   0.250
 4419WAT     H213500   5.715   4.728   0.387
 4420WAT      O13501   4.885   4.491   7.193
 4420WAT     H113502   4.833   4.417   7.150
 4420WAT     H213503   4.821   4.558   7.231
 4421WAT      O13504   8.579   9.522   7.228
 4421WAT     H113505   8.635   9.539   7.146
 4421WAT     H213506   8.636   9.481   7.299
 4422WAT      O13507   1.235   8.299   7.398
 4422WAT     H113508   1.143   8.306   7.438
 4422WAT     H213509   1.235   8.228   7.328
 4423WAT      O13510   3.233   6.644   6.121
 4423WAT     H113511   3.224   6.692   6.208
 4423WAT     H213512   3.330   6.643   6.094
 4424WAT      O13513   9.216   7.517   2.769
 4424WAT     H113514   9.192   7.463   2.688
 4424WAT     H213515   9.182   7.610   2.758
 4425WAT      O13516   1.731   7.248   5.179
 4425WAT     H113517   1.816   7.237   5.230
 4425WAT     H213518   1.751   7.288   5.089
 4426WAT      O13519   5.180   4.708   3.907
 4426WAT     H113520   5.275   4.688   3.931
 4426WAT     H213521   5.161   4.805   3.925
 4427WAT      O13522   6.403   6.033   2.922
 4427WAT     H113523   6.433   6.128   2.935
 4427WAT     H213524   6.346   6.006   2.999
 4428WAT      O13525   2.747   6.458   7.574
 4428WAT     H113526   2.799   6.533   7.533
 4428WAT     H213527   2.745   6.380   7.511
 4429WAT      O13528   1.841   7.024   5.747
 4429WAT     H113529   1.886   6.977   5.823
 4429WAT     H213530   1.892   7.008   5.663
 4430WAT      O13531   1.170   0.700   0.068
 4430WAT     H113532   1.129   0.705   0.159
 4430WAT     H213533   1.099   0.717  -0.001
 4431WAT      O13534   2.091   6.897   7.500
 4431WAT     H113535   2.187   6.892   7.525
 4431WAT     H213536   2.051   6.806   7.500
 4432WAT      O13537   8.329   4.252   7.435
 4432WAT     H113538   8.298   4.347   7.431
 4432WAT     H213539   8.383   4.238   7.518
 4433WAT      O13540   2.454   9.453   0.112
 4433WAT     H113541   2.448   9.354   0.111
 4433WAT     H213542   2.421   9.490   0.025
 4434WAT      O13543   8.390   6.805   4.041
 4434WAT     H113544   8.316   6.770   4.099
 4434WAT     H213545   8.475   6.807   4.094
 4435WAT      O13546   6.789   0.457   9.163
 4435WAT     H113547   6.713   0.467   9.099
 4435WAT     H213548   6.830   0.366   9.153
 4436WAT      O13549   2.245   7.702   5.127
 4436WAT     H113550   2.245   7.731   5.032
 4436WAT     H213551   2.313   7.754   5.179
 4437WAT      O13552   7.749   7.465   8.431
 4437WAT     H113553   7.803   7.484   8.349
 4437WAT     H213554   7.760   7.369   8.456
 4438WAT      O13555   5.416   3.992   1.236
 4438WAT     H113556   5.441   4.035   1.150
 4438WAT     H213557   5.369   3.906   1.218
 4439WAT      O13558   8.117   4.904   9.868
 4439WAT     H113559   8.150   4.984   9.919
 4439WAT     H213560   8.171   4.892   9.785
 4440WAT      O13561   0.025   8.828   4.843
 4440WAT     H113562  -0.021   8.909   4.805
 4440WAT     H213563   0.097   8.799   4.780
 4441WAT      O13564   8.194   0.481   8.708
 4441WAT     H113565   8.122   0.412   8.717
 4441WAT     H213566   8.278   0.437   8.676
 4442WAT      O13567   2.604   5.547   8.237
 4442WAT     H113568   2.667   5.487   8.188
 4442WAT     H213569   2.520   5.496   8.259
 4443WAT      O13570   6.110   8.013   4.190
 4443WAT     H113571   6.083   7.918   4.201
 4443WAT     H213572   6.132   8.052   4.279
 4444WAT      O13573   9.046   4.851   9.589
 4444WAT     H113574   8.990   4.907   9.650
 4444WAT     H213575   9.019   4.755   9.596
 4445WAT      O13576   7.857   1.907   2.169
 4445WAT     H113577   7.760   1.927   2.161
 4445WAT     H213578   7.870   1.822   2.222
 4446WAT      O13579   2.803   7.592   4.746
 4446WAT     H113580   2.868   7.530   4.791
 4446WAT     H213581   2.712   7.552   4.748
 4447WAT      O13582   7.704   7.195   0.518
 4447WAT     H113583   7.628   7.245   0.559
 4447WAT     H213584   7.789   7.224   0.561
 4448WAT      O13585   3.913   4.320   5.950
 4448WAT     H113586   3.890   4.243   5.890
 4448WAT     H213587   3.983   4.377   5.906
 4449WAT      O13588   6.076   6.174   7.003
 4449WAT     H113589   6.054   6.077   7.015
 4449WAT     H213590   6.007   6.217   6.944
 4450WAT      O13591   4.682   5.471   0.489
 4450WAT     H113592   4.673   5.431   0.580
 4450WAT     H213593   4.695   5.398   0.422
 4451WAT      O13594   7.762   5.382   3.855
 4451WAT     H113595   7.849   5.355   3.812
 4451WAT     H213596   7.686   5.349   3.800
 4452WAT      O13597   2.315   0.808   6.606
 4452WAT     H113598   2.260   0.842   6.531
 4452WAT     H213599   2.301   0.865   6.687
 4453WAT      O13600   5.158   1.263   9.211
 4453WAT     H113601   5.067   1.240   9.246
 4453WAT     H213602   5.204   1.323   9.276
 4454WAT      O13603   2.778   3.644   6.739
 4454WAT     H113604   2.869   3.606   6.756
 4454WAT     H213605   2.738   3.599   6.659
 4455WAT      O13606   0.390   6.934   3.809
 4455WAT     H113607   0.316   6.871   3.785
 4455WAT     H213608   0.352   7.025   3.825
 4456WAT      O13609   9.825   4.010   7.193
 4456WAT     H113610   9.865   4.102   7.196
 4456WAT     H213611   9.887   3.944   7.235
 4457WAT      O13612   2.789   1.247   0.699
 4457WAT     H113613   2.737   1.318   0.652
 4457WAT     H213614   2.752   1.233   0.791
 4458WAT      O13615   4.884   5.969   5.505
 4458WAT     H113616   4.937   5.885   5.521
 4458WAT     H213617   4.848   5.968   5.412
 4459WAT      O13618   1.601   1.453   7.014
 4459WAT     H113619   1.662   1.391   6.965
 4459WAT     H213620   1.524   1.477   6.955
 4460WAT      O13621   4.444   9.250   8.130
 4460WAT     H113622   4.519   9.315   8.141
 4460WAT     H213623   4.464   9.167   8.182
 4461WAT      O13624   1.098   8.335   6.390
 4461WAT     H113625   1.125   8.368   6.300
 4461WAT     H213626   1.082   8.236   6.386
 4462WAT      O13627   9.555   4.427   4.754
 4462WAT     H113628   9.654   4.437   4.741
 4462WAT     H213629   9.534   4.426   4.852
 4463WAT      O13630   6.197   0.082   2.291
 4463WAT     H113631   6.113   0.123   2.326
 4463WAT     H213632   6.262   0.069   2.366
 4464WAT      O13633   8.207   2.945   3.643
 4464WAT     H113634   8.130   3.008   3.642
 4464WAT     H213635   8.174   2.852   3.661
 4465WAT      O13636   8.585   1.134   4.719
 4465WAT     H113637   8.512   1.146   4.651
 4465WAT     H213638   8.545   1.111   4.808
 4466WAT      O13639   0.746   8.078   4.460
 4466WAT     H113640   0.714   8.168   4.430
 4466WAT     H213641   0.778   8.026   4.382
 4467WAT      O13642   0.749   7.540   5.830
 4467WAT     H113643   0.735   7.496   5.919
 4467WAT     H213644   0.815   7.615   5.841
 4468WAT      O13645   8.435   3.289   8.521
 4468WAT     H113646   8.415   3.231   8.600
 4468WAT     H213647   8.382   3.257   8.442
 4469WAT      O13648   0.190   6.053   0.427
 4469WAT     H113649   0.115   5.990   0.404
 4469WAT     H213650   0.261   6.004   0.476
 4470WAT      O13651   0.299   1.672   7.957
 4470WAT     H113652   0.388   1.625   7.953
 4470WAT     H213653   0.249   1.656   7.872
 4471WAT      O13654   8.824   2.092   6.259
 4471WAT     H113655   8.846   1.995   6.255
 4471WAT     H213656   8.854   2.138   6.176
 4472WAT      O13657   4.040   1.724   4.124
 4472WAT     H113658   4.004   1.702   4.034
 4472WAT     H213659   4.111   1.794   4.115
 4473WAT      O13660   1.698   4.678   6.905
 4473WAT     H113661   1.664   4.628   6.825
 4473WAT     H213662   1.638   4.662   6.982
 4474WAT      O13663   3.522   3.467   1.794
 4474WAT     H113664   3.452   3.398   1.780
 4474WAT     H213665   3.560   3.496   1.706
 4475WAT      O13666   9.794   4.192   9.341
 4475WAT     H113667   9.875   4.134   9.329
 4475WAT     H213668   9.822   4.288   9.345
 4476WAT      O13669   3.090   4.206   6.209
 4476WAT     H113670   3.100   4.269   6.132
 4476WAT     H213671   3.019   4.139   6.187
 4477WAT      O13672   6.398   3.653   0.085
 4477WAT     H113673   6.324   3.673   0.020
 4477WAT     H213674   6.478   3.708   0.061
 4478WAT      O13675   3.435   9.400   5.926
 4478WAT     H113676   3.435   9.475   5.860
 4478WAT     H213677   3.347   9.354   5.924
 4479WAT      O13678   1.403   7.466   7.294
 4479WAT     H113679   1.415   7.366   7.294
 4479WAT     H213680   1.330   7.491   7.357
 4480WAT      O13681   8.506   9.068   9.756
 4480WAT     H113682   8.522   9.133   9.830
 4480WAT     H213683   8.584   9.006   9.748
 4481WAT      O13684   3.641   3.490   3.327
 4481WAT     H113685   3.573   3.437   3.377
 4481WAT     H213686   3.657   3.447   3.238
 4482WAT      O13687   4.954   8.339   7.024
 4482WAT     H113688   4.955   8.314   7.121
 4482WAT     H213689   4.861   8.326   6.988
 4483WAT      O13690   5.416   4.537   3.357
 4483WAT     H113691   5.392   4.448   3.320
 4483WAT     H213692   5.515   4.543   3.369
 4484WAT      O13693   2.397   5.786   6.609
 4484WAT     H113694   2.408   5.700   6.659
 4484WAT     H213695   2.317   5.780   6.550
 4485WAT      O13696   5.976   7.605   0.150
 4485WAT     H113697   5.923   7.659   0.085
 4485WAT     H213698   6.073   7.624   0.137
 4486WAT      O13699   9.862   1.455   1.566
 4486WAT     H113700   9.957   1.433   1.587
 4486WAT     H213701   9.821   1.380   1.514
 4487WAT      O13702   4.509   8.275   5.774
 4487WAT     H113703   4.458   8.235   5.698
 4487WAT     H213704   4.506   8.213   5.853
 4488WAT      O13705   4.298   6.169   9.172
 4488WAT     H113706   4.278   6.211   9.260
 4488WAT     H213707   4.222   6.111   9.144
 4489WAT      O13708   6.336   8.708   3.169
 4489WAT     H113709   6.346   8.692   3.267
 4489WAT     H213710   6.239   8.711   3.146
 4490WAT      O13711   1.337   9.261   3.258
 4490WAT     H113712   1.317   9.202   3.336
 4490WAT     H213713   1.366   9.351   3.291
 4491WAT      O13714   3.569   8.798   1.673
 4491WAT     H113715   3.605   8.713   1.713
 4491WAT     H213716   3.472   8.788   1.654
 4492WAT      O13717   4.126   6.353   8.944
 4492WAT     H113718   4.056   6.298   8.899
 4492WAT     H213719   4.175   6.297   9.011
 4493WAT      O13720   6.510   6.542   0.121
 4493WAT     H113721   6.485   6.637   0.137
 4493WAT     H213722   6.430   6.483   0.135
 4494WAT      O13723   7.213   2.060   1.435
 4494WAT     H113724   7.214   1.966   1.469
 4494WAT     H213725   7.245   2.062   1.340
 4495WAT      O13726   1.216   9.794   3.488
 4495WAT     H113727   1.269   9.851   3.426
 4495WAT     H213728   1.274   9.770   3.567
 4496WAT      O13729   2.718   9.357   0.926
 4496WAT     H113730   2.650   9.427   0.904
 4496WAT     H213731   2.728   9.294   0.849
 4497WAT      O13732   6.474   7.932   5.042
 4497WAT     H113733   6.559   7.880   5.053
 4497WAT     H213734   6.484   8.021   5.086
 4498WAT      O13735   5.805   9.232   6.272
 4498WAT     H113736   5.707   9.252   6.268
 4498WAT     H213737   5.824   9.171   6.350
 4499WAT      O13738   0.601   1.252   5.016
 4499WAT     H113739   0.698   1.230   5.025
 4499WAT     H213740   0.590   1.330   4.954
 4500WAT      O13741   9.658   2.738   7.296
 4500WAT     H113742   9.696   2.735   7.388
 4500WAT     H213743   9.694   2.662   7.242
 4501WAT      O13744   2.651   8.687   8.002
 4501WAT     H113745   2.681   8.599   8.039
 4501WAT     H213746   2.682   8.761   8.062
 4502WAT      O13747   6.220   9.008   9.515
 4502WAT     H113748   6.240   8.925   9.565
 4502WAT     H213749   6.151   9.062   9.563
 4503WAT      O13750   3.206   8.770   6.113
 4503WAT     H113751   3.192   8.710   6.192
 4503WAT     H213752   3.223   8.863   6.145
 4504WAT      O13753   6.313   2.001   4.396
 4504WAT     H113754   6.260   1.924   4.361
 4504WAT     H213755   6.258   2.085   4.391
 4505WAT      O13756   9.155   3.648   4.726
 4505WAT     H113757   9.126   3.561   4.687
 4505WAT     H213758   9.183   3.710   4.653
 4506WAT      O13759   5.081   7.951   7.622
 4506WAT     H113760   5.126   8.000   7.547
 4506WAT     H213761   5.052   7.861   7.590
 4507WAT      O13762   0.851   7.140   8.418
 4507WAT     H113763   0.928   7.116   8.478
 4507WAT     H213764   0.879   7.214   8.357
 4508WAT      O13765   7.311   4.807   3.663
 4508WAT     H113766   7.315   4.708   3.660
 4508WAT     H213767   7.220   4.838   3.634
 4509WAT      O13768   2.358   6.760   8.488
 4509WAT     H113769   2.368   6.835   8.423
 4509WAT     H213770   2.426   6.689   8.469
 4510WAT      O13771   8.304   0.815   3.286
 4510WAT     H113772   8.382   0.849   3.233
 4510WAT     H213773   8.298   0.866   3.372
 4511WAT      O13774   3.474   0.581   9.361
 4511WAT     H113775   3.491   0.680   9.364
 4511WAT     H213776   3.558   0.534   9.333
 4512WAT      O13777   0.853   9.834   3.430
 4512WAT     H113778   0.912   9.799   3.502
 4512WAT     H213779   0.826   9.759   3.369
 4513WAT      O13780   1.834   2.489   7.909
 4513WAT     H113781   1.781   2.482   7.993
 4513WAT     H213782   1.793   2.557   7.849
 4514WAT      O13783   0.329   7.187   7.619
 4514WAT     H113784   0.241   7.235   7.622
 4514WAT     H213785   0.384   7.224   7.544
 4515WAT      O13786   0.861   4.783   5.101
 4515WAT     H113787   0.823   4.864   5.145
 4515WAT     H213788   0.873   4.711   5.170
 4516WAT      O13789   3.357   0.205   2.391
 4516WAT     H113790   3.362   0.105   2.392
 4516WAT     H213791   3.273   0.234   2.437
 4517WAT      O13792   1.355   6.142   8.742
 4517WAT     H113793   1.450   6.132   8.773
 4517WAT     H213794   1.320   6.230   8.773
 4518WAT      O13795   0.214   8.495   7.131
 4518WAT     H113796   0.124   8.481   7.091
 4518WAT     H213797   0.259   8.572   7.085
 4519WAT      O13798   2.371   2.582   6.482
 4519WAT     H113799   2.470   2.599   6.485
 4519WAT     H213800   2.326   2.635   6.553
 4520WAT      O13801   0.136   0.103   2.387
 4520WAT     H113802   0.197   0.031   2.353
 4520WAT     H213803   0.154   0.188   2.337
 4521WAT      O13804   8.829   8.225   5.653
 4521WAT     H113805   8.742   8.217   5.606
 4521WAT     H213806   8.840   8.149   5.718
 4522WAT      O13807   7.950   3.325   9.493
 4522WAT     H113808   7.985   3.289   9.580
 4522WAT     H213809   7.855   3.294   9.481
 4523WAT      O13810   2.813   6.180   1.146
 4523WAT     H113811   2.799   6.143   1.054
 4523WAT     H213812   2.865   6.266   1.140
 4524WAT      O13813   1.478   3.023   9.712
 4524WAT     H113814   1.576   3.008   9.725
 4524WAT     H213815   1.433   2.936   9.691
 4525WAT      O13816   3.451   4.059   9.168
 4525WAT     H113817   3.372   4.095   9.118
 4525WAT     H213818   3.521   4.030   9.103
 4526WAT      O13819   3.177   2.094   1.160
 4526WAT     H113820   3.131   2.009   1.186
 4526WAT     H213821   3.126   2.140   1.088
 4527WAT      O13822   9.133   0.058   1.466
 4527WAT     H113823   9.047   0.031   1.508
 4527WAT     H213824   9.151  -0.001   1.387
 4528WAT      O13825   2.701   5.975   1.336
 4528WAT     H113826   2.688   5.882   1.372
 4528WAT     H213827   2.754   5.970   1.252
 4529WAT      O13828   0.179   9.083   0.061
 4529WAT     H113829   0.161   9.040   0.149
 4529WAT     H213830   0.109   9.055  -0.004
 4530WAT      O13831   2.419   1.375   9.467
 4530WAT     H113832   2.452   1.296   9.414
 4530WAT     H213833   2.320   1.380   9.460
 4531WAT      O13834   9.222   3.623   5.201
 4531WAT     H113835   9.318   3.648   5.190
 4531WAT     H213836   9.168   3.661   5.126
 4532WAT      O13837   6.316   0.884   6.491
 4532WAT     H113838   6.268   0.960   6.448
 4532WAT     H213839   6.393   0.919   6.544
 4533WAT      O13840   1.087   0.258   6.212
 4533WAT     H113841   0.989   0.243   6.224
 4533WAT     H213842   1.138   0.199   6.275
 4534WAT      O13843   5.691   0.625   7.105
 4534WAT     H113844   5.628   0.670   7.041
 4534WAT     H213845   5.696   0.677   7.190
 4535WAT      O13846   0.060   1.381   0.874
 4535WAT     H113847   0.019   1.291   0.862
 4535WAT     H213848   0.053   1.433   0.788
 4536WAT      O13849   2.979   4.386   5.211
 4536WAT     H113850   2.883   4.361   5.199
 4536WAT     H213851   3.031   4.304   5.234
 4537WAT      O13852   0.339   3.459   1.850
 4537WAT     H113853   0.327   3.436   1.753
 4537WAT     H213854   0.253   3.444   1.899
 4538WAT      O13855   5.786   6.765   7.722
 4538WAT     H113856   5.789   6.865   7.733
 4538WAT     H213857   5.787   6.722   7.813
 4539WAT      O13858   1.383   4.533   6.115
 4539WAT     H113859   1.459   4.513   6.177
 4539WAT     H213860   1.301   4.554   6.168
 4540WAT      O13861   4.824   9.632   4.871
 4540WAT     H113862   4.911   9.677   4.853
 4540WAT     H213863   4.749   9.692   4.845
 4541WAT      O13864   7.865   2.776   5.055
 4541WAT     H113865   7.823   2.866   5.044
 4541WAT     H213866   7.910   2.770   5.145
 4542WAT      O13867   7.354   7.472   0.019
 4542WAT     H113868   7.349   7.534  -0.059
 4542WAT     H213869   7.368   7.378  -0.014
 4543WAT      O13870   8.480   5.527   5.416
 4543WAT     H113871   8.500   5.441   5.464
 4543WAT     H213872   8.565   5.578   5.402
 4544WAT      O13873   5.506   5.216   3.317
 4544WAT     H113874   5.476   5.184   3.407
 4544WAT     H213875   5.501   5.315   3.314
 4545WAT      O13876   5.960   4.757   5.553
 4545WAT     H113877   5.941   4.709   5.468
 4545WAT     H213878   5.875   4.790   5.593
 4546WAT      O13879   9.197   4.262   3.052
 4546WAT     H113880   9.128   4.190   3.043
 4546WAT     H213881   9.239   4.258   3.142
 4547WAT      O13882   1.398   4.751   8.848
 4547WAT     H113883   1.323   4.712   8.794
 4547WAT     H213884   1.439   4.680   8.905
 4548WAT      O13885   2.199   1.653   5.608
 4548WAT     H113886   2.235   1.698   5.690
 4548WAT     H213887   2.109   1.616   5.628
 4549WAT      O13888   4.481   0.193   6.286
 4549WAT     H113889   4.389   0.182   6.324
 4549WAT     H213890   4.477   0.181   6.187
 4550WAT      O13891   1.417   1.647   2.392
 4550WAT     H113892   1.417   1.590   2.474
 4550WAT     H213893   1.506   1.692   2.384
 4551WAT      O13894   5.286   8.833   8.715
 4551WAT     H113895   5.278   8.811   8.813
 4551WAT     H213896   5.344   8.914   8.704
 4552WAT      O13897   0.453   7.768   4.847
 4552WAT     H113898   0.496   7.834   4.785
 4552WAT     H213899   0.469   7.676   4.813
 4553WAT      O13900   0.971   8.457   7.250
 4553WAT     H113901   0.886   8.454   7.303
 4553WAT     H213902   0.994   8.364   7.219
 4554WAT      O13903   0.691   5.351   0.317
 4554WAT     H113904   0.686   5.451   0.315
 4554WAT     H213905   0.733   5.321   0.402
 4555WAT      O13906   1.197   3.479   0.911
 4555WAT     H113907   1.099   3.475   0.889
 4555WAT     H213908   1.230   3.572   0.893
 4556WAT      O13909   7.176   7.507   1.041
 4556WAT     H113910   7.251   7.445   1.022
 4556WAT     H213911   7.156   7.507   1.139
 4557WAT      O13912   2.966   9.821   3.311
 4557WAT     H113913   3.052   9.794   3.355
 4557WAT     H213914   2.940   9.913   3.340
 4558WAT      O13915   8.547   5.564   6.509
 4558WAT     H113916   8.500   5.513   6.581
 4558WAT     H213917   8.575   5.502   6.436
 4559WAT      O13918   5.117   3.979   1.154
 4559WAT     H113919   5.155   3.918   1.084
 4559WAT     H213920   5.124   4.073   1.123
 4560WAT      O13921   7.066   0.495   2.251
 4560WAT     H113922   7.017   0.508   2.165
 4560WAT     H213923   7.068   0.397   2.274
 4561WAT      O13924   6.008   8.920   4.261
 4561WAT     H113925   6.101   8.902   4.293
 4561WAT     H213926   6.009   8.935   4.162
 4562WAT      O13927   3.560   2.349   8.084
 4562WAT     H113928   3.596   2.362   7.992
 4562WAT     H213929   3.627   2.297   8.138
 4563WAT      O13930   7.954   2.340   2.842
 4563WAT     H113931   7.915   2.314   2.753
 4563WAT     H213932   7.953   2.262   2.903
 4564WAT      O13933   4.385   6.437   1.249
 4564WAT     H113934   4.386   6.527   1.292
 4564WAT     H213935   4.472   6.390   1.266
 4565WAT      O13936   2.952   6.520   3.514
 4565WAT     H113937   2.904   6.598   3.555
 4565WAT     H213938   2.886   6.456   3.476
 4566WAT      O13939   1.542   1.489   1.230
 4566WAT     H113940   1.467   1.475   1.294
 4566WAT     H213941   1.535   1.581   1.190
 4567WAT      O13942   6.917   3.345   3.115
 4567WAT     H113943   6.926   3.246   3.122
 4567WAT     H213944   6.998   3.383   3.071
 4568WAT      O13945   9.504   1.131   7.971
 4568WAT     H113946   9.426   1.171   8.020
 4568WAT     H213947   9.588   1.179   7.997
 4569WAT      O13948   2.590   6.512   1.050
 4569WAT     H113949   2.521   6.566   1.098
 4569WAT     H213950   2.595   6.421   1.090
 4570WAT      O13951   9.533   5.166   1.880
 4570WAT     H113952   9.573   5.191   1.969
 4570WAT     H213953   9.520   5.247   1.825
 4571WAT      O13954   2.444   9.202   1.840
 4571WAT     H113955   2.384   9.200   1.920
 4571WAT     H213956   2.524   9.258   1.860
 4572WAT      O13957   6.471   9.155   5.465
 4572WAT     H113958   6.566   9.159   5.495
 4572WAT     H213959   6.423   9.237   5.496
 4573WAT      O13960   6.194   1.815   2.239
 4573WAT     H113961   6.279   1.763   2.226
 4573WAT     H213962   6.194   1.893   2.176
 4574WAT      O13963   0.209   0.738   2.776
 4574WAT     H113964   0.206   0.679   2.695
 4574WAT     H213965   0.210   0.681   2.858
 4575WAT      O13966   4.901   6.486   2.933
 4575WAT     H113967   4.875   6.576   2.968
 4575WAT     H213968   4.830   6.419   2.956
 4576WAT      O13969   7.772   0.459   9.756
 4576WAT     H113970   7.779   0.459   9.856
 4576WAT     H213971   7.686   0.501   9.728
 4577WAT      O13972   8.864   0.620   1.290
 4577WAT     H113973   8.783   0.627   1.232
 4577WAT     H213974   8.920   0.542   1.261
 4578WAT      O13975   4.281   1.169   2.995
 4578WAT     H113976   4.270   1.084   3.045
 4578WAT     H213977   4.210   1.234   3.022
 4579WAT      O13978   3.305   1.933   8.235
 4579WAT     H113979   3.289   2.012   8.295
 4579WAT     H213980   3.217   1.901   8.198
 4580WAT      O13981   1.444   0.952   9.156
 4580WAT     H113982   1.399   1.034   9.120
 4580WAT     H213983   1.446   0.955   9.255
 4581WAT      O13984   4.729   6.541   1.131
 4581WAT     H113985   4.684   6.625   1.103
 4581WAT     H213986   4.790   6.559   1.209
 4582WAT      O13987   2.196   8.537   7.618
 4582WAT     H113988   2.191   8.637   7.623
 4582WAT     H213989   2.105   8.498   7.631
 4583WAT      O13990   1.761   2.578   7.030
 4583WAT     H113991   1.809   2.624   7.104
 4583WAT     H213992   1.726   2.646   6.965
 4584WAT      O13993   6.165   6.326   3.085
 4584WAT     H113994   6.087   6.268   3.059
 4584WAT     H213995   6.131   6.411   3.126
 4585WAT      O13996   7.598   4.182   9.244
 4585WAT     H113997   7.528   4.218   9.307
 4585WAT     H213998   7.674   4.145   9.297
 4586WAT      O13999   9.557   6.442   0.194
 4586WAT     H114000   9.482   6.507   0.182
 4586WAT     H214001   9.523   6.349   0.182
 4587WAT      O14002   9.004   3.615   8.743
 4587WAT     H114003   9.089   3.609   8.690
 4587WAT     H214004   9.005   3.699   8.797
 4588WAT      O14005   6.881   4.220   0.480
 4588WAT     H114006   6.783   4.235   0.474
 4588WAT     H214007   6.925   4.301   0.518
 4589WAT      O14008   4.393   7.957   0.903
 4589WAT     H114009   4.300   7.994   0.911
 4589WAT     H214010   4.413   7.900   0.982
 4590WAT      O14011   7.097   0.834   4.530
 4590WAT     H114012   7.132   0.746   4.499
 4590WAT     H214013   7.152   0.908   4.492
 4591WAT      O14014   3.589   9.038   0.892
 4591WAT     H114015   3.575   8.967   0.824
 4591WAT     H214016   3.504   9.055   0.941
 4592WAT      O14017   6.136   0.219   1.739
 4592WAT     H114018   6.198   0.259   1.672
 4592WAT     H214019   6.042   0.242   1.716
 4593WAT      O14020   7.968   4.565   1.068
 4593WAT     H114021   7.903   4.595   1.139
 4593WAT     H214022   8.003   4.646   1.020
 4594WAT      O14023   5.291   8.372   7.571
 4594WAT     H114024   5.357   8.379   7.496
 4594WAT     H214025   5.266   8.276   7.584
 4595WAT      O14026   7.097   5.390   3.598
 4595WAT     H114027   7.098   5.290   3.606
 4595WAT     H214028   7.009   5.425   3.629
 4596WAT      O14029   8.026   1.909   2.478
 4596WAT     H114030   8.031   1.877   2.572
 4596WAT     H214031   8.111   1.887   2.430
 4597WAT      O14032   7.074   9.498   6.320
 4597WAT     H114033   7.149   9.460   6.373
 4597WAT     H214034   7.003   9.429   6.306
 4598WAT      O14035   6.915   2.994   4.470
 4598WAT     H114036   6.816   2.985   4.466
 4598WAT     H214037   6.940   3.073   4.525
 4599WAT      O14038   5.995   7.464   9.636
 4599WAT     H114039   5.940   7.541   9.669
 4599WAT     H214040   6.034   7.486   9.547
 4600WAT      O14041   5.653   0.734   9.434
 4600WAT     H114042   5.707   0.815   9.457
 4600WAT     H214043   5.557   0.751   9.453
 4601WAT      O14044   0.468   3.484   1.108
 4601WAT     H114045   0.422   3.460   1.022
 4601WAT     H214046   0.479   3.401   1.163
 4602WAT      O14047   2.491   2.025   3.358
 4602WAT     H114048   2.566   1.961   3.340
 4602WAT     H214049   2.448   2.001   3.445
 4603WAT      O14050   9.636   2.763   3.571
 4603WAT     H114051   9.564   2.798   3.631
 4603WAT     H214052   9.609   2.774   3.476
 4604WAT      O14053   3.741   7.120   8.799
 4604WAT     H114054   3.841   7.131   8.798
 4604WAT     H214055   3.698   7.209   8.816
 4605WAT      O14056   9.644   4.341   5.628
 4605WAT     H114057   9.740   4.368   5.622
 4605WAT     H214058   9.612   4.351   5.722
 4606WAT      O14059   4.396   5.797   5.508
 4606WAT     H114060   4.305   5.820   5.542
 4606WAT     H214061   4.462   5.864   5.542
 4607WAT      O14062   3.061   0.386   5.189
 4607WAT     H114063   3.106   0.313   5.239
 4607WAT     H214064   2.984   0.348   5.137
 4608WAT      O14065   7.593   3.087   7.307
 4608WAT     H114066   7.665   3.152   7.330
 4608WAT     H214067   7.603   3.059   7.212
 4609WAT      O14068   0.599   5.411   7.936
 4609WAT     H114069   0.684   5.449   7.972
 4609WAT     H214070   0.596   5.313   7.954
 4610WAT      O14071   9.542   5.891   4.818
 4610WAT     H114072   9.455   5.886   4.868
 4610WAT     H214073   9.528   5.939   4.731
 4611WAT      O14074   6.281   7.231   1.373
 4611WAT     H114075   6.366   7.181   1.355
 4611WAT     H214076   6.298   7.302   1.441
 4612WAT      O14077   8.191   9.490   9.292
 4612WAT     H114078   8.162   9.402   9.331
 4612WAT     H214079   8.230   9.474   9.202
 4613WAT      O14080   2.765   6.723   3.997
 4613WAT     H114081   2.824   6.643   4.009
 4613WAT     H214082   2.677   6.706   4.040
 4614WAT      O14083   1.902   2.665   6.455
 4614WAT     H114084   1.905   2.717   6.541
 4614WAT     H214085   1.963   2.709   6.388
 4615WAT      O14086   0.119   0.257   5.945
 4615WAT     H114087   0.060   0.293   6.017
 4615WAT     H214088   0.175   0.331   5.907
 4616WAT      O14089   2.230   1.848   9.281
 4616WAT     H114090   2.277   1.840   9.193
 4616WAT     H214091   2.141   1.891   9.268
 4617WAT      O14092   8.543   3.627   7.851
 4617WAT     H114093   8.516   3.539   7.891
 4617WAT     H214094   8.465   3.689   7.853
 4618WAT      O14095   3.391   1.201   2.268
 4618WAT     H114096   3.457   1.252   2.214
 4618WAT     H214097   3.314   1.260   2.292
 4619WAT      O14098   6.146   6.001   6.696
 4619WAT     H114099   6.170   5.939   6.770
 4619WAT     H214100   6.067   6.056   6.723
 4620WAT      O14101   8.831   4.992   0.756
 4620WAT     H114102   8.770   5.013   0.679
 4620WAT     H214103   8.912   5.052   0.752
 4621WAT      O14104   4.459   3.860   3.357
 4621WAT     H114105   4.488   3.778   3.307
 4621WAT     H214106   4.519   3.872   3.437
 4622WAT      O14107   6.658   5.248   9.380
 4622WAT     H114108   6.668   5.317   9.308
 4622WAT     H214109   6.715   5.169   9.359
 4623WAT      O14110   8.330   1.039   0.172
 4623WAT     H114111   8.295   1.097   0.245
 4623WAT     H214112   8.284   1.061   0.087
 4624WAT      O14113   6.160   4.740   3.756
 4624WAT     H114114   6.149   4.837   3.776
 4624WAT     H214115   6.192   4.692   3.838
 4625WAT      O14116   5.248   5.161   8.821
 4625WAT     H114117   5.331   5.108   8.806
 4625WAT     H214118   5.230   5.219   8.741
 4626WAT      O14119   3.060   6.336   4.879
 4626WAT     H114120   3.019   6.419   4.917
 4626WAT     H214121   2.993   6.262   4.881
 4627WAT      O14122   0.384   4.688   0.736
 4627WAT     H114123   0.292   4.655   0.714
 4627WAT     H214124   0.391   4.785   0.712
 4628WAT      O14125   9.246   3.600   9.428
 4628WAT     H114126   9.344   3.607   9.450
 4628WAT     H214127   9.229   3.641   9.339
 4629WAT      O14128   4.776   5.992   4.452
 4629WAT     H114129   4.740   5.914   4.400
 4629WAT     H214130   4.700   6.044   4.490
 4630WAT      O14131   7.826   2.412   7.150
 4630WAT     H114132   7.738   2.366   7.154
 4630WAT     H214133   7.833   2.462   7.064
 4631WAT      O14134   8.768   9.583   8.684
 4631WAT     H114135   8.835   9.509   8.690
 4631WAT     H214136   8.779   9.645   8.761
 4632WAT      O14137   4.908   0.688   5.382
 4632WAT     H114138   4.944   0.594   5.377
 4632WAT     H214139   4.808   0.684   5.393
 4633WAT      O14140   0.726   6.615   0.995
 4633WAT     H114141   0.690   6.707   1.010
 4633WAT     H214142   0.650   6.551   0.985
 4634WAT      O14143   0.692   6.803   9.175
 4634WAT     H114144   0.743   6.718   9.188
 4634WAT     H214145   0.718   6.869   9.246
 4635WAT      O14146   2.934   4.964   7.217
 4635WAT     H114147   2.930   4.935   7.313
 4635WAT     H214148   3.014   5.022   7.203
 4636WAT      O14149   2.731   6.558   6.645
 4636WAT     H114150   2.759   6.528   6.554
 4636WAT     H214151   2.724   6.478   6.706
 4637WAT      O14152   8.608   1.659   6.829
 4637WAT     H114153   8.607   1.757   6.851
 4637WAT     H214154   8.696   1.635   6.788
 4638WAT      O14155   9.059   7.269   4.118
 4638WAT     H114156   9.055   7.245   4.021
 4638WAT     H214157   9.147   7.313   4.138
 4639WAT      O14158   3.882   8.711   0.988
 4639WAT     H114159   3.833   8.662   1.060
 4639WAT     H214160   3.980   8.714   1.010
 4640WAT      O14161   3.963   1.818   1.702
 4640WAT     H114162   4.017   1.799   1.784
 4640WAT     H214163   3.903   1.740   1.682
 4641WAT      O14164   2.161   9.618   5.133
 4641WAT     H114165   2.128   9.647   5.223
 4641WAT     H214166   2.192   9.523   5.137
 4642WAT      O14167   9.250   4.039   7.257
 4642WAT     H114168   9.180   4.024   7.188
 4642WAT     H214169   9.271   3.953   7.304
 4643WAT      O14170   6.107   5.503   8.811
 4643WAT     H114171   6.130   5.419   8.861
 4643WAT     H214172   6.099   5.579   8.875
 4644WAT      O14173   6.018   8.963   1.771
 4644WAT     H114174   5.946   9.021   1.809
 4644WAT     H214175   5.978   8.877   1.740
 4645WAT      O14176   4.165   4.818   5.899
 4645WAT     H114177   4.135   4.887   5.833
 4645WAT     H214178   4.108   4.822   5.980
 4646WAT      O14179   8.232   2.918   0.159
 4646WAT     H114180   8.235   3.017   0.146
 4646WAT     H214181   8.227   2.898   0.257
 4647WAT      O14182   3.942   3.949   4.621
 4647WAT     H114183   3.912   3.891   4.696
 4647WAT     H214184   4.028   3.914   4.584
 4648WAT      O14185   8.925   5.813   5.848
 4648WAT     H114186   8.857   5.769   5.907
 4648WAT     H214187   8.953   5.900   5.888
 4649WAT      O14188   5.714   9.139   9.388
 4649WAT     H114189   5.682   9.046   9.402
 4649WAT     H214190   5.722   9.185   9.477
 4650WAT      O14191   8.776   3.478   4.766
 4650WAT     H114192   8.694   3.460   4.712
 4650WAT     H214193   8.812   3.569   4.743
 4651WAT      O14194   8.218   5.351   6.685
 4651WAT     H114195   8.268   5.436   6.701
 4651WAT     H214196   8.282   5.274   6.693
 4652WAT      O14197   5.328   6.897   4.304
 4652WAT     H114198   5.257   6.873   4.371
 4652WAT     H214199   5.330   6.996   4.292
 4653WAT      O14200   6.216   4.795   8.402
 4653WAT     H114201   6.126   4.821   8.437
 4653WAT     H214202   6.214   4.699   8.374
 4654WAT      O14203   9.406   4.580   7.006
 4654WAT     H114204   9.396   4.645   6.931
 4654WAT     H214205   9.501   4.552   7.014
 4655WAT      O14206   6.813   5.591   7.751
 4655WAT     H114207   6.724   5.605   7.708
 4655WAT     H214208   6.804   5.524   7.824
 4656WAT      O14209   6.809   1.190   8.825
 4656WAT     H114210   6.799   1.167   8.922
 4656WAT     H214211   6.807   1.289   8.814
 4657WAT      O14212   9.712   2.305   0.276
 4657WAT     H114213   9.764   2.390   0.278
 4657WAT     H214214   9.702   2.273   0.181
 4658WAT      O14215   2.695   3.209   1.717
 4658WAT     H114216   2.653   3.300   1.708
 4658WAT     H214217   2.704   3.168   1.626
 4659WAT      O14218   7.941   7.835   3.684
 4659WAT     H114219   8.029   7.861   3.725
 4659WAT     H214220   7.878   7.913   3.689
 4660WAT      O14221   4.723   0.230   0.903
 4660WAT     H114222   4.717   0.306   0.839
 4660WAT     H214223   4.816   0.224   0.939
 4661WAT      O14224   1.297   4.426   8.648
 4661WAT     H114225   1.265   4.340   8.607
 4661WAT     H214226   1.303   4.415   8.747
 4662WAT      O14227   0.117   1.936   6.301
 4662WAT     H114228   0.049   2.008   6.307
 4662WAT     H214229   0.185   1.947   6.374
 4663WAT      O14230   3.032   0.673   7.289
 4663WAT     H114231   3.051   0.632   7.378
 4663WAT     H214232   3.015   0.601   7.221
 4664WAT      O14233   6.598   0.990   6.569
 4664WAT     H114234   6.644   0.917   6.518
 4664WAT     H214235   6.585   0.961   6.664
 4665WAT      O14236   8.203   5.075   9.382
 4665WAT     H114237   8.262   5.091   9.303
 4665WAT     H214238   8.174   4.979   9.382
 4666WAT      O14239   1.123   3.767   9.829
 4666WAT     H114240   1.175   3.728   9.754
 4666WAT     H214241   1.185   3.798   9.901
 4667WAT      O14242   7.441   6.565   8.504
 4667WAT     H114243   7.358   6.564   8.447
 4667WAT     H214244   7.494   6.483   8.486
 4668WAT      O14245   5.478   2.543   7.345
 4668WAT     H114246   5.477   2.491   7.430
 4668WAT     H214247   5.387   2.539   7.302
 4669WAT      O14248   4.003   7.464   8.573
 4669WAT     H114249   3.998   7.364   8.567
 4669WAT     H214250   3.992   7.503   8.482
 4670WAT      O14251   8.521   4.213   8.824
 4670WAT     H114252   8.510   4.184   8.729
 4670WAT     H214253   8.515   4.134   8.884
 4671WAT      O14254   8.123   4.219   1.297
 4671WAT     H114255   8.170   4.167   1.368
 4671WAT     H214256   8.061   4.285   1.339
 4672WAT      O14257   8.167   0.588   1.724
 4672WAT     H114258   8.193   0.671   1.675
 4672WAT     H214259   8.242   0.522   1.722
 4673WAT      O14260   7.083   5.574   0.858
 4673WAT     H114261   7.085   5.643   0.785
 4673WAT     H214262   7.172   5.528   0.863
 4674WAT      O14263   0.419   3.461   8.005
 4674WAT     H114264   0.338   3.515   7.981
 4674WAT     H214265   0.437   3.395   7.933
 4675WAT      O14266   0.527   4.828   8.892
 4675WAT     H114267   0.456   4.803   8.958
 4675WAT     H214268   0.605   4.767   8.903
 4676WAT      O14269   1.996   3.739   9.577
 4676WAT     H114270   2.014   3.827   9.623
 4676WAT     H214271   2.071   3.675   9.596
 4677WAT      O14272   2.692   7.333   7.808
 4677WAT     H114273   2.722   7.253   7.860
 4677WAT     H214274   2.751   7.345   7.728
 4678WAT      O14275   0.012   7.189   6.872
 4678WAT     H114276   0.048   7.281   6.882
 4678WAT     H214277  -0.011   7.172   6.776
 4679WAT      O14278   0.955   7.718   5.888
 4679WAT     H114279   0.944   7.815   5.910
 4679WAT     H214280   1.018   7.676   5.953
 4680WAT      O14281   6.324   9.415   5.484
 4680WAT     H114282   6.323   9.431   5.582
 4680WAT     H214283   6.369   9.491   5.437
 4681WAT      O14284   0.968   8.076   7.535
 4681WAT     H114285   0.884   8.053   7.585
 4681WAT     H214286   1.013   7.992   7.505
 4682WAT      O14287   9.151   5.581   7.289
 4682WAT     H114288   9.177   5.485   7.297
 4682WAT     H214289   9.234   5.637   7.288
 4683WAT      O14290   1.552   7.199   5.895
 4683WAT     H114291   1.637   7.246   5.920
 4683WAT     H214292   1.474   7.255   5.925
 4684WAT      O14293   6.502   1.801   9.576
 4684WAT     H114294   6.495   1.880   9.515
 4684WAT     H214295   6.589   1.807   9.626
 4685WAT      O14296   0.152   4.003   6.020
 4685WAT     H114297   0.054   4.026   6.017
 4685WAT     H214298   0.204   4.074   5.974
 4686WAT      O14299   4.135   8.325   7.661
 4686WAT     H114300   4.115   8.403   7.602
 4686WAT     H214301   4.132   8.241   7.606
 4687WAT      O14302   3.197   0.082   4.257
 4687WAT     H114303   3.183   0.041   4.347
 4687WAT     H214304   3.281   0.046   4.216
 4688WAT      O14305   4.099   9.695   8.384
 4688WAT     H114306   4.010   9.659   8.359
 4688WAT     H214307   4.161   9.690   8.306
 4689WAT      O14308   3.023   2.890   1.890
 4689WAT     H114309   2.966   2.899   1.808
 4689WAT     H214310   3.050   2.981   1.922
 4690WAT      O14311   9.190   0.150   7.123
 4690WAT     H114312   9.162   0.242   7.149
 4690WAT     H214313   9.290   0.142   7.130
 4691WAT      O14314   4.096   1.053   3.958
 4691WAT     H114315   4.008   1.074   4.000
 4691WAT     H214316   4.157   1.014   4.027
 4692WAT      O14317   1.469   0.054   4.097
 4692WAT     H114318   1.444   0.144   4.130
 4692WAT     H214319   1.469   0.053   3.997
 4693WAT      O14320   3.706   6.831   0.036
 4693WAT     H114321   3.637   6.822  -0.036
 4693WAT     H214322   3.679   6.903   0.099
 4694WAT      O14323   7.472   9.535   5.956
 4694WAT     H114324   7.565   9.525   5.921
 4694WAT     H214325   7.474   9.530   6.056
 4695WAT      O14326   6.560   8.145   2.314
 4695WAT     H114327   6.540   8.236   2.276
 4695WAT     H214328   6.507   8.076   2.265
 4696WAT      O14329   9.207   5.235   9.635
 4696WAT     H114330   9.164   5.165   9.578
 4696WAT     H214331   9.187   5.326   9.597
 4697WAT      O14332   8.376   7.726   1.301
 4697WAT     H114333   8.343   7.806   1.351
 4697WAT     H214334   8.351   7.734   1.204
 4698WAT      O14335   3.122   4.692   6.057
 4698WAT     H114336   3.163   4.736   6.137
 4698WAT     H214337   3.022   4.697   6.064
 4699WAT      O14338   3.020   3.063   7.988
 4699WAT     H114339   3.010   2.965   8.005
 4699WAT     H214340   2.969   3.088   7.906
 4700WAT      O14341   1.758   6.550   3.846
 4700WAT     H114342   1.710   6.474   3.802
 4700WAT     H214343   1.691   6.619   3.873
 4701WAT      O14344   0.568   4.337   9.774
 4701WAT     H114345   0.579   4.254   9.829
 4701WAT     H214346   0.472   4.366   9.779
 4702WAT      O14347   4.140   3.982   1.667
 4702WAT     H114348   4.069   3.988   1.738
 4702WAT     H214349   4.181   4.072   1.654
 4703WAT      O14350   4.649   6.491   2.370
 4703WAT     H114351   4.562   6.442   2.375
 4703WAT     H214352   4.722   6.434   2.407
 4704WAT      O14353   8.864   6.349   1.609
 4704WAT     H114354   8.799   6.369   1.683
 4704WAT     H214355   8.843   6.259   1.571
 4705WAT      O14356   2.488   5.761   3.683
 4705WAT     H114357   2.498   5.763   3.584
 4705WAT     H214358   2.500   5.667   3.716
 4706WAT      O14359   0.487   2.273   8.580
 4706WAT     H114360   0.409   2.225   8.539
 4706WAT     H214361   0.566   2.213   8.582
 4707WAT      O14362   2.142   1.378   4.548
 4707WAT     H114363   2.168   1.383   4.645
 4707WAT     H214364   2.048   1.412   4.537
 4708WAT      O14365   2.244   0.817   4.744
 4708WAT     H114366   2.198   0.729   4.753
 4708WAT     H214367   2.325   0.818   4.803
 4709WAT      O14368   3.448   4.373   4.270
 4709WAT     H114369   3.519   4.357   4.203
 4709WAT     H214370   3.490   4.386   4.361
 4710WAT      O14371   4.395   0.398   4.539
 4710WAT     H114372   4.304   0.359   4.527
 4710WAT     H214373   4.417   0.456   4.460
 4711WAT      O14374   2.708   8.797   9.690
 4711WAT     H114375   2.677   8.826   9.780
 4711WAT     H214376   2.775   8.862   9.654
 4712WAT      O14377   5.894   8.235   5.286
 4712WAT     H114378   5.941   8.294   5.351
 4712WAT     H214379   5.899   8.275   5.194
 4713WAT      O14380   1.348   5.124   3.987
 4713WAT     H114381   1.256   5.096   3.960
 4713WAT     H214382   1.392   5.050   4.037
 4714WAT      O14383   0.572   2.408   8.164
 4714WAT     H114384   0.504   2.444   8.099
 4714WAT     H214385   0.663   2.412   8.122
 4715WAT      O14386   5.368   4.748   3.204
 4715WAT     H114387   5.383   4.655   3.236
 4715WAT     H214388   5.453   4.800   3.210
 4716WAT      O14389   3.150   5.995   4.662
 4716WAT     H114390   3.183   5.914   4.613
 4716WAT     H214391   3.146   5.975   4.760
 4717WAT      O14392   9.831   7.461   0.203
 4717WAT     H114393   9.907   7.473   0.140
 4717WAT     H214394   9.857   7.493   0.294
 4718WAT      O14395   4.356   7.013   0.352
 4718WAT     H114396   4.452   7.036   0.332
 4718WAT     H214397   4.338   7.030   0.449
 4719WAT      O14398   9.252   1.435   8.074
 4719WAT     H114399   9.232   1.337   8.075
 4719WAT     H214400   9.189   1.482   8.012
 4720WAT      O14401   9.386   9.335   0.057
 4720WAT     H114402   9.463   9.392   0.029
 4720WAT     H214403   9.303   9.391   0.062
 4721WAT      O14404   8.391   7.453   8.214
 4721WAT     H114405   8.369   7.549   8.196
 4721WAT     H214406   8.360   7.429   8.306
 4722WAT      O14407   5.862   9.744   9.472
 4722WAT     H114408   5.889   9.651   9.445
 4722WAT     H214409   5.908   9.810   9.412
 4723WAT      O14410   7.478   4.884   1.255
 4723WAT     H114411   7.546   4.862   1.186
 4723WAT     H214412   7.488   4.980   1.282
 4724WAT      O14413   4.998   9.243   2.408
 4724WAT     H114414   4.973   9.219   2.314
 4724WAT     H214415   4.944   9.322   2.438
 4725WAT      O14416   7.901   3.959   6.075
 4725WAT     H114417   7.987   3.979   6.028
 4725WAT     H214418   7.906   3.869   6.117
 4726WAT      O14419   8.537   8.467   2.802
 4726WAT     H114420   8.552   8.371   2.782
 4726WAT     H214421   8.578   8.489   2.891
 4727WAT      O14422   0.570   9.552   9.348
 4727WAT     H114423   0.556   9.534   9.250
 4727WAT     H214424   0.662   9.522   9.374
 4728WAT      O14425   0.721   9.557   1.473
 4728WAT     H114426   0.739   9.458   1.465
 4728WAT     H214427   0.684   9.577   1.564
 4729WAT      O14428   4.846   6.246   6.633
 4729WAT     H114429   4.918   6.292   6.684
 4729WAT     H214430   4.795   6.312   6.579
 4730WAT      O14431   8.364   8.703   1.708
 4730WAT     H114432   8.299   8.716   1.783
 4730WAT     H214433   8.315   8.705   1.621
 4731WAT      O14434   0.645   5.019   1.435
 4731WAT     H114435   0.639   4.941   1.498
 4731WAT     H214436   0.707   4.997   1.360
 4732WAT      O14437   8.692   2.314   4.959
 4732WAT     H114438   8.619   2.378   4.983
 4732WAT     H214439   8.718   2.329   4.863
 4733WAT      O14440   7.865   0.400   2.701
 4733WAT     H114441   7.781   0.454   2.707
 4733WAT     H214442   7.905   0.391   2.793
 4734WAT      O14443   3.986   1.219   7.278
 4734WAT     H114444   3.996   1.207   7.179
 4734WAT     H214445   4.064   1.177   7.325
 4735WAT      O14446   0.614   2.547   0.923
 4735WAT     H114447   0.610   2.609   0.844
 4735WAT     H214448   0.589   2.455   0.894
 4736WAT      O14449   0.822   0.240   6.285
 4736WAT     H114450   0.731   0.209   6.312
 4736WAT     H214451   0.861   0.297   6.358
 4737WAT      O14452   9.662   6.355   6.505
 4737WAT     H114453   9.735   6.291   6.480
 4737WAT     H214454   9.582   6.304   6.537
 4738WAT      O14455   6.837   5.209   0.310
 4738WAT     H114456   6.849   5.163   0.398
 4738WAT     H214457   6.791   5.297   0.323
 4739WAT      O14458   8.834   1.113   8.108
 4739WAT     H114459   8.880   1.068   8.184
 4739WAT     H214460   8.900   1.169   8.058
 4740WAT      O14461   8.855   3.941   5.401
 4740WAT     H114462   8.833   3.949   5.498
 4740WAT     H214463   8.806   3.863   5.363
 4741WAT      O14464   8.475   1.448   0.650
 4741WAT     H114465   8.567   1.423   0.677
 4741WAT     H214466   8.478   1.501   0.565
 4742WAT      O14467   9.018   5.801   8.888
 4742WAT     H114468   9.057   5.753   8.967
 4742WAT     H214469   8.923   5.826   8.908
 4743WAT      O14470   4.481   0.100   6.021
 4743WAT     H114471   4.425   0.020   6.041
 4743WAT     H214472   4.564   0.072   5.974
 4744WAT      O14473   2.780   2.849   8.792
 4744WAT     H114474   2.864   2.880   8.837
 4744WAT     H214475   2.794   2.849   8.692
 4745WAT      O14476   8.198   6.219   6.775
 4745WAT     H114477   8.137   6.186   6.846
 4745WAT     H214478   8.259   6.146   6.746
 4746WAT      O14479   9.001   9.699   6.881
 4746WAT     H114480   8.961   9.644   6.808
 4746WAT     H214481   9.024   9.790   6.846
 4747WAT      O14482   6.867   2.034   8.429
 4747WAT     H114483   6.838   1.939   8.421
 4747WAT     H214484   6.822   2.088   8.357
 4748WAT      O14485   0.333   4.769   6.654
 4748WAT     H114486   0.310   4.754   6.750
 4748WAT     H214487   0.257   4.739   6.596
 4749WAT      O14488   4.965   4.390   6.545
 4749WAT     H114489   4.965   4.469   6.485
 4749WAT     H214490   4.953   4.420   6.640
 4750WAT      O14491   7.083   3.826   3.673
 4750WAT     H114492   7.062   3.870   3.760
 4750WAT     H214493   7.161   3.764   3.685
 4751WAT      O14494   1.706   6.242   5.936
 4751WAT     H114495   1.616   6.229   5.977
 4751WAT     H214496   1.722   6.169   5.869
 4752WAT      O14497   7.508   3.451   1.717
 4752WAT     H114498   7.501   3.532   1.776
 4752WAT     H214499   7.601   3.416   1.719
 4753WAT      O14500   8.652   4.787   4.226
 4753WAT     H114501   8.751   4.801   4.231
 4753WAT     H214502   8.631   4.690   4.231
 4754WAT      O14503   6.932   4.565   6.826
 4754WAT     H114504   7.010   4.599   6.772
 4754WAT     H214505   6.875   4.643   6.854
 4755WAT      O14506   0.546   1.768   1.060
 4755WAT     H114507   0.549   1.852   1.115
 4755WAT     H214508   0.613   1.703   1.095
 4756WAT      O14509   2.767   1.234   9.738
 4756WAT     H114510   2.789   1.172   9.662
 4756WAT     H214511   2.678   1.277   9.721
 4757WAT      O14512   8.659   0.024   4.374
 4757WAT     H114513   8.589  -0.040   4.344
 4757WAT     H214514   8.623   0.081   4.447
 4758WAT      O14515   9.429   0.678   9.516
 4758WAT     H114516   9.491   0.615   9.562
 4758WAT     H214517   9.423   0.763   9.567
 4759WAT      O14518   2.863   0.654   1.756
 4759WAT     H114519   2.933   0.585   1.740
 4759WAT     H214520   2.844   0.703   1.671
 4760WAT      O14521   5.736   9.611   9.155
 4760WAT     H114522   5.657   9.554   9.132
 4760WAT     H214523   5.783   9.640   9.071
 4761WAT      O14524   1.842   7.914   2.311
 4761WAT     H114525   1.762   7.854   2.318
 4761WAT     H214526   1.815   8.001   2.268
 4762WAT      O14527   9.427   9.206   1.745
 4762WAT     H114528   9.486   9.204   1.665
 4762WAT     H214529   9.465   9.268   1.814
 4763WAT      O14530   1.318   9.692   3.717
 4763WAT     H114531   1.407   9.646   3.717
 4763WAT     H214532   1.305   9.738   3.805
 4764WAT      O14533   6.523   2.196   5.843
 4764WAT     H114534   6.511   2.134   5.766
 4764WAT     H214535   6.467   2.278   5.830
 4765WAT      O14536   8.433   4.488   8.381
 4765WAT     H114537   8.480   4.555   8.438
 4765WAT     H214538   8.500   4.439   8.325
 4766WAT      O14539   8.713   2.377   7.139
 4766WAT     H114540   8.793   2.407   7.191
 4766WAT     H214541   8.632   2.426   7.172
 4767WAT      O14542   8.966   2.719   8.496
 4767WAT     H114543   9.006   2.632   8.468
 4767WAT     H214544   8.866   2.709   8.501
 4768WAT      O14545   2.627   1.187   7.620
 4768WAT     H114546   2.604   1.284   7.626
 4768WAT     H214547   2.722   1.177   7.590
 4769WAT      O14548   3.439   0.410   8.966
 4769WAT     H114549   3.465   0.330   9.020
 4769WAT     H214550   3.503   0.485   8.984
 4770WAT      O14551   4.749   1.518   0.211
 4770WAT     H114552   4.687   1.451   0.251
 4770WAT     H214553   4.727   1.530   0.114
 4771WAT      O14554   9.796   8.012   1.952
 4771WAT     H114555   9.775   8.052   1.863
 4771WAT     H214556   9.725   8.037   2.018
 4772WAT      O14557   6.889   7.378   1.629
 4772WAT     H114558   6.851   7.353   1.718
 4772WAT     H214559   6.922   7.296   1.583
 4773WAT      O14560   7.274   4.086   2.599
 4773WAT     H114561   7.201   4.066   2.664
 4773WAT     H214562   7.242   4.069   2.506
 4774WAT      O14563   4.398   5.913   7.637
 4774WAT     H114564   4.363   5.913   7.543
 4774WAT     H214565   4.480   5.969   7.643
 4775WAT      O14566   9.295   5.544   4.540
 4775WAT     H114567   9.322   5.530   4.636
 4775WAT     H214568   9.257   5.460   4.503
 4776WAT      O14569   7.717   5.040   0.058
 4776WAT     H114570   7.753   5.118   0.006
 4776WAT     H214571   7.705   4.962  -0.002
 4777WAT      O14572   8.204   4.132   9.061
 4777WAT     H114573   8.275   4.062   9.068
 4777WAT     H214574   8.213   4.180   8.974
 4778WAT      O14575   3.925   2.610   2.658
 4778WAT     H114576   3.987   2.666   2.603
 4778WAT     H214577   3.925   2.516   2.623
 4779WAT      O14578   7.291   7.133   0.493
 4779WAT     H114579   7.264   7.038   0.479
 4779WAT     H214580   7.228   7.176   0.557
 4780WAT      O14581   8.224   8.504   6.894
 4780WAT     H114582   8.150   8.437   6.887
 4780WAT     H214583   8.211   8.559   6.977
 4781WAT      O14584   2.653   9.777   6.718
 4781WAT     H114585   2.642   9.726   6.632
 4781WAT     H214586   2.730   9.840   6.709
 4782WAT      O14587   3.670   4.047   9.729
 4782WAT     H114588   3.686   3.977   9.660
 4782WAT     H214589   3.615   4.008   9.803
 4783WAT      O14590   1.077   5.774   5.266
 4783WAT     H114591   0.989   5.728   5.255
 4783WAT     H214592   1.088   5.843   5.194
 4784WAT      O14593   3.320   4.321   2.878
 4784WAT     H114594   3.391   4.375   2.833
 4784WAT     H214595   3.319   4.341   2.976
 4785WAT      O14596   2.744   8.301   1.101
 4785WAT     H114597   2.764   8.368   1.030
 4785WAT     H214598   2.824   8.243   1.116
 4786WAT      O14599   1.268   5.462   8.502
 4786WAT     H114600   1.346   5.512   8.540
 4786WAT     H214601   1.186   5.481   8.556
 4787WAT      O14602   5.420   7.193   5.350
 4787WAT     H114603   5.385   7.178   5.257
 4787WAT     H214604   5.346   7.225   5.408
 4788WAT      O14605   6.475   8.027   7.969
 4788WAT     H114606   6.375   8.023   7.971
 4788WAT     H214607   6.512   7.935   7.958
 4789WAT      O14608   5.965   2.819   3.199
 4789WAT     H114609   6.011   2.740   3.240
 4789WAT     H214610   5.964   2.808   3.099
 4790WAT      O14611   9.809   4.765   1.781
 4790WAT     H114612   9.783   4.693   1.717
 4790WAT     H214613   9.908   4.764   1.795
 4791WAT      O14614   2.473   3.641   3.297
 4791WAT     H114615   2.392   3.699   3.293
 4791WAT     H214616   2.550   3.693   3.334
 4792WAT      O14617   7.965   7.960   1.289
 4792WAT     H114618   7.971   7.862   1.272
 4792WAT     H214619   7.981   8.010   1.204
 4793WAT      O14620   5.159   5.162   3.381
 4793WAT     H114621   5.170   5.078   3.327
 4793WAT     H214622   5.230   5.167   3.450
 4794WAT      O14623   8.622   3.400   1.241
 4794WAT     H114624   8.564   3.482   1.241
 4794WAT     H214625   8.691   3.409   1.169
 4795WAT      O14626   9.164   6.591   0.504
 4795WAT     H114627   9.239   6.544   0.550
 4795WAT     H214628   9.145   6.677   0.551
 4796WAT      O14629   2.710   5.091   4.847
 4796WAT     H114630   2.634   5.089   4.783
 4796WAT     H214631   2.749   5.000   4.856
 4797WAT      O14632   6.361   5.664   4.903
 4797WAT     H114633   6.288   5.731   4.889
 4797WAT     H214634   6.338   5.580   4.854
 4798WAT      O14635   7.945   8.205   7.989
 4798WAT     H114636   7.870   8.218   8.054
 4798WAT     H214637   7.911   8.163   7.905
 4799WAT      O14638   5.408   7.214   7.785
 4799WAT     H114639   5.354   7.152   7.728
 4799WAT     H214640   5.402   7.185   7.881
 4800WAT      O14641   6.717   1.864   5.468
 4800WAT     H114642   6.775   1.787   5.443
 4800WAT     H214643   6.749   1.946   5.420
 4801WAT      O14644   5.070   0.362   6.807
 4801WAT     H114645   4.975   0.343   6.833
 4801WAT     H214646   5.082   0.341   6.709
 4802WAT      O14647   2.752   5.266   7.634
 4802WAT     H114648   2.754   5.278   7.733
 4802WAT     H214649   2.666   5.220   7.608
 4803WAT      O14650   0.978   2.927   7.199
 4803WAT     H114651   0.892   2.971   7.224
 4803WAT     H214652   1.055   2.981   7.233
 4804WAT      O14653   0.981   8.161   8.383
 4804WAT     H114654   1.077   8.162   8.409
 4804WAT     H214655   0.936   8.242   8.419
 4805WAT      O14656   5.962   2.569   6.866
 4805WAT     H114657   5.970   2.472   6.846
 4805WAT     H214658   5.981   2.622   6.784
 4806WAT      O14659   6.164   6.687   5.820
 4806WAT     H114660   6.101   6.676   5.897
 4806WAT     H214661   6.112   6.688   5.734
 4807WAT      O14662   2.544   1.723   7.821
 4807WAT     H114663   2.524   1.760   7.731
 4807WAT     H214664   2.459   1.703   7.869
 4808WAT      O14665   8.961   1.748   0.812
 4808WAT     H114666   9.027   1.680   0.779
 4808WAT     H214667   8.993   1.786   0.899
 4809WAT      O14668   1.481   5.624   9.080
 4809WAT     H114669   1.427   5.697   9.038
 4809WAT     H214670   1.433   5.590   9.161
 4810WAT      O14671   8.223   9.145   6.433
 4810WAT     H114672   8.191   9.051   6.445
 4810WAT     H214673   8.144   9.206   6.423
 4811WAT      O14674   4.755   2.615   2.521
 4811WAT     H114675   4.738   2.701   2.569
 4811WAT     H214676   4.804   2.633   2.436
 4812WAT      O14677   2.465   8.937   2.426
 4812WAT     H114678   2.366   8.920   2.426
 4812WAT     H214679   2.506   8.895   2.506
 4813WAT      O14680   7.411   2.335   6.295
 4813WAT     H114681   7.343   2.282   6.345
 4813WAT     H214682   7.368   2.417   6.256
 4814WAT      O14683   1.659   4.129   4.142
 4814WAT     H114684   1.571   4.108   4.185
 4814WAT     H214685   1.732   4.082   4.192
 4815WAT      O14686   4.111   6.228   5.455
 4815WAT     H114687   4.150   6.310   5.496
 4815WAT     H214688   4.115   6.235   5.355
 4816WAT      O14689   4.527   2.432   8.020
 4816WAT     H114690   4.471   2.354   7.990
 4816WAT     H214691   4.620   2.422   7.984
 4817WAT      O14692   3.447   1.669   5.094
 4817WAT     H114693   3.487   1.577   5.093
 4817WAT     H214694   3.361   1.668   5.144
 4818WAT      O14695   7.913   1.651   3.876
 4818WAT     H114696   7.917   1.600   3.790
 4818WAT     H214697   7.822   1.642   3.917
 4819WAT      O14698   2.748   5.015   0.820
 4819WAT     H114699   2.768   5.054   0.730
 4819WAT     H214700   2.802   5.063   0.890
 4820WAT      O14701   0.570   0.027   6.994
 4820WAT     H114702   0.616  -0.029   6.925
 4820WAT     H214703   0.635   0.092   7.033
 4821WAT      O14704   7.992   6.415   7.092
 4821WAT     H114705   7.925   6.412   7.166
 4821WAT     H214706   8.011   6.321   7.061
 4822WAT      O14707   9.003   3.881   3.824
 4822WAT     H114708   9.061   3.961   3.840
 4822WAT     H214709   8.907   3.909   3.826
 4823WAT      O14710   9.731   5.215   3.414
 4823WAT     H114711   9.675   5.232   3.494
 4823WAT     H214712   9.674   5.178   3.340
 4824WAT      O14713   9.813   1.711   3.720
 4824WAT     H114714   9.885   1.751   3.776
 4824WAT     H214715   9.782   1.626   3.761
 4825WAT      O14716   4.338   7.094   2.265
 4825WAT     H114717   4.438   7.098   2.261
 4825WAT     H214718   4.303   7.175   2.311
 4826WAT      O14719   3.768   3.979   1.092
 4826WAT     H114720   3.829   3.945   1.163
 4826WAT     H214721   3.748   3.906   1.027
 4827WAT      O14722   6.067   7.447   1.685
 4827WAT     H114723   6.069   7.479   1.780
 4827WAT     H214724   6.161   7.443   1.650
 4828WAT      O14725   7.916   9.486   9.741
 4828WAT     H114726   7.838   9.513   9.798
 4828WAT     H214727   7.884   9.465   9.649
 4829WAT      O14728   9.133   3.069   9.206
 4829WAT     H114729   9.223   3.107   9.183
 4829WAT     H214730   9.087   3.042   9.122
 4830WAT      O14731   8.946   0.274   7.893
 4830WAT     H114732   8.933   0.213   7.972
 4830WAT     H214733   8.868   0.265   7.831
 4831WAT      O14734   9.573   1.686   0.649
 4831WAT     H114735   9.521   1.673   0.733
 4831WAT     H214736   9.622   1.773   0.653
 4832WAT      O14737   6.253   9.308   1.084
 4832WAT     H114738   6.331   9.256   1.120
 4832WAT     H214739   6.168   9.268   1.116
 4833WAT      O14740   8.312   0.147   1.020
 4833WAT     H114741   8.297   0.187   1.110
 4833WAT     H214742   8.388   0.082   1.025
 4834WAT      O14743   1.167   7.866   8.152
 4834WAT     H114744   1.099   7.937   8.138
 4834WAT     H214745   1.217   7.851   8.066
 4835WAT      O14746   7.051   5.947   1.388
 4835WAT     H114747   7.143   5.984   1.400
 4835WAT     H214748   6.985   6.006   1.436
 4836WAT      O14749   6.772   9.805   8.362
 4836WAT     H114750   6.749   9.755   8.278
 4836WAT     H214751   6.780   9.741   8.438
 4837WAT      O14752   3.248   7.713   0.998
 4837WAT     H114753   3.225   7.805   0.965
 4837WAT     H214754   3.245   7.649   0.922
 4838WAT      O14755   4.695   8.555   8.030
 4838WAT     H114756   4.638   8.627   7.989
 4838WAT     H214757   4.781   8.548   7.979
 4839WAT      O14758   4.485   7.404   0.676
 4839WAT     H114759   4.398   7.433   0.716
 4839WAT     H214760   4.534   7.346   0.741
 4840WAT      O14761   2.841   9.103   9.299
 4840WAT     H114762   2.911   9.154   9.249
 4840WAT     H214763   2.780   9.167   9.345
 4841WAT      O14764   0.739   0.822   3.008
 4841WAT     H114765   0.786   0.902   3.045
 4841WAT     H214766   0.647   0.849   2.980
 4842WAT      O14767   0.026   1.765   4.927
 4842WAT     H114768   0.071   1.808   5.006
 4842WAT     H214769  -0.053   1.713   4.958
 4843WAT      O14770   9.531   6.599   8.320
 4843WAT     H114771   9.552   6.505   8.294
 4843WAT     H214772   9.433   6.609   8.334
 4844WAT      O14773   0.861   0.297   8.795
 4844WAT     H114774   0.873   0.318   8.892
 4844WAT     H214775   0.866   0.381   8.742
 4845WAT      O14776   4.132   1.234   7.730
 4845WAT     H114777   4.093   1.313   7.777
 4845WAT     H214778   4.203   1.194   7.788
 4846WAT      O14779   9.244   2.374   2.438
 4846WAT     H114780   9.194   2.345   2.520
 4846WAT     H214781   9.224   2.470   2.419
 4847WAT      O14782   5.470   0.103   0.437
 4847WAT     H114783   5.372   0.119   0.449
 4847WAT     H214784   5.508   0.065   0.521
 4848WAT      O14785   8.192   1.403   3.458
 4848WAT     H114786   8.113   1.419   3.399
 4848WAT     H214787   8.254   1.482   3.452
 4849WAT      O14788   3.372   7.528   3.122
 4849WAT     H114789   3.392   7.460   3.051
 4849WAT     H214790   3.342   7.481   3.205
 4850WAT      O14791   8.209   4.304   3.481
 4850WAT     H114792   8.156   4.389   3.482
 4850WAT     H214793   8.276   4.306   3.555
 4851WAT      O14794   4.966   7.462   6.264
 4851WAT     H114795   5.014   7.386   6.220
 4851WAT     H214796   4.970   7.542   6.204
 4852WAT      O14797   5.727   6.189   7.094
 4852WAT     H114798   5.630   6.206   7.076
 4852WAT     H214799   5.780   6.271   7.070
 4853WAT      O14800   7.326   8.948   9.425
 4853WAT     H114801   7.288   8.977   9.337
 4853WAT     H214802   7.411   8.999   9.443
 4854WAT      O14803   6.096   7.782   2.189
 4854WAT     H114804   6.071   7.701   2.242
 4854WAT     H214805   6.107   7.757   2.093
 4855WAT      O14806   6.149   9.491   8.427
 4855WAT     H114807   6.052   9.490   8.403
 4855WAT     H214808   6.160   9.464   8.522
 4856WAT      O14809   9.199   0.877   6.323
 4856WAT     H114810   9.294   0.848   6.313
 4856WAT     H214811   9.164   0.847   6.412
 4857WAT      O14812   1.117   3.438   5.762
 4857WAT     H114813   1.076   3.348   5.771
 4857WAT     H214814   1.050   3.503   5.726
 4858WAT      O14815   4.129   8.980   6.909
 4858WAT     H114816   4.218   8.946   6.940
 4858WAT     H214817   4.073   9.002   6.989
 4859WAT      O14818   4.536   2.813   1.993
 4859WAT     H114819   4.601   2.782   1.923
 4859WAT     H214820   4.463   2.867   1.950
 4860WAT      O14821   7.305   2.306   5.354
 4860WAT     H114822   7.279   2.362   5.432
 4860WAT     H214823   7.378   2.243   5.382
 4861WAT      O14824   4.646   2.998   8.666
 4861WAT     H114825   4.579   2.931   8.695
 4861WAT     H214826   4.719   2.953   8.615
 4862WAT      O14827   4.337   8.662   0.686
 4862WAT     H114828   4.305   8.672   0.592
 4862WAT     H214829   4.311   8.743   0.739
 4863WAT      O14830   2.210   4.679   6.505
 4863WAT     H114831   2.264   4.596   6.515
 4863WAT     H214832   2.116   4.661   6.537
 4864WAT      O14833   2.839   5.451   3.256
 4864WAT     H114834   2.875   5.370   3.209
 4864WAT     H214835   2.910   5.521   3.260
 4865WAT      O14836   1.549   5.156   8.444
 4865WAT     H114837   1.572   5.208   8.527
 4865WAT     H214838   1.610   5.182   8.370
 4866WAT      O14839   8.596   9.411   2.088
 4866WAT     H114840   8.666   9.374   2.148
 4866WAT     H214841   8.620   9.392   1.993
 4867WAT      O14842   4.233   5.576   1.384
 4867WAT     H114843   4.190   5.530   1.307
 4867WAT     H214844   4.166   5.585   1.458
 4868WAT      O14845   8.510   0.826   0.272
 4868WAT     H114846   8.594   0.850   0.321
 4868WAT     H214847   8.453   0.908   0.261
 4869WAT      O14848   3.608   7.029   5.198
 4869WAT     H114849   3.652   7.119   5.190
 4869WAT     H214850   3.510   7.041   5.215
 4870WAT      O14851   7.537   6.271   0.474
 4870WAT     H114852   7.498   6.247   0.563
 4870WAT     H214853   7.463   6.292   0.410
 4871WAT      O14854   8.995   3.557   7.629
 4871WAT     H114855   8.952   3.624   7.689
 4871WAT     H214856   9.091   3.547   7.654
 4872WAT      O14857   7.025   4.131   3.370
 4872WAT     H114858   7.032   4.195   3.293
 4872WAT     H214859   7.035   4.181   3.456
 4873WAT      O14860   9.268   7.194   4.967
 4873WAT     H114861   9.170   7.198   4.952
 4873WAT     H214862   9.315   7.171   4.882
 4874WAT      O14863   3.380   2.582   7.939
 4874WAT     H114864   3.350   2.487   7.944
 4874WAT     H214865   3.473   2.586   7.902
 4875WAT      O14866   1.619   9.119   8.973
 4875WAT     H114867   1.591   9.049   9.039
 4875WAT     H214868   1.640   9.076   8.885
 4876WAT      O14869   7.779   2.237   3.550
 4876WAT     H114870   7.681   2.219   3.551
 4876WAT     H214871   7.797   2.322   3.501
 4877WAT      O14872   3.813   1.445   8.741
 4877WAT     H114873   3.772   1.536   8.748
 4877WAT     H214874   3.822   1.420   8.645
 4878WAT      O14875   1.288   4.480   3.726
 4878WAT     H114876   1.323   4.572   3.711
 4878WAT     H214877   1.286   4.461   3.824
 4879WAT      O14878   8.462   8.582   6.316
 4879WAT     H114879   8.541   8.533   6.353
 4879WAT     H214880   8.381   8.522   6.319
 4880WAT      O14881   1.866   3.765   5.769
 4880WAT     H114882   1.844   3.860   5.792
 4880WAT     H214883   1.943   3.735   5.825
 4881WAT      O14884   0.892   3.732   3.242
 4881WAT     H114885   0.953   3.803   3.206
 4881WAT     H214886   0.904   3.725   3.341
 4882WAT      O14887   0.604   0.502   8.577
 4882WAT     H114888   0.703   0.512   8.568
 4882WAT     H214889   0.575   0.418   8.530
 4883WAT      O14890   1.358   1.509   4.341
 4883WAT     H114891   1.260   1.525   4.350
 4883WAT     H214892   1.385   1.520   4.245
 4884WAT      O14893   0.215   6.488   1.216
 4884WAT     H114894   0.127   6.530   1.193
 4884WAT     H214895   0.274   6.557   1.259
 4885WAT      O14896   8.257   6.324   5.225
 4885WAT     H114897   8.245   6.230   5.192
 4885WAT     H214898   8.350   6.355   5.206
 4886WAT      O14899   2.047   0.927   4.876
 4886WAT     H114900   2.005   0.847   4.920
 4886WAT     H214901   2.106   0.896   4.801
 4887WAT      O14902   7.968   9.249   3.511
 4887WAT     H114903   7.868   9.250   3.518
 4887WAT     H214904   8.007   9.216   3.596
 4888WAT      O14905   3.751   0.417   9.879
 4888WAT     H114906   3.739   0.404   9.977
 4888WAT     H214907   3.744   0.329   9.833
 4889WAT      O14908   9.843   8.514   5.451
 4889WAT     H114909   9.903   8.462   5.391
 4889WAT     H214910   9.890   8.533   5.537
 4890WAT      O14911   5.716   0.541   5.752
 4890WAT     H114912   5.630   0.568   5.796
 4890WAT     H214913   5.714   0.566   5.656
 4891WAT      O14914   6.162   3.700   7.478
 4891WAT     H114915   6.146   3.654   7.390
 4891WAT     H214916   6.222   3.643   7.535
 4892WAT      O14917   7.775   6.954   0.658
 4892WAT     H114918   7.810   6.997   0.741
 4892WAT     H214919   7.765   7.024   0.587
 4893WAT      O14920   4.864   7.757   7.066
 4893WAT     H114921   4.795   7.728   7.000
 4893WAT     H214922   4.932   7.814   7.020
 4894WAT      O14923   7.679   5.953   0.442
 4894WAT     H114924   7.617   5.965   0.520
 4894WAT     H214925   7.646   6.007   0.365
 4895WAT      O14926   5.514   3.052   1.030
 4895WAT     H114927   5.473   3.130   1.076
 4895WAT     H214928   5.460   2.970   1.049
 4896WAT      O14929   1.637   1.825   2.368
 4896WAT     H114930   1.677   1.825   2.459
 4896WAT     H214931   1.702   1.788   2.302
 4897WAT      O14932   5.850   6.434   4.679
 4897WAT     H114933   5.753   6.450   4.697
 4897WAT     H214934   5.905   6.492   4.740
 4898WAT      O14935   0.535   3.402   3.566
 4898WAT     H114936   0.592   3.333   3.520
 4898WAT     H214937   0.541   3.388   3.665
 4899WAT      O14938   5.423   3.942   2.829
 4899WAT     H114939   5.342   4.001   2.833
 4899WAT     H214940   5.483   3.974   2.755
 4900WAT      O14941   7.844   8.473   2.015
 4900WAT     H114942   7.883   8.520   2.094
 4900WAT     H214943   7.802   8.539   1.954
 4901WAT      O14944   4.996   7.518   2.384
 4901WAT     H114945   4.905   7.537   2.420
 4901WAT     H214946   5.049   7.466   2.451
 4902WAT      O14947   6.399   4.141   1.433
 4902WAT     H114948   6.488   4.138   1.479
 4902WAT     H214949   6.387   4.232   1.392
 4903WAT      O14950   3.544   3.946   7.990
 4903WAT     H114951   3.539   4.043   8.015
 4903WAT     H214952   3.592   3.937   7.903
 4904WAT      O14953   9.802   2.834   0.325
 4904WAT     H114954   9.774   2.908   0.387
 4904WAT     H214955   9.736   2.759   0.330
 4905WAT      O14956   3.794   5.311   8.053
 4905WAT     H114957   3.857   5.306   7.975
 4905WAT     H214958   3.813   5.236   8.116
 4906WAT      O14959   9.556   0.447   0.420
 4906WAT     H114960   9.519   0.392   0.345
 4906WAT     H214961   9.641   0.406   0.453
 4907WAT      O14962   2.706   7.269   0.280
 4907WAT     H114963   2.767   7.255   0.358
 4907WAT     H214964   2.711   7.189   0.219
 4908WAT      O14965   7.043   6.496   5.622
 4908WAT     H114966   6.984   6.470   5.698
 4908WAT     H214967   7.128   6.534   5.658
 4909WAT      O14968   6.763   8.387   8.685
 4909WAT     H114969   6.784   8.294   8.716
 4909WAT     H214970   6.668   8.409   8.706
 4910WAT      O14971   5.019   9.816   5.373
 4910WAT     H114972   5.038   9.823   5.275
 4910WAT     H214973   4.960   9.737   5.390
 4911WAT      O14974   2.199   8.230   7.529
 4911WAT     H114975   2.133   8.301   7.505
 4911WAT     H214976   2.164   8.141   7.500
 4912WAT      O14977   6.552   7.319   4.564
 4912WAT     H114978   6.505   7.351   4.647
 4912WAT     H214979   6.534   7.221   4.551
 4913WAT      O14980   6.355   0.277   3.844
 4913WAT     H114981   6.446   0.257   3.880
 4913WAT     H214982   6.303   0.330   3.911
 4914WAT      O14983   8.177   6.788   6.044
 4914WAT     H114984   8.099   6.731   6.019
 4914WAT     H214985   8.262   6.741   6.020
 4915WAT      O14986   3.672   4.402   5.729
 4915WAT     H114987   3.633   4.327   5.783
 4915WAT     H214988   3.615   4.417   5.648
 4916WAT      O14989   9.360   7.834   8.423
 4916WAT     H114990   9.272   7.871   8.452
 4916WAT     H214991   9.351   7.794   8.331
 4917WAT      O14992   4.955   2.545   2.969
 4917WAT     H114993   4.908   2.462   3.000
 4917WAT     H214994   4.987   2.532   2.875
 4918WAT      O14995   3.004   8.690   2.929
 4918WAT     H114996   3.039   8.597   2.921
 4918WAT     H214997   2.988   8.712   3.025
 4919WAT      O14998   8.457   5.824   5.084
 4919WAT     H114999   8.410   5.851   5.169
 4919WAT     H215000   8.556   5.822   5.101
 4920WAT      O15001   7.936   7.451   7.177
 4920WAT     H115002   8.012   7.429   7.115
 4920WAT     H215003   7.971   7.463   7.270
 4921WAT      O15004   9.539   3.292   9.770
 4921WAT     H115005   9.544   3.238   9.854
 4921WAT     H215006   9.452   3.340   9.766
 4922WAT      O15007   2.779   8.940   5.695
 4922WAT     H115008   2.681   8.921   5.691
 4922WAT     H215009   2.797   9.032   5.660
 4923WAT      O15010   9.447   0.874   9.715
 4923WAT     H115011   9.384   0.947   9.743
 4923WAT     H215012   9.505   0.906   9.640
 4924WAT      O15013   8.886   4.625   9.165
 4924WAT     H115014   8.973   4.670   9.144
 4924WAT     H215015   8.899   4.564   9.243
 4925WAT      O15016   2.423   1.287   3.537
 4925WAT     H115017   2.359   1.307   3.463
 4925WAT     H215018   2.375   1.243   3.612
 4926WAT      O15019   2.243   4.405   8.063
 4926WAT     H115020   2.196   4.485   8.100
 4926WAT     H215021   2.308   4.369   8.131
 4927WAT      O15022   3.170   0.635   3.561
 4927WAT     H115023   3.196   0.717   3.612
 4927WAT     H215024   3.143   0.563   3.626
 4928WAT      O15025   0.372   7.809   8.514
 4928WAT     H115026   0.452   7.753   8.491
 4928WAT     H215027   0.341   7.858   8.432
 4929WAT      O15028   3.098   4.448   6.511
 4929WAT     H115029   3.005   4.420   6.489
 4929WAT     H215030   3.160   4.370   6.503
 4930WAT      O15031   5.213   7.897   0.176
 4930WAT     H115032   5.267   7.960   0.232
 4930WAT     H215033   5.259   7.809   0.171
 4931WAT      O15034   8.631   6.424   0.182
 4931WAT     H115035   8.631   6.411   0.083
 4931WAT     H215036   8.590   6.344   0.226
 4932WAT      O15037   0.893   1.470   1.417
 4932WAT     H115038   0.797   1.463   1.390
 4932WAT     H215039   0.940   1.384   1.398
 4933WAT      O15040   0.382   7.957   2.357
 4933WAT     H115041   0.310   7.888   2.345
 4933WAT     H215042   0.348   8.030   2.417
 4934WAT      O15043   3.679   3.401   7.734
 4934WAT     H115044   3.664   3.432   7.640
 4934WAT     H215045   3.673   3.479   7.796
 4935WAT      O15046   9.518   9.440   9.554
 4935WAT     H115047   9.544   9.436   9.651
 4935WAT     H215048   9.445   9.374   9.536
 4936WAT      O15049   0.810   8.798   7.603
 4936WAT     H115050   0.750   8.753   7.537
 4936WAT     H215051   0.762   8.874   7.647
 4937WAT      O15052   5.847   2.944   1.726
 4937WAT     H115053   5.759   2.906   1.700
 4937WAT     H215054   5.907   2.871   1.759
 4938WAT      O15055   5.995   4.268   1.358
 4938WAT     H115056   5.975   4.322   1.276
 4938WAT     H215057   5.920   4.278   1.423
 4939WAT      O15058   5.064   4.541   4.871
 4939WAT     H115059   5.014   4.625   4.890
 4939WAT     H215060   5.005   4.462   4.888
 4940WAT      O15061   9.676   5.794   1.415
 4940WAT     H115062   9.685   5.696   1.433
 4940WAT     H215063   9.588   5.811   1.369
 4941WAT      O15064   0.612   5.854   3.934
 4941WAT     H115065   0.634   5.947   3.964
 4941WAT     H215066   0.695   5.800   3.926
 4942WAT      O15067   5.163   9.424   5.698
 4942WAT     H115068   5.085   9.484   5.683
 4942WAT     H215069   5.177   9.411   5.797
 4943WAT      O15070   4.214   8.659   8.039
 4943WAT     H115071   4.120   8.630   8.060
 4943WAT     H215072   4.231   8.647   7.941
 4944WAT      O15073   9.135   1.017   8.660
 4944WAT     H115074   9.089   1.105   8.662
 4944WAT     H215075   9.181   1.004   8.573
 4945WAT      O15076   0.839   6.930   0.131
 4945WAT     H115077   0.901   6.922   0.053
 4945WAT     H215078   0.763   6.991   0.108
 4946WAT      O15079   8.786   7.282   5.479
 4946WAT     H115080   8.870   7.331   5.502
 4946WAT     H215081   8.783   7.265   5.380
 4947WAT      O15082   8.992   0.418   0.073
 4947WAT     H115083   9.014   0.344   0.136
 4947WAT     H215084   8.971   0.381  -0.018
 4948WAT      O15085   8.834   8.396   7.923
 4948WAT     H115086   8.919   8.438   7.954
 4948WAT     H215087   8.818   8.312   7.974
 4949WAT      O15088   0.129   2.586   4.899
 4949WAT     H115089   0.061   2.522   4.862
 4949WAT     H215090   0.118   2.592   4.998
 4950WAT      O15091   2.261   1.813   6.290
 4950WAT     H115092   2.359   1.832   6.284
 4950WAT     H215093   2.211   1.882   6.238
 4951WAT      O15094   0.609   8.436   9.647
 4951WAT     H115095   0.666   8.359   9.676
 4951WAT     H215096   0.643   8.471   9.560
 4952WAT      O15097   5.839   5.698   2.916
 4952WAT     H115098   5.847   5.764   2.842
 4952WAT     H215099   5.859   5.606   2.882
 4953WAT      O15100   1.735   9.556   8.469
 4953WAT     H115101   1.707   9.492   8.541
 4953WAT     H215102   1.655   9.604   8.434
 4954WAT      O15103   5.338   5.747   0.861
 4954WAT     H115104   5.345   5.781   0.767
 4954WAT     H215105   5.356   5.649   0.863
 4955WAT      O15106   8.607   5.487   0.733
 4955WAT     H115107   8.602   5.390   0.753
 4955WAT     H215108   8.653   5.501   0.645
 4956WAT      O15109   3.434   4.191   2.484
 4956WAT     H115110   3.409   4.159   2.393
 4956WAT     H215111   3.522   4.152   2.510
 4957WAT      O15112   3.101   9.511   5.929
 4957WAT     H115113   3.133   9.417   5.935
 4957WAT     H215114   3.019   9.515   5.871
 4958WAT      O15115   2.908   5.595   1.213
 4958WAT     H115116   2.937   5.516   1.159
 4958WAT     H215117   2.892   5.673   1.153
 4959WAT      O15118   7.279   3.389   2.211
 4959WAT     H115119   7.366   3.388   2.163
 4959WAT     H215120   7.212   3.440   2.157
 4960WAT      O15121   1.044   7.603   6.404
 4960WAT     H115122   1.120   7.574   6.346
 4960WAT     H215123   1.073   7.604   6.499
 4961WAT      O15124   6.345   2.554   5.403
 4961WAT     H115125   6.431   2.594   5.370
 4961WAT     H215126   6.277   2.557   5.331
 4962WAT      O15127   3.363   2.810   2.002
 4962WAT     H115128   3.371   2.889   1.942
 4962WAT     H215129   3.298   2.744   1.962
 4963WAT      O15130   5.458   4.753   3.667
 4963WAT     H115131   5.481   4.765   3.570
 4963WAT     H215132   5.490   4.664   3.698
 4964WAT      O15133   9.517   9.148   8.964
 4964WAT     H115134   9.551   9.177   9.054
 4964WAT     H215135   9.420   9.169   8.957
 4965WAT      O15136   4.852   7.323   1.894
 4965WAT     H115137   4.938   7.372   1.907
 4965WAT     H215138   4.775   7.379   1.926
 4966WAT      O15139   9.752   1.628   0.454
 4966WAT     H115140   9.829   1.608   0.516
 4966WAT     H215141   9.667   1.630   0.506
 4967WAT      O15142   8.089   8.930   6.535
 4967WAT     H115143   8.147   8.853   6.561
 4967WAT     H215144   8.021   8.947   6.607
 4968WAT      O15145   6.009   2.590   8.510
 4968WAT     H115146   5.974   2.684   8.510
 4968WAT     H215147   5.973   2.542   8.591
 4969WAT      O15148   1.872   7.928   1.498
 4969WAT     H115149   1.789   7.925   1.554
 4969WAT     H215150   1.884   8.020   1.461
 4970WAT      O15151   1.526   4.205   7.659
 4970WAT     H115152   1.511   4.287   7.603
 4970WAT     H215153   1.525   4.124   7.601
 4971WAT      O15154   3.615   1.746   1.488
 4971WAT     H115155   3.667   1.754   1.404
 4971WAT     H215156   3.520   1.773   1.471
 4972WAT      O15157   5.819   0.850   1.269
 4972WAT     H115158   5.787   0.878   1.178
 4972WAT     H215159   5.918   0.845   1.269
 4973WAT      O15160   8.020   8.915   5.571
 4973WAT     H115161   7.999   8.976   5.495
 4973WAT     H215162   8.067   8.834   5.537
 4974WAT      O15163   6.982   4.923   4.666
 4974WAT     H115164   7.033   4.890   4.745
 4974WAT     H215165   7.032   4.998   4.623
 4975WAT      O15166   4.280   3.264   7.123
 4975WAT     H115167   4.328   3.208   7.056
 4975WAT     H215168   4.198   3.216   7.155
 4976WAT      O15169   4.360   8.400   0.201
 4976WAT     H115170   4.435   8.375   0.140
 4976WAT     H215171   4.274   8.394   0.152
 4977WAT      O15172   8.349   3.599   1.786
 4977WAT     H115173   8.426   3.593   1.722
 4977WAT     H215174   8.313   3.692   1.785
 4978WAT      O15175   4.561   7.477   2.909
 4978WAT     H115176   4.490   7.408   2.896
 4978WAT     H215177   4.536   7.560   2.859
 4979WAT      O15178   4.058   2.633   9.301
 4979WAT     H115179   4.058   2.647   9.202
 4979WAT     H215180   4.111   2.551   9.322
 4980WAT      O15181   7.104   2.122   9.718
 4980WAT     H115182   7.055   2.053   9.770
 4980WAT     H215183   7.201   2.121   9.743
 4981WAT      O15184   4.814   3.445   9.561
 4981WAT     H115185   4.842   3.527   9.610
 4981WAT     H215186   4.714   3.442   9.555
 4982WAT      O15187   6.677   0.994   2.641
 4982WAT     H115188   6.631   1.083   2.640
 4982WAT     H215189   6.610   0.923   2.663
 4983WAT      O15190   8.670   2.824   3.897
 4983WAT     H115191   8.734   2.866   3.832
 4983WAT     H215192   8.579   2.821   3.856
 4984WAT      O15193   4.891   4.232   4.613
 4984WAT     H115194   4.947   4.160   4.654
 4984WAT     H215195   4.854   4.290   4.685
 4985WAT      O15196   9.009   1.393   3.490
 4985WAT     H115197   8.978   1.330   3.561
 4985WAT     H215198   8.943   1.467   3.481
 4986WAT      O15199   2.707   3.636   3.892
 4986WAT     H115200   2.716   3.552   3.839
 4986WAT     H215201   2.675   3.710   3.833
 4987WAT      O15202   1.740   9.231   6.765
 4987WAT     H115203   1.648   9.215   6.802
 4987WAT     H215204   1.766   9.327   6.783
 4988WAT      O15205   0.534   4.815   4.283
 4988WAT     H115206   0.579   4.748   4.341
 4988WAT     H215207   0.473   4.769   4.219
 4989WAT      O15208   1.327   5.364   4.134
 4989WAT     H115209   1.292   5.448   4.093
 4989WAT     H215210   1.327   5.291   4.066
 4990WAT      O15211   9.358   0.534   5.582
 4990WAT     H115212   9.260   0.554   5.575
 4990WAT     H215213   9.375   0.477   5.663
 4991WAT      O15214   0.094   8.671   2.680
 4991WAT     H115215   0.001   8.638   2.693
 4991WAT     H215216   0.110   8.688   2.582
 4992WAT      O15217   0.363   1.554   0.085
 4992WAT     H115218   0.289   1.566   0.151
 4992WAT     H215219   0.351   1.619   0.010
 4993WAT      O15220   0.839   0.300   9.570
 4993WAT     H115221   0.740   0.306   9.571
 4993WAT     H215222   0.878   0.373   9.626
 4994WAT      O15223   0.426   7.718   6.675
 4994WAT     H115224   0.370   7.667   6.609
 4994WAT     H215225   0.385   7.710   6.766
 4995WAT      O15226   8.074   2.113   8.960
 4995WAT     H115227   8.055   2.168   9.041
 4995WAT     H215228   8.134   2.037   8.985
 4996WAT      O15229   2.080   2.693   6.828
 4996WAT     H115230   2.079   2.593   6.827
 4996WAT     H215231   2.104   2.726   6.919
 4997WAT      O15232   3.963   6.229   5.850
 4997WAT     H115233   4.046   6.258   5.803
 4997WAT     H215234   3.915   6.310   5.885
 4998WAT      O15235   8.189   9.231   7.571
 4998WAT     H115236   8.196   9.308   7.508
 4998WAT     H215237   8.208   9.262   7.664
 4999WAT      O15238   6.237   0.481   6.082
 4999WAT     H115239   6.262   0.408   6.145
 4999WAT     H215240   6.316   0.540   6.066
 5000WAT      O15241   3.579   6.578   2.844
 5000WAT     H115242   3.513   6.620   2.781
 5000WAT     H215243   3.545   6.488   2.872
 5001WAT      O15244   1.577   6.069   7.464
 5001WAT     H115245   1.563   6.085   7.366
 5001WAT     H215246   1.490   6.079   7.512
 5002WAT      O15247   8.142   0.880   6.124
 5002WAT     H115248   8.187   0.810   6.180
 5002WAT     H215249   8.193   0.966   6.132
 5003WAT      O15250   7.711   7.461   9.069
 5003WAT     H115251   7.624   7.503   9.095
 5003WAT     H215252   7.719   7.458   8.970
 5004WAT      O15253   0.974   1.968   5.345
 5004WAT     H115254   0.930   2.058   5.340
 5004WAT     H215255   1.064   1.973   5.300
 5005WAT      O15256   0.547   2.291   0.921
 5005WAT     H115257   0.535   2.340   1.007
 5005WAT     H215258   0.467   2.233   0.904
 5006WAT      O15259   1.008   0.076   5.668
 5006WAT     H115260   1.041   0.125   5.749
 5006WAT     H215261   0.916   0.107   5.644
 5007WAT      O15262   1.184   4.243   6.757
 5007WAT     H115263   1.104   4.262   6.815
 5007WAT     H215264   1.158   4.176   6.687
 5008WAT      O15265   2.117   3.984   9.630
 5008WAT     H115266   2.209   4.003   9.595
 5008WAT     H215267   2.104   4.033   9.717
 5009WAT      O15268   0.446   1.294   5.285
 5009WAT     H115269   0.469   1.264   5.192
 5009WAT     H215270   0.518   1.354   5.319
 5010WAT      O15271   7.577   2.803   8.154
 5010WAT     H115272   7.574   2.900   8.130
 5010WAT     H215273   7.629   2.792   8.238
 5011WAT      O15274   8.429   9.291   7.227
 5011WAT     H115275   8.492   9.369   7.226
 5011WAT     H215276   8.368   9.297   7.148
 5012WAT      O15277   5.855   4.093   3.291
 5012WAT     H115278   5.872   4.191   3.285
 5012WAT     H215279   5.777   4.069   3.233
 5013WAT      O15280   0.091   6.067   1.723
 5013WAT     H115281   0.144   6.148   1.749
 5013WAT     H215282   0.072   6.012   1.804
 5014WAT      O15283   3.754   2.038   2.609
 5014WAT     H115284   3.854   2.031   2.605
 5014WAT     H215285   3.723   2.020   2.702
 5015WAT      O15286   5.981   4.770   7.710
 5015WAT     H115287   5.938   4.721   7.786
 5015WAT     H215288   5.964   4.720   7.625
 5016WAT      O15289   2.067   5.657   2.159
 5016WAT     H115290   2.164   5.672   2.177
 5016WAT     H215291   2.015   5.739   2.183
 5017WAT      O15292   7.136   8.915   3.968
 5017WAT     H115293   7.180   8.979   3.905
 5017WAT     H215294   7.076   8.854   3.917
 5018WAT      O15295   6.476   4.429   4.583
 5018WAT     H115296   6.484   4.343   4.532
 5018WAT     H215297   6.380   4.458   4.584
 5019WAT      O15298   9.480   4.909   1.188
 5019WAT     H115299   9.556   4.930   1.249
 5019WAT     H215300   9.400   4.963   1.215
 5020WAT      O15301   2.971   3.567   6.461
 5020WAT     H115302   3.061   3.522   6.463
 5020WAT     H215303   2.980   3.656   6.417
 5021WAT      O15304   8.799   1.450   7.630
 5021WAT     H115305   8.759   1.424   7.542
 5021WAT     H215306   8.760   1.537   7.661
 5022WAT      O15307   4.953   2.398   9.257
 5022WAT     H115308   4.978   2.303   9.277
 5022WAT     H215309   5.027   2.459   9.287
 5023WAT      O15310   8.669   5.396   4.290
 5023WAT     H115311   8.703   5.409   4.196
 5023WAT     H215312   8.583   5.345   4.287
 5024WAT      O15313   8.816   4.085   5.967
 5024WAT     H115314   8.761   4.111   5.889
 5024WAT     H215315   8.795   4.144   6.045
 5025WAT      O15316   2.679   9.508   0.411
 5025WAT     H115317   2.734   9.511   0.494
 5025WAT     H215318   2.660   9.413   0.385
 5026WAT      O15319   2.050   5.341   9.257
 5026WAT     H115320   2.115   5.364   9.185
 5026WAT     H215321   1.998   5.423   9.282
 5027WAT      O15322   2.947   9.281   2.453
 5027WAT     H115323   2.945   9.184   2.429
 5027WAT     H215324   3.040   9.316   2.447
 5028WAT      O15325   4.197   3.257   4.837
 5028WAT     H115326   4.223   3.167   4.802
 5028WAT     H215327   4.234   3.269   4.930
 5029WAT      O15328   0.857   4.030   8.453
 5029WAT     H115329   0.784   3.966   8.429
 5029WAT     H215330   0.881   4.084   8.373
 5030WAT      O15331   1.265   5.810   6.064
 5030WAT     H115332   1.339   5.833   6.002
 5030WAT     H215333   1.278   5.856   6.151
 5031WAT      O15334   0.928   6.746   2.299
 5031WAT     H115335   0.940   6.767   2.202
 5031WAT     H215336   0.914   6.831   2.350
 5032WAT      O15337   9.625   8.285   6.869
 5032WAT     H115338   9.674   8.366   6.838
 5032WAT     H215339   9.685   8.206   6.866
 5033WAT      O15340   2.509   7.111   9.129
 5033WAT     H115341   2.609   7.119   9.135
 5033WAT     H215342   2.469   7.203   9.126
 5034WAT      O15343   2.053   4.608   3.335
 5034WAT     H115344   2.104   4.692   3.354
 5034WAT     H215345   2.090   4.533   3.390
 5035WAT      O15346   2.592   6.346   4.157
 5035WAT     H115347   2.539   6.287   4.218
 5035WAT     H215348   2.678   6.300   4.132
 5036WAT      O15349   6.038   4.702   4.065
 5036WAT     H115350   6.125   4.671   4.028
 5036WAT     H215351   5.967   4.693   3.994
 5037WAT      O15352   3.584   7.815   3.645
 5037WAT     H115353   3.510   7.822   3.579
 5037WAT     H215354   3.552   7.763   3.725
 5038WAT      O15355   8.361   6.885   3.787
 5038WAT     H115356   8.374   6.864   3.884
 5038WAT     H215357   8.266   6.865   3.761
 5039WAT      O15358   6.019   6.640   1.532
 5039WAT     H115359   6.075   6.559   1.517
 5039WAT     H215360   6.045   6.683   1.619
 5040WAT      O15361   1.698   3.412   2.936
 5040WAT     H115362   1.693   3.449   3.029
 5040WAT     H215363   1.647   3.327   2.931
 5041WAT      O15364   7.201   0.498   7.828
 5041WAT     H115365   7.107   0.529   7.813
 5041WAT     H215366   7.259   0.577   7.847
 5042WAT      O15367   4.622   9.263   8.464
 5042WAT     H115368   4.716   9.297   8.471
 5042WAT     H215369   4.623   9.168   8.431
 5043WAT      O15370   3.877   4.326   8.833
 5043WAT     H115371   3.921   4.415   8.818
 5043WAT     H215372   3.784   4.329   8.797
 5044WAT      O15373   3.005   5.366   1.079
 5044WAT     H115374   3.088   5.355   1.135
 5044WAT     H215375   2.992   5.284   1.024
 5045WAT      O15376   8.090   9.174   1.148
 5045WAT     H115377   8.169   9.227   1.178
 5045WAT     H215378   8.063   9.204   1.057
 5046WAT      O15379   5.826   7.941   4.612
 5046WAT     H115380   5.781   8.002   4.547
 5046WAT     H215381   5.771   7.935   4.696
 5047WAT      O15382   3.325   4.746   3.112
 5047WAT     H115383   3.244   4.762   3.168
 5047WAT     H215384   3.394   4.816   3.133
 5048WAT      O15385   1.473   2.808   2.523
 5048WAT     H115386   1.504   2.866   2.447
 5048WAT     H215387   1.406   2.742   2.490
 5049WAT      O15388   6.188   6.354   4.628
 5049WAT     H115389   6.140   6.430   4.584
 5049WAT     H215390   6.168   6.355   4.726
 5050WAT      O15391   7.976   9.311   0.371
 5050WAT     H115392   7.900   9.373   0.348
 5050WAT     H215393   7.982   9.238   0.303
 5051WAT      O15394   3.639   0.249   2.788
 5051WAT     H115395   3.695   0.331   2.777
 5051WAT     H215396   3.542   0.273   2.780
 5052WAT      O15397   8.420   1.125   6.476
 5052WAT     H115398   8.430   1.031   6.510
 5052WAT     H215399   8.486   1.141   6.403
 5053WAT      O15400   6.979   6.970   2.346
 5053WAT     H115401   6.986   7.014   2.256
 5053WAT     H215402   7.031   6.885   2.345
 5054WAT      O15403   7.403   7.523   4.164
 5054WAT     H115404   7.462   7.603   4.175
 5054WAT     H215405   7.311   7.545   4.198
 5055WAT      O15406   5.396   2.160   4.792
 5055WAT     H115407   5.333   2.228   4.754
 5055WAT     H215408   5.466   2.207   4.846
 5056WAT      O15409   9.739   2.287   4.514
 5056WAT     H115410   9.671   2.360   4.520
 5056WAT     H215411   9.735   2.246   4.423
 5057WAT      O15412   2.653   9.338   7.411
 5057WAT     H115413   2.656   9.435   7.437
 5057WAT     H215414   2.619   9.284   7.488
 5058WAT      O15415   7.679   9.333   5.023
 5058WAT     H115416   7.719   9.304   5.110
 5058WAT     H215417   7.735   9.405   4.983
 5059WAT      O15418   1.859   1.852   7.469
 5059WAT     H115419   1.878   1.832   7.565
 5059WAT     H215420   1.945   1.867   7.420
 5060WAT      O15421   5.730   0.933   0.307
 5060WAT     H115422   5.654   0.981   0.264
 5060WAT     H215423   5.815   0.981   0.288
 5061WAT      O15424   4.471   4.630   6.704
 5061WAT     H115425   4.474   4.553   6.641
 5061WAT     H215426   4.546   4.693   6.685
 5062WAT      O15427   4.663   8.355   5.210
 5062WAT     H115428   4.653   8.416   5.288
 5062WAT     H215429   4.704   8.405   5.133
 5063WAT      O15430   3.714   6.053   2.330
 5063WAT     H115431   3.732   6.029   2.426
 5063WAT     H215432   3.707   5.969   2.276
 5064WAT      O15433   0.891   2.611   6.371
 5064WAT     H115434   0.900   2.512   6.382
 5064WAT     H215435   0.902   2.656   6.460
 5065WAT      O15436   6.875   4.910   5.990
 5065WAT     H115437   6.954   4.950   6.037
 5065WAT     H215438   6.854   4.821   6.031
 5066WAT      O15439   1.330   4.106   5.144
 5066WAT     H115440   1.331   4.018   5.190
 5066WAT     H215441   1.358   4.178   5.209
 5067WAT      O15442   8.555   2.120   6.787
 5067WAT     H115443   8.516   2.099   6.698
 5067WAT     H215444   8.483   2.151   6.849
 5068WAT      O15445   2.325   6.645   2.746
 5068WAT     H115446   2.315   6.557   2.793
 5068WAT     H215447   2.420   6.675   2.754
 5069WAT      O15448   2.940   2.156   6.541
 5069WAT     H115449   2.913   2.119   6.452
 5069WAT     H215450   2.871   2.131   6.610
 5070WAT      O15451   2.922   9.344   0.113
 5070WAT     H115452   2.920   9.440   0.083
 5070WAT     H215453   2.902   9.340   0.211
 5071WAT      O15454   9.786   7.380   3.610
 5071WAT     H115455   9.868   7.389   3.666
 5071WAT     H215456   9.795   7.301   3.550
 5072WAT      O15457   4.133   5.317   2.204
 5072WAT     H115458   4.162   5.248   2.270
 5072WAT     H215459   4.034   5.311   2.192
 5073WAT      O15460   6.467   7.072   3.912
 5073WAT     H115461   6.437   7.166   3.933
 5073WAT     H215462   6.387   7.013   3.906
 5074WAT      O15463   0.495   8.734   9.023
 5074WAT     H115464   0.533   8.731   8.931
 5074WAT     H215465   0.481   8.641   9.057
 5075WAT      O15466   1.784   4.196   3.116
 5075WAT     H115467   1.871   4.164   3.154
 5075WAT     H215468   1.778   4.170   3.020
 5076WAT      O15469   7.799   1.276   7.462
 5076WAT     H115470   7.776   1.347   7.528
 5076WAT     H215471   7.718   1.220   7.444
 5077WAT      O15472   6.132   0.439   3.638
 5077WAT     H115473   6.050   0.443   3.581
 5077WAT     H215474   6.105   0.425   3.733
 5078WAT      O15475   3.085   5.953   6.694
 5078WAT     H115476   3.133   6.029   6.738
 5078WAT     H215477   3.146   5.875   6.685
 5079WAT      O15478   8.491   3.758   2.929
 5079WAT     H115479   8.449   3.771   2.839
 5079WAT     H215480   8.420   3.757   2.999
 5080WAT      O15481   0.827   0.626   3.494
 5080WAT     H115482   0.832   0.632   3.394
 5080WAT     H215483   0.735   0.599   3.522
 5081WAT      O15484   4.043   7.990   4.243
 5081WAT     H115485   3.982   7.984   4.163
 5081WAT     H215486   4.041   8.083   4.280
 5082WAT      O15487   1.842   1.286   7.508
 5082WAT     H115488   1.781   1.207   7.519
 5082WAT     H215489   1.937   1.257   7.522
 5083WAT      O15490   1.751   5.287   9.338
 5083WAT     H115491   1.719   5.371   9.382
 5083WAT     H215492   1.672   5.228   9.318
 5084WAT      O15493   6.386   5.145   8.801
 5084WAT     H115494   6.380   5.045   8.799
 5084WAT     H215495   6.444   5.176   8.727
 5085WAT      O15496   5.989   9.448   1.265
 5085WAT     H115497   5.900   9.443   1.220
 5085WAT     H215498   6.028   9.539   1.253
 5086WAT      O15499   1.709   5.215   8.238
 5086WAT     H115500   1.730   5.313   8.235
 5086WAT     H215501   1.673   5.186   8.149
 5087WAT      O15502   0.787   9.408   9.494
 5087WAT     H115503   0.837   9.326   9.465
 5087WAT     H215504   0.711   9.381   9.553
 5088WAT      O15505   8.808   3.724   4.374
 5088WAT     H115506   8.898   3.720   4.332
 5088WAT     H215507   8.752   3.791   4.325
 5089WAT      O15508   0.150   2.748   8.791
 5089WAT     H115509   0.147   2.847   8.781
 5089WAT     H215510   0.155   2.705   8.701
 5090WAT      O15511   2.544   5.213   1.450
 5090WAT     H115512   2.533   5.134   1.390
 5090WAT     H215513   2.627   5.264   1.425
 5091WAT      O15514   8.763   3.689   5.285
 5091WAT     H115515   8.690   3.658   5.345
 5091WAT     H215516   8.765   3.632   5.203
 5092WAT      O15517   7.282   0.337   3.282
 5092WAT     H115518   7.296   0.377   3.373
 5092WAT     H215519   7.185   0.327   3.265
 5093WAT      O15520   9.417   9.065   7.648
 5093WAT     H115521   9.349   9.094   7.581
 5093WAT     H215522   9.407   9.121   7.731
 5094WAT      O15523   1.825   3.060   8.438
 5094WAT     H115524   1.852   2.964   8.438
 5094WAT     H215525   1.729   3.068   8.413
 5095WAT      O15526   3.222   8.146   4.987
 5095WAT     H115527   3.132   8.139   5.030
 5095WAT     H215528   3.224   8.089   4.905
 5096WAT      O15529   4.478   3.444   9.808
 5096WAT     H115530   4.428   3.384   9.745
 5096WAT     H215531   4.419   3.468   9.885
 5097WAT      O15532   8.622   3.645   3.986
 5097WAT     H115533   8.639   3.553   4.022
 5097WAT     H215534   8.699   3.672   3.927
 5098WAT      O15535   7.232   4.104   5.449
 5098WAT     H115536   7.314   4.159   5.442
 5098WAT     H215537   7.206   4.070   5.359
 5099WAT      O15538   7.876   2.098   0.310
 5099WAT     H115539   7.845   2.065   0.399
 5099WAT     H215540   7.970   2.069   0.295
 5100WAT      O15541   2.179   5.772   4.573
 5100WAT     H115542   2.213   5.812   4.488
 5100WAT     H215543   2.226   5.813   4.651
 5101WAT      O15544   6.224   3.269   4.067
 5101WAT     H115545   6.204   3.182   4.113
 5101WAT     H215546   6.191   3.345   4.123
 5102WAT      O15547   5.666   1.715   7.275
 5102WAT     H115548   5.751   1.664   7.288
 5102WAT     H215549   5.657   1.783   7.348
 5103WAT      O15550   1.195   6.137   9.489
 5103WAT     H115551   1.124   6.200   9.457
 5103WAT     H215552   1.285   6.173   9.464
 5104WAT      O15553   7.785   9.590   9.295
 5104WAT     H115554   7.766   9.688   9.308
 5104WAT     H215555   7.816   9.550   9.382
 5105WAT      O15556   1.239   6.815   2.654
 5105WAT     H115557   1.301   6.801   2.731
 5105WAT     H215558   1.201   6.727   2.626
 5106WAT      O15559   1.721   3.741   8.246
 5106WAT     H115560   1.726   3.654   8.293
 5106WAT     H215561   1.712   3.726   8.148
 5107WAT      O15562   1.968   3.723   0.029
 5107WAT     H115563   2.049   3.713  -0.027
 5107WAT     H215564   1.918   3.806   0.002
 5108WAT      O15565   6.821   5.752   9.734
 5108WAT     H115566   6.803   5.776   9.639
 5108WAT     H215567   6.861   5.661   9.739
 5109WAT      O15568   2.148   4.367   3.477
 5109WAT     H115569   2.122   4.375   3.573
 5109WAT     H215570   2.118   4.279   3.442
 5110WAT      O15571   0.979   8.561   6.053
 5110WAT     H115572   1.057   8.502   6.077
 5110WAT     H215573   1.013   8.644   6.009
 5111WAT      O15574   5.962   4.265   4.423
 5111WAT     H115575   5.894   4.195   4.402
 5111WAT     H215576   5.988   4.314   4.340
 5112WAT      O15577   3.728   7.714   0.979
 5112WAT     H115578   3.630   7.725   0.999
 5112WAT     H215579   3.779   7.789   1.023
 5113WAT      O15580   9.703   3.147   0.735
 5113WAT     H115581   9.651   3.075   0.782
 5113WAT     H215582   9.755   3.199   0.802
 5114WAT      O15583   6.972   7.129   8.997
 5114WAT     H115584   7.036   7.059   8.964
 5114WAT     H215585   7.024   7.205   9.037
 5115WAT      O15586   1.803   6.397   1.584
 5115WAT     H115587   1.880   6.415   1.523
 5115WAT     H215588   1.776   6.482   1.629
 5116WAT      O15589   7.639   4.037   2.324
 5116WAT     H115590   7.738   4.036   2.337
 5116WAT     H215591   7.594   4.021   2.412
 5117WAT      O15592   4.615   0.057   4.326
 5117WAT     H115593   4.652   0.128   4.386
 5117WAT     H215594   4.691   0.010   4.281
 5118WAT      O15595   3.257   1.193   4.853
 5118WAT     H115596   3.203   1.147   4.923
 5118WAT     H215597   3.241   1.292   4.857
 5119WAT      O15598   7.933   6.614   0.005
 5119WAT     H115599   7.904   6.530   0.050
 5119WAT     H215600   7.857   6.650  -0.049
 5120WAT      O15601   5.913   7.305   0.538
 5120WAT     H115602   5.872   7.320   0.628
 5120WAT     H215603   5.922   7.207   0.522
 5121WAT      O15604   9.230   2.371   0.777
 5121WAT     H115605   9.136   2.400   0.791
 5121WAT     H215606   9.287   2.449   0.753
 5122WAT      O15607   7.054   7.906   7.362
 5122WAT     H115608   7.126   7.952   7.414
 5122WAT     H215609   6.985   7.973   7.335
 5123WAT      O15610   4.242   0.161   6.413
 5123WAT     H115611   4.151   0.168   6.452
 5123WAT     H215612   4.310   0.154   6.487
 5124WAT      O15613   0.222   2.304   2.402
 5124WAT     H115614   0.265   2.216   2.420
 5124WAT     H215615   0.126   2.301   2.432
 5125WAT      O15616   2.087   9.333   0.107
 5125WAT     H115617   2.001   9.345   0.058
 5125WAT     H215618   2.163   9.339   0.042
 5126WAT      O15619   9.081   5.970   6.315
 5126WAT     H115620   9.083   5.934   6.408
 5126WAT     H215621   8.992   5.954   6.274
 5127WAT      O15622   6.911   3.339   1.358
 5127WAT     H115623   6.885   3.295   1.444
 5127WAT     H215624   6.879   3.283   1.281
 5128WAT      O15625   8.883   4.839   3.001
 5128WAT     H115626   8.880   4.939   2.998
 5128WAT     H215627   8.865   4.807   3.094
 5129WAT      O15628   0.142   6.636   6.650
 5129WAT     H115629   0.112   6.575   6.577
 5129WAT     H215630   0.138   6.586   6.737
 5130WAT      O15631   4.417   6.653   6.197
 5130WAT     H115632   4.417   6.737   6.252
 5130WAT     H215633   4.425   6.677   6.101
 5131WAT      O15634   3.955   7.203   7.960
 5131WAT     H115635   4.012   7.120   7.958
 5131WAT     H215636   3.877   7.191   7.899
 5132WAT      O15637   2.053   2.661   0.408
 5132WAT     H115638   1.955   2.680   0.415
 5132WAT     H215639   2.067   2.562   0.397
 5133WAT      O15640   0.364   1.114   4.222
 5133WAT     H115641   0.404   1.154   4.140
 5133WAT     H215642   0.302   1.039   4.196
 5134WAT      O15643   2.216   9.174   8.933
 5134WAT     H115644   2.195   9.083   8.896
 5134WAT     H215645   2.268   9.165   9.018
 5135WAT      O15646   7.732   4.707   4.537
 5135WAT     H115647   7.815   4.747   4.498
 5135WAT     H215648   7.756   4.645   4.611
 5136WAT      O15649   9.616   9.471   9.305
 5136WAT     H115650   9.587   9.552   9.255
 5136WAT     H215651   9.562   9.463   9.389
 5137WAT      O15652   8.576   2.208   3.174
 5137WAT     H115653   8.549   2.161   3.090
 5137WAT     H215654   8.669   2.242   3.165
 5138WAT      O15655   0.965   2.348   4.711
 5138WAT     H115656   0.888   2.335   4.649
 5138WAT     H215657   0.985   2.446   4.720
 5139WAT      O15658   3.807   2.418   4.721
 5139WAT     H115659   3.723   2.441   4.770
 5139WAT     H215660   3.884   2.416   4.786
 5140WAT      O15661   6.881   9.236   5.015
 5140WAT     H115662   6.837   9.298   5.080
 5140WAT     H215663   6.972   9.270   4.993
 5141WAT      O15664   7.199   6.433   5.413
 5141WAT     H115665   7.230   6.339   5.397
 5141WAT     H215666   7.135   6.434   5.491
 5142WAT      O15667   6.428   4.745   5.539
 5142WAT     H115668   6.346   4.791   5.504
 5142WAT     H215669   6.410   4.710   5.631
 5143WAT      O15670   3.871   3.526   6.223
 5143WAT     H115671   3.936   3.602   6.225
 5143WAT     H215672   3.904   3.451   6.280
 5144WAT      O15673   7.681   8.500   7.315
 5144WAT     H115674   7.629   8.551   7.246
 5144WAT     H215675   7.735   8.429   7.269
 5145WAT      O15676   4.820   6.097   9.199
 5145WAT     H115677   4.858   6.085   9.107
 5145WAT     H215678   4.812   6.008   9.243
 5146WAT      O15679   2.876   4.074   1.093
 5146WAT     H115680   2.966   4.047   1.060
 5146WAT     H215681   2.867   4.050   1.190
 5147WAT      O15682   9.026   9.274   5.696
 5147WAT     H115683   9.108   9.219   5.680
 5147WAT     H215684   9.053   9.363   5.732
 5148WAT      O15685   1.262   8.360   8.189
 5148WAT     H115686   1.331   8.399   8.127
 5148WAT     H215687   1.305   8.340   8.277
 5149WAT      O15688   5.180   3.836   7.022
 5149WAT     H115689   5.200   3.934   7.028
 5149WAT     H215690   5.260   3.787   6.986
 5150WAT      O15691   4.742   0.948   6.530
 5150WAT     H115692   4.801   0.932   6.609
 5150WAT     H215693   4.685   1.028   6.546
 5151WAT      O15694   1.191   1.185   9.892
 5151WAT     H115695   1.139   1.147   9.816
 5151WAT     H215696   1.265   1.243   9.857
 5152WAT      O15697   4.022   4.700   9.644
 5152WAT     H115698   3.969   4.619   9.623
 5152WAT     H215699   3.971   4.782   9.616
 5153WAT      O15700   6.586   8.292   9.633
 5153WAT     H115701   6.678   8.331   9.630
 5153WAT     H215702   6.546   8.293   9.542
 5154WAT      O15703   7.092   9.686   1.368
 5154WAT     H115704   7.041   9.724   1.291
 5154WAT     H215705   7.145   9.607   1.338
 5155WAT      O15706   7.347   1.337   5.752
 5155WAT     H115707   7.361   1.294   5.662
 5155WAT     H215708   7.303   1.426   5.741
 5156WAT      O15709   7.735   2.782   8.367
 5156WAT     H115710   7.763   2.692   8.333
 5156WAT     H215711   7.805   2.818   8.429
 5157WAT      O15712   4.464   0.273   5.081
 5157WAT     H115713   4.450   0.217   4.999
 5157WAT     H215714   4.458   0.370   5.056
 5158WAT      O15715   1.060   6.618   3.938
 5158WAT     H115716   1.081   6.529   3.978
 5158WAT     H215717   1.137   6.680   3.954
 5159WAT      O15718   0.451   8.099   7.551
 5159WAT     H115719   0.477   8.086   7.646
 5159WAT     H215720   0.523   8.065   7.491
 5160WAT      O15721   2.906   3.476   2.425
 5160WAT     H115722   2.884   3.556   2.481
 5160WAT     H215723   2.917   3.505   2.330
 5161WAT      O15724   5.127   3.189   9.849
 5161WAT     H115725   5.147   3.277   9.807
 5161WAT     H215726   5.029   3.169   9.840
 5162WAT      O15727   6.247   2.718   0.723
 5162WAT     H115728   6.168   2.729   0.783
 5162WAT     H215729   6.329   2.707   0.778
 5163WAT      O15730   2.407   0.736   1.221
 5163WAT     H115731   2.479   0.804   1.215
 5163WAT     H215732   2.341   0.751   1.147
 5164WAT      O15733   6.070   1.256   7.867
 5164WAT     H115734   5.986   1.208   7.895
 5164WAT     H215735   6.136   1.254   7.942
 5165WAT      O15736   4.442   4.614   0.016
 5165WAT     H115737   4.476   4.576   0.102
 5165WAT     H215738   4.397   4.542  -0.036
 5166WAT      O15739   3.680   3.707   4.633
 5166WAT     H115740   3.716   3.790   4.675
 5166WAT     H215741   3.672   3.636   4.703
 5167WAT      O15742   8.524   6.449   6.434
 5167WAT     H115743   8.471   6.500   6.501
 5167WAT     H215744   8.477   6.363   6.412
 5168WAT      O15745   0.290   7.126   3.493
 5168WAT     H115746   0.378   7.084   3.517
 5168WAT     H215747   0.283   7.216   3.537
 5169WAT      O15748   3.880   8.322   0.540
 5169WAT     H115749   3.908   8.236   0.581
 5169WAT     H215750   3.808   8.364   0.596
 5170WAT      O15751   4.377   3.766   2.864
 5170WAT     H115752   4.409   3.845   2.916
 5170WAT     H215753   4.375   3.789   2.767
 5171WAT      O15754   1.029   2.115   6.174
 5171WAT     H115755   0.982   2.187   6.124
 5171WAT     H215756   1.013   2.126   6.272
 5172WAT      O15757   2.047   3.393   6.648
 5172WAT     H115758   2.087   3.462   6.709
 5172WAT     H215759   1.973   3.434   6.595
 5173WAT      O15760   4.708   9.260   4.480
 5173WAT     H115761   4.804   9.247   4.458
 5173WAT     H215762   4.653   9.256   4.396
 5174WAT      O15763   1.715   1.820   8.060
 5174WAT     H115764   1.733   1.904   8.008
 5174WAT     H215765   1.632   1.777   8.025
 5175WAT      O15766   0.384   7.937   0.389
 5175WAT     H115767   0.432   7.858   0.427
 5175WAT     H215768   0.372   8.007   0.460
 5176WAT      O15769   8.530   3.691   4.708
 5176WAT     H115770   8.512   3.610   4.765
 5176WAT     H215771   8.624   3.721   4.721
 5177WAT      O15772   2.913   4.444   3.699
 5177WAT     H115773   2.953   4.530   3.733
 5177WAT     H215774   2.959   4.418   3.614
 5178WAT      O15775   2.810   4.136   6.157
 5178WAT     H115776   2.739   4.193   6.117
 5178WAT     H215777   2.772   4.082   6.232
 5179WAT      O15778   4.063   1.979   8.178
 5179WAT     H115779   4.002   1.904   8.153
 5179WAT     H215780   4.056   2.052   8.110
 5180WAT      O15781   5.675   2.551   8.548
 5180WAT     H115782   5.616   2.596   8.616
 5180WAT     H215783   5.731   2.482   8.594
 5181WAT      O15784   1.628   9.077   4.099
 5181WAT     H115785   1.702   9.083   4.032
 5181WAT     H215786   1.542   9.059   4.053
 5182WAT      O15787   9.343   4.031   4.849
 5182WAT     H115788   9.349   4.124   4.812
 5182WAT     H215789   9.385   3.967   4.785
 5183WAT      O15790   2.937   0.469   2.958
 5183WAT     H115791   2.972   0.410   3.031
 5183WAT     H215792   3.005   0.538   2.935
 5184WAT      O15793   7.191   7.560   2.390
 5184WAT     H115794   7.170   7.643   2.443
 5184WAT     H215795   7.135   7.559   2.307
 5185WAT      O15796   4.944   5.719   0.911
 5185WAT     H115797   4.874   5.714   0.840
 5185WAT     H215798   4.910   5.673   0.994
 5186WAT      O15799   4.132   1.800   5.172
 5186WAT     H115800   4.186   1.777   5.253
 5186WAT     H215801   4.142   1.898   5.152
 5187WAT      O15802   5.639   5.176   2.398
 5187WAT     H115803   5.655   5.216   2.488
 5187WAT     H215804   5.717   5.194   2.339
 5188WAT      O15805   2.627   4.778   8.987
 5188WAT     H115806   2.532   4.774   9.017
 5188WAT     H215807   2.640   4.720   8.907
 5189WAT      O15808   9.691   5.479   5.361
 5189WAT     H115809   9.606   5.520   5.395
 5189WAT     H215810   9.735   5.542   5.298
 5190WAT      O15811   3.555   2.153   5.739
 5190WAT     H115812   3.580   2.246   5.765
 5190WAT     H215813   3.482   2.157   5.670
 5191WAT      O15814   6.204   2.155   7.956
 5191WAT     H115815   6.128   2.180   7.896
 5191WAT     H215816   6.206   2.218   8.034
 5192WAT      O15817   4.873   2.398   8.115
 5192WAT     H115818   4.903   2.422   8.207
 5192WAT     H215819   4.820   2.313   8.118
 5193WAT      O15820   1.891   2.386   6.421
 5193WAT     H115821   1.908   2.479   6.454
 5193WAT     H215822   1.871   2.326   6.500
 5194WAT      O15823   5.245   8.719   5.265
 5194WAT     H115824   5.221   8.732   5.169
 5194WAT     H215825   5.173   8.758   5.323
 5195WAT      O15826   9.151   5.533   9.543
 5195WAT     H115827   9.136   5.466   9.471
 5195WAT     H215828   9.248   5.558   9.546
 5196WAT      O15829   2.007   4.104   6.012
 5196WAT     H115830   1.925   4.049   6.003
 5196WAT     H215831   2.056   4.106   5.924
 5197WAT      O15832   3.341   8.258   2.405
 5197WAT     H115833   3.376   8.301   2.488
 5197WAT     H215834   3.241   8.259   2.407
 5198WAT      O15835   6.193   6.410   3.923
 5198WAT     H115836   6.101   6.371   3.912
 5198WAT     H215837   6.189   6.509   3.913
 5199WAT      O15838   0.058   0.069   3.023
 5199WAT     H115839   0.106   0.155   3.041
 5199WAT     H215840   0.044   0.059   2.924
 5200WAT      O15841   9.020   2.493   1.000
 5200WAT     H115842   9.018   2.533   0.909
 5200WAT     H215843   8.926   2.477   1.031
 5201WAT      O15844   3.333   6.896   1.935
 5201WAT     H115845   3.391   6.968   1.972
 5201WAT     H215846   3.239   6.929   1.929
 5202WAT      O15847   2.233   6.636   7.345
 5202WAT     H115848   2.232   6.720   7.290
 5202WAT     H215849   2.176   6.567   7.302
 5203WAT      O15850   3.208   3.951   2.236
 5203WAT     H115851   3.133   3.986   2.292
 5203WAT     H215852   3.287   4.012   2.244
 5204WAT      O15853   2.629   4.453   3.380
 5204WAT     H115854   2.683   4.537   3.370
 5204WAT     H215855   2.688   4.378   3.408
 5205WAT      O15856   4.622   8.873   5.843
 5205WAT     H115857   4.656   8.957   5.886
 5205WAT     H215858   4.538   8.893   5.794
 5206WAT      O15859   8.360   4.497   1.945
 5206WAT     H115860   8.426   4.424   1.928
 5206WAT     H215861   8.366   4.526   2.040
 5207WAT      O15862   2.093   2.912   9.788
 5207WAT     H115863   2.171   2.849   9.793
 5207WAT     H215864   2.055   2.910   9.696
 5208WAT      O15865   4.763   6.512   3.753
 5208WAT     H115866   4.690   6.525   3.686
 5208WAT     H215867   4.725   6.477   3.838
 5209WAT      O15868   7.964   4.332   3.863
 5209WAT     H115869   7.886   4.296   3.812
 5209WAT     H215870   8.012   4.257   3.908
 5210WAT      O15871   4.555   5.206   5.318
 5210WAT     H115872   4.599   5.248   5.397
 5210WAT     H215873   4.621   5.147   5.271
 5211WAT      O15874   1.751   6.206   7.654
 5211WAT     H115875   1.674   6.163   7.608
 5211WAT     H215876   1.830   6.209   7.593
 5212WAT      O15877   2.787   2.277   7.157
 5212WAT     H115878   2.786   2.361   7.211
 5212WAT     H215879   2.694   2.238   7.154
 5213WAT      O15880   8.292   0.692   0.778
 5213WAT     H115881   8.212   0.692   0.837
 5213WAT     H215882   8.346   0.609   0.796
 5214WAT      O15883   1.425   7.195   2.098
 5214WAT     H115884   1.435   7.290   2.067
 5214WAT     H215885   1.341   7.157   2.058
 5215WAT      O15886   7.925   7.037   5.179
 5215WAT     H115887   7.961   7.031   5.086
 5215WAT     H215888   7.997   7.067   5.241
 5216WAT      O15889   9.239   1.760   7.319
 5216WAT     H115890   9.213   1.722   7.230
 5216WAT     H215891   9.253   1.686   7.384
 5217WAT      O15892   4.090   8.871   4.339
 5217WAT     H115893   4.135   8.917   4.416
 5217WAT     H215894   4.146   8.794   4.308
 5218WAT      O15895   8.372   2.216   9.651
 5218WAT     H115896   8.456   2.266   9.628
 5218WAT     H215897   8.293   2.264   9.612
 5219WAT      O15898   5.975   6.023   0.924
 5219WAT     H115899   6.007   6.115   0.902
 5219WAT     H215900   6.051   5.968   0.958
 5220WAT      O15901   6.799   5.617   0.527
 5220WAT     H115902   6.889   5.573   0.520
 5220WAT     H215903   6.801   5.703   0.475
 5221WAT      O15904   3.966   6.449   0.234
 5221WAT     H115905   3.987   6.538   0.274
 5221WAT     H215906   4.045   6.389   0.243
 5222WAT      O15907   1.141   3.101   7.322
 5222WAT     H115908   1.176   3.179   7.270
 5222WAT     H215909   1.211   3.068   7.384
 5223WAT      O15910   7.350   9.185   5.207
 5223WAT     H115911   7.408   9.257   5.246
 5223WAT     H215912   7.329   9.118   5.278
 5224WAT      O15913   5.359   0.321   6.419
 5224WAT     H115914   5.351   0.371   6.333
 5224WAT     H215915   5.445   0.269   6.420
 5225WAT      O15916   9.590   1.731   3.351
 5225WAT     H115917   9.592   1.632   3.356
 5225WAT     H215918   9.642   1.761   3.271
 5226WAT      O15919   5.461   7.999   0.626
 5226WAT     H115920   5.489   7.995   0.722
 5226WAT     H215921   5.362   8.016   0.621
 5227WAT      O15922   2.515   4.068   3.953
 5227WAT     H115923   2.474   3.987   3.995
 5227WAT     H215924   2.569   4.040   3.873
 5228WAT      O15925   9.877   9.077   1.786
 5228WAT     H115926   9.976   9.083   1.768
 5228WAT     H215927   9.837   9.005   1.730
 5229WAT      O15928   1.467   1.060   8.358
 5229WAT     H115929   1.454   1.129   8.430
 5229WAT     H215930   1.564   1.049   8.339
 5230WAT      O15931   1.970   1.534   5.698
 5230WAT     H115932   1.871   1.525   5.684
 5230WAT     H215933   2.008   1.446   5.726
 5231WAT      O15934   0.760   7.315   6.696
 5231WAT     H115935   0.748   7.356   6.786
 5231WAT     H215936   0.755   7.386   6.626
 5232WAT      O15937   6.588   9.015   6.263
 5232WAT     H115938   6.491   9.021   6.238
 5232WAT     H215939   6.605   8.927   6.307
 5233WAT      O15940   7.172   0.112   5.362
 5233WAT     H115941   7.085   0.160   5.375
 5233WAT     H215942   7.166   0.022   5.406
 5234WAT      O15943   4.966   4.127   2.144
 5234WAT     H115944   4.915   4.110   2.060
 5234WAT     H215945   4.904   4.158   2.216
 5235WAT      O15946   2.875   6.759   5.250
 5235WAT     H115947   2.796   6.796   5.200
 5235WAT     H215948   2.890   6.664   5.224
 5236WAT      O15949   4.480   4.988   1.318
 5236WAT     H115950   4.533   4.920   1.368
 5236WAT     H215951   4.465   5.068   1.376
 5237WAT      O15952   5.913   4.649   5.279
 5237WAT     H115953   6.010   4.623   5.275
 5237WAT     H215954   5.903   4.743   5.246
 5238WAT      O15955   6.929   4.884   1.898
 5238WAT     H115956   6.988   4.815   1.941
 5238WAT     H215957   6.837   4.878   1.937
 5239WAT      O15958   0.503   9.228   5.006
 5239WAT     H115959   0.440   9.173   5.061
 5239WAT     H215960   0.451   9.284   4.942
 5240WAT      O15961   1.085   2.686   0.293
 5240WAT     H115962   1.154   2.676   0.221
 5240WAT     H215963   1.027   2.605   0.295
 5241WAT      O15964   6.403   5.015   2.704
 5241WAT     H115965   6.376   4.931   2.657
 5241WAT     H215966   6.503   5.018   2.712
 5242WAT      O15967   2.761   6.361   4.640
 5242WAT     H115968   2.780   6.384   4.735
 5242WAT     H215969   2.809   6.277   4.616
 5243WAT      O15970   7.565   2.165   4.519
 5243WAT     H115971   7.524   2.186   4.430
 5243WAT     H215972   7.664   2.151   4.508
 5244WAT      O15973   6.158   1.434   3.278
 5244WAT     H115974   6.202   1.519   3.305
 5244WAT     H215975   6.214   1.357   3.310
 5245WAT      O15976   2.991   6.778   0.942
 5245WAT     H115977   2.949   6.710   1.002
 5245WAT     H215978   2.932   6.795   0.864
 5246WAT      O15979   5.023   3.880   6.064
 5246WAT     H115980   5.065   3.792   6.084
 5246WAT     H215981   5.038   3.903   5.968
 5247WAT      O15982   5.393   3.160   6.759
 5247WAT     H115983   5.297   3.184   6.775
 5247WAT     H215984   5.411   3.157   6.661
 5248WAT      O15985   1.516   7.065   8.684
 5248WAT     H115986   1.518   7.157   8.724
 5248WAT     H215987   1.560   7.001   8.747
 5249WAT      O15988   6.048   1.441   1.156
 5249WAT     H115989   5.950   1.425   1.148
 5249WAT     H215990   6.082   1.483   1.071
 5250WAT      O15991   1.466   1.290   3.981
 5250WAT     H115992   1.513   1.278   3.894
 5250WAT     H215993   1.410   1.373   3.979
 5251WAT      O15994   1.055   9.725   8.903
 5251WAT     H115995   0.967   9.721   8.856
 5251WAT     H215996   1.069   9.816   8.941
 5252WAT      O15997   9.360   4.865   1.485
 5252WAT     H115998   9.305   4.917   1.419
 5252WAT     H215999   9.328   4.886   1.578
 5253WAT      O16000   1.172   5.456   6.699
 5253WAT     H116001   1.110   5.485   6.772
 5253WAT     H216002   1.243   5.397   6.738
 5254WAT      O16003   1.427   5.511   3.240
 5254WAT     H116004   1.369   5.489   3.318
 5254WAT     H216005   1.451   5.427   3.191
 5255WAT      O16006   9.632   7.457   8.375
 5255WAT     H116007   9.643   7.523   8.302
 5255WAT     H216008   9.666   7.496   8.461
 5256WAT      O16009   2.562   8.836   4.771
 5256WAT     H116010   2.487   8.849   4.835
 5256WAT     H216011   2.556   8.903   4.697
 5257WAT      O16012   4.031   7.190   9.480
 5257WAT     H116013   3.995   7.238   9.400
 5257WAT     H216014   3.963   7.123   9.511
 5258WAT      O16015   8.306   2.517   3.068
 5258WAT     H116016   8.269   2.578   2.998
 5258WAT     H216017   8.282   2.422   3.045
 5259WAT      O16018   9.874   3.660   8.616
 5259WAT     H116019   9.882   3.751   8.657
 5259WAT     H216020   9.782   3.648   8.579
 5260WAT      O16021   5.091   0.267   4.469
 5260WAT     H116022   5.154   0.190   4.459
 5260WAT     H216023   5.131   0.335   4.530
 5261WAT      O16024   0.346   9.471   1.073
 5261WAT     H116025   0.417   9.503   1.136
 5261WAT     H216026   0.282   9.546   1.053
 5262WAT      O16027   2.754   3.397   4.850
 5262WAT     H116028   2.758   3.390   4.751
 5262WAT     H216029   2.675   3.345   4.885
 5263WAT      O16030   7.661   2.795   9.479
 5263WAT     H116031   7.588   2.759   9.537
 5263WAT     H216032   7.744   2.809   9.533
 5264WAT      O16033   0.215   4.029   9.822
 5264WAT     H116034   0.238   4.048   9.917
 5264WAT     H216035   0.234   3.933   9.802
 5265WAT      O16036   7.523   4.279   0.235
 5265WAT     H116037   7.490   4.187   0.259
 5265WAT     H216038   7.605   4.271   0.179
 5266WAT      O16039   1.034   0.077   2.748
 5266WAT     H116040   0.939   0.045   2.750
 5266WAT     H216041   1.054   0.127   2.832
 5267WAT      O16042   9.720   0.234   0.713
 5267WAT     H116043   9.750   0.256   0.620
 5267WAT     H216044   9.627   0.269   0.727
 5268WAT      O16045   5.805   6.481   8.356
 5268WAT     H116046   5.897   6.501   8.323
 5268WAT     H216047   5.805   6.392   8.403
 5269WAT      O16048   9.878   7.152   7.477
 5269WAT     H116049   9.930   7.224   7.523
 5269WAT     H216050   9.835   7.093   7.546
 5270WAT      O16051   2.061   1.198   2.344
 5270WAT     H116052   2.005   1.261   2.291
 5270WAT     H216053   2.001   1.133   2.392
 5271WAT      O16054   4.041   7.546   2.933
 5271WAT     H116055   3.990   7.577   3.013
 5271WAT     H216056   4.074   7.453   2.948
 5272WAT      O16057   5.352   0.371   3.555
 5272WAT     H116058   5.367   0.340   3.461
 5272WAT     H216059   5.278   0.439   3.556
 5273WAT      O16060   5.913   5.870   9.792
 5273WAT     H116061   5.970   5.815   9.853
 5273WAT     H216062   5.826   5.824   9.778
 5274WAT      O16063   7.805   8.468   6.291
 5274WAT     H116064   7.799   8.517   6.378
 5274WAT     H216065   7.834   8.374   6.308
 5275WAT      O16066   3.415   0.324   8.236
 5275WAT     H116067   3.330   0.370   8.212
 5275WAT     H216068   3.467   0.304   8.153
 5276WAT      O16069   1.574   7.281   4.350
 5276WAT     H116070   1.664   7.317   4.326
 5276WAT     H216071   1.535   7.234   4.271
 5277WAT      O16072   6.885   5.740   7.995
 5277WAT     H116073   6.842   5.711   7.909
 5277WAT     H216074   6.918   5.834   7.985
 5278WAT      O16075   9.858   7.114   9.043
 5278WAT     H116076   9.759   7.102   9.036
 5278WAT     H216077   9.903   7.040   8.994
 5279WAT      O16078   6.028   0.741   6.325
 5279WAT     H116079   6.117   0.759   6.367
 5279WAT     H216080   5.981   0.828   6.309
 5280WAT      O16081   2.159   7.112   8.783
 5280WAT     H116082   2.130   7.145   8.693
 5280WAT     H216083   2.165   7.189   8.847
 5281WAT      O16084   5.642   8.024   2.651
 5281WAT     H116085   5.575   8.082   2.699
 5281WAT     H216086   5.707   7.988   2.718
 5282WAT      O16087   1.982   4.123   0.837
 5282WAT     H116088   2.047   4.156   0.905
 5282WAT     H216089   2.009   4.032   0.806
 5283WAT      O16090   5.873   4.069   7.693
 5283WAT     H116091   5.880   3.976   7.658
 5283WAT     H216092   5.957   4.119   7.673
 5284WAT      O16093   0.581   0.122   4.705
 5284WAT     H116094   0.636   0.044   4.676
 5284WAT     H216095   0.642   0.197   4.731
 5285WAT      O16096   7.803   0.433   0.198
 5285WAT     H116097   7.802   0.533   0.201
 5285WAT     H216098   7.895   0.401   0.178
 5286WAT      O16099   3.544   1.291   0.452
 5286WAT     H116100   3.545   1.269   0.550
 5286WAT     H216101   3.581   1.383   0.439
 5287WAT      O16102   6.610   2.925   4.461
 5287WAT     H116103   6.559   2.843   4.485
 5287WAT     H216104   6.579   2.960   4.373
 5288WAT      O16105   9.467   8.166   5.284
 5288WAT     H116106   9.529   8.245   5.286
 5288WAT     H216107   9.405   8.175   5.206
 5289WAT      O16108   6.460   9.152   1.151
 5289WAT     H116109   6.452   9.087   1.226
 5289WAT     H216110   6.536   9.215   1.169
 5290WAT      O16111   6.833   8.991   9.065
 5290WAT     H116112   6.896   9.066   9.087
 5290WAT     H216113   6.810   8.995   8.968
 5291WAT      O16114   7.680   0.712   8.689
 5291WAT     H116115   7.622   0.725   8.609
 5291WAT     H216116   7.642   0.638   8.746
 5292WAT      O16117   3.072   4.456   8.310
 5292WAT     H116118   3.001   4.396   8.271
 5292WAT     H216119   3.149   4.461   8.247
 5293WAT      O16120   8.388   0.672   3.665
 5293WAT     H116121   8.380   0.593   3.605
 5293WAT     H216122   8.297   0.700   3.695
 5294WAT      O16123   2.828   8.811   6.114
 5294WAT     H116124   2.898   8.841   6.050
 5294WAT     H216125   2.859   8.728   6.161
 5295WAT      O16126   4.572   9.815   8.604
 5295WAT     H116127   4.648   9.876   8.627
 5295WAT     H216128   4.503   9.819   8.676
 5296WAT      O16129   1.517   2.125   2.477
 5296WAT     H116130   1.484   2.196   2.539
 5296WAT     H216131   1.453   2.048   2.478
 5297WAT      O16132   2.632   8.412   7.342
 5297WAT     H116133   2.677   8.497   7.370
 5297WAT     H216134   2.697   8.336   7.347
 5298WAT      O16135   4.562   1.089   5.504
 5298WAT     H116136   4.630   1.044   5.562
 5298WAT     H216137   4.606   1.158   5.448
 5299WAT      O16138   8.971   1.575   5.225
 5299WAT     H116139   9.042   1.506   5.209
 5299WAT     H216140   8.881   1.533   5.217
 5300WAT      O16141   4.108   6.634   2.918
 5300WAT     H116142   4.187   6.655   2.860
 5300WAT     H216143   4.025   6.669   2.876
 5301WAT      O16144   8.084   0.308   9.018
 5301WAT     H116145   8.062   0.394   9.063
 5301WAT     H216146   8.022   0.293   8.941
 5302WAT      O16147   9.702   7.688   0.096
 5302WAT     H116148   9.753   7.612   0.137
 5302WAT     H216149   9.720   7.692  -0.002
 5303WAT      O16150   8.218   9.465   0.139
 5303WAT     H116151   8.199   9.437   0.045
 5303WAT     H216152   8.144   9.434   0.199
 5304WAT      O16153   4.532   7.141   8.172
 5304WAT     H116154   4.531   7.232   8.215
 5304WAT     H216155   4.542   7.071   8.242
 5305WAT      O16156   7.595   2.461   6.521
 5305WAT     H116157   7.582   2.422   6.430
 5305WAT     H216158   7.507   2.493   6.557
 5306WAT      O16159   6.937   9.019   6.491
 5306WAT     H116160   7.014   9.035   6.553
 5306WAT     H216161   6.909   8.924   6.497
 5307WAT      O16162   0.577   0.061   1.616
 5307WAT     H116163   0.609  -0.001   1.686
 5307WAT     H216164   0.494   0.024   1.573
 5308WAT      O16165   4.851   1.012   7.410
 5308WAT     H116166   4.791   1.031   7.333
 5308WAT     H216167   4.849   1.090   7.474
 5309WAT      O16168   3.128   1.665   9.238
 5309WAT     H116169   3.152   1.639   9.331
 5309WAT     H216170   3.156   1.759   9.221
 5310WAT      O16171   2.186   2.121   0.355
 5310WAT     H116172   2.143   2.210   0.370
 5310WAT     H216173   2.203   2.108   0.258
 5311WAT      O16174   1.495   8.992   2.421
 5311WAT     H116175   1.444   8.918   2.377
 5311WAT     H216176   1.568   9.023   2.360
 5312WAT      O16177   2.949   4.701   2.718
 5312WAT     H116178   3.030   4.708   2.660
 5312WAT     H216179   2.899   4.618   2.695
 5313WAT      O16180   3.318   6.844   4.399
 5313WAT     H116181   3.261   6.909   4.349
 5313WAT     H216182   3.402   6.889   4.428
 5314WAT      O16183   8.879   0.498   7.016
 5314WAT     H116184   8.820   0.544   7.082
 5314WAT     H216185   8.824   0.440   6.956
 5315WAT      O16186   3.300   1.125   5.900
 5315WAT     H116187   3.335   1.044   5.947
 5315WAT     H216188   3.224   1.164   5.952
 5316WAT      O16189   5.545   9.010   6.341
 5316WAT     H116190   5.579   8.963   6.422
 5316WAT     H216191   5.473   8.957   6.298
 5317WAT      O16192   4.415   7.371   5.034
 5317WAT     H116193   4.411   7.467   5.061
 5317WAT     H216194   4.467   7.319   5.101
 5318WAT      O16195   7.876   2.335   0.179
 5318WAT     H116196   7.803   2.399   0.202
 5318WAT     H216197   7.898   2.279   0.260
 5319WAT      O16198   5.410   7.180   9.609
 5319WAT     H116199   5.507   7.203   9.600
 5319WAT     H216200   5.366   7.188   9.520
 5320WAT      O16201   3.219   8.510   7.078
 5320WAT     H116202   3.208   8.513   6.979
 5320WAT     H216203   3.234   8.602   7.113
 5321WAT      O16204   7.015   5.005   9.692
 5321WAT     H116205   6.994   5.061   9.612
 5321WAT     H216206   7.060   5.061   9.761
 5322WAT      O16207   7.987   5.101   0.399
 5322WAT     H116208   7.941   5.160   0.465
 5322WAT     H216209   8.023   5.158   0.324
 5323WAT      O16210   8.283   0.162   2.762
 5323WAT     H116211   8.373   0.123   2.742
 5323WAT     H216212   8.212   0.103   2.724
 5324WAT      O16213   0.024   4.988   6.067
 5324WAT     H116214   0.088   5.050   6.113
 5324WAT     H216215  -0.024   5.038   5.995
 5325WAT      O16216   9.462   1.629   5.685
 5325WAT     H116217   9.502   1.718   5.663
 5325WAT     H216218   9.390   1.607   5.619
 5326WAT      O16219   3.645   8.517   5.735
 5326WAT     H116220   3.649   8.595   5.796
 5326WAT     H216221   3.576   8.532   5.665
 5327WAT      O16222   7.384   8.835   3.102
 5327WAT     H116223   7.426   8.913   3.055
 5327WAT     H216224   7.423   8.750   3.068
 5328WAT      O16225   7.318   3.640   3.594
 5328WAT     H116226   7.232   3.593   3.613
 5328WAT     H216227   7.395   3.585   3.626
 5329WAT      O16228   8.704   4.733   7.458
 5329WAT     H116229   8.702   4.755   7.555
 5329WAT     H216230   8.767   4.797   7.412
 5330WAT      O16231   4.368   6.086   6.987
 5330WAT     H116232   4.346   6.171   7.035
 5330WAT     H216233   4.465   6.066   7.000
 5331WAT      O16234   5.502   3.485   0.034
 5331WAT     H116235   5.492   3.393  -0.005
 5331WAT     H216236   5.456   3.551  -0.024
 5332WAT      O16237   2.830   4.871   0.536
 5332WAT     H116238   2.841   4.961   0.580
 5332WAT     H216239   2.746   4.871   0.482
 5333WAT      O16240   2.059   2.976   8.716
 5333WAT     H116241   2.063   2.930   8.805
 5333WAT     H216242   2.027   2.911   8.647
 5334WAT      O16243   6.436   5.221   2.908
 5334WAT     H116244   6.346   5.240   2.947
 5334WAT     H216245   6.426   5.168   2.824
 5335WAT      O16246   6.889   7.116   7.508
 5335WAT     H116247   6.951   7.038   7.512
 5335WAT     H216248   6.923   7.190   7.566
 5336WAT      O16249   6.739   0.887   7.034
 5336WAT     H116250   6.710   0.846   7.121
 5336WAT     H216251   6.831   0.924   7.044
 5337WAT      O16252   9.754   9.012   0.378
 5337WAT     H116253   9.715   8.974   0.294
 5337WAT     H216254   9.702   8.978   0.457
 5338WAT      O16255   8.332   4.907   7.107
 5338WAT     H116256   8.303   5.002   7.111
 5338WAT     H216257   8.348   4.872   7.200
 5339WAT      O16258   6.702   2.227   7.971
 5339WAT     H116259   6.659   2.141   7.944
 5339WAT     H216260   6.772   2.251   7.904
 5340WAT      O16261   4.377   0.151   3.977
 5340WAT     H116262   4.280   0.174   3.977
 5340WAT     H216263   4.388   0.053   3.995
 5341WAT      O16264   4.778   8.769   7.689
 5341WAT     H116265   4.717   8.743   7.764
 5341WAT     H216266   4.770   8.703   7.615
 5342WAT      O16267   7.623   8.838   7.390
 5342WAT     H116268   7.709   8.844   7.440
 5342WAT     H216269   7.547   8.856   7.452
 5343WAT      O16270   4.566   1.350   8.383
 5343WAT     H116271   4.500   1.295   8.435
 5343WAT     H216272   4.527   1.440   8.363
 5344WAT      O16273   4.224   7.389   0.778
 5344WAT     H116274   4.140   7.357   0.823
 5344WAT     H216275   4.218   7.371   0.680
 5345WAT      O16276   2.658   7.062   4.456
 5345WAT     H116277   2.683   7.002   4.380
 5345WAT     H216278   2.698   7.153   4.441
 5346WAT      O16279   5.828   0.923   7.175
 5346WAT     H116280   5.914   0.950   7.133
 5346WAT     H216281   5.752   0.947   7.115
 5347WAT      O16282   1.648   8.221   6.881
 5347WAT     H116283   1.620   8.262   6.795
 5347WAT     H216284   1.740   8.183   6.872
 5348WAT      O16285   8.378   7.308   5.335
 5348WAT     H116286   8.465   7.260   5.319
 5348WAT     H216287   8.397   7.403   5.361
 5349WAT      O16288   0.146   5.970   1.113
 5349WAT     H116289   0.176   6.061   1.083
 5349WAT     H216290   0.134   5.911   1.033
 5350WAT      O16291   5.469   0.352   1.694
 5350WAT     H116292   5.495   0.291   1.619
 5350WAT     H216293   5.453   0.298   1.777
 5351WAT      O16294   8.285   8.919   4.059
 5351WAT     H116295   8.322   8.839   4.012
 5351WAT     H216296   8.350   8.950   4.129
 5352WAT      O16297   3.490   5.623   7.601
 5352WAT     H116298   3.486   5.524   7.598
 5352WAT     H216299   3.513   5.653   7.694
 5353WAT      O16300   2.755   0.248   1.104
 5353WAT     H116301   2.849   0.259   1.138
 5353WAT     H216302   2.754   0.175   1.035
 5354WAT      O16303   1.811   7.039   0.255
 5354WAT     H116304   1.753   7.064   0.333
 5354WAT     H216305   1.800   6.942   0.235
 5355WAT      O16306   0.107   4.435   7.839
 5355WAT     H116307   0.101   4.526   7.798
 5355WAT     H216308   0.142   4.443   7.933
 5356WAT      O16309   8.021   2.388   5.634
 5356WAT     H116310   8.077   2.470   5.623
 5356WAT     H216311   8.000   2.374   5.731
 5357WAT      O16312   0.544   0.638   0.304
 5357WAT     H116313   0.542   0.588   0.218
 5357WAT     H216314   0.555   0.574   0.380
 5358WAT      O16315   2.250   2.528   7.194
 5358WAT     H116316   2.261   2.501   7.099
 5358WAT     H216317   2.163   2.492   7.229
 5359WAT      O16318   0.726   5.877   5.424
 5359WAT     H116319   0.787   5.955   5.413
 5359WAT     H216320   0.643   5.906   5.473
 5360WAT      O16321   2.981   4.074   2.368
 5360WAT     H116322   3.000   4.172   2.361
 5360WAT     H216323   2.962   4.051   2.464
 5361WAT      O16324   2.195   6.813   7.113
 5361WAT     H116325   2.287   6.807   7.073
 5361WAT     H216326   2.165   6.909   7.112
 5362WAT      O16327   2.821   0.833   4.557
 5362WAT     H116328   2.901   0.790   4.516
 5362WAT     H216329   2.753   0.764   4.579
 5363WAT      O16330   6.355   0.491   9.120
 5363WAT     H116331   6.271   0.443   9.096
 5363WAT     H216332   6.362   0.574   9.065
 5364WAT      O16333   0.277   2.919   6.540
 5364WAT     H116334   0.208   2.885   6.476
 5364WAT     H216335   0.354   2.856   6.541
 5365WAT      O16336   1.418   6.599   9.186
 5365WAT     H116337   1.355   6.567   9.257
 5365WAT     H216338   1.486   6.660   9.226
 5366WAT      O16339   5.742   2.313   2.573
 5366WAT     H116340   5.727   2.359   2.485
 5366WAT     H216341   5.813   2.362   2.624
 5367WAT      O16342   3.961   7.387   2.550
 5367WAT     H116343   3.904   7.309   2.572
 5367WAT     H216344   3.944   7.461   2.615
 5368WAT      O16345   6.056   7.686   6.718
 5368WAT     H116346   6.042   7.587   6.725
 5368WAT     H216347   5.999   7.723   6.645
 5369WAT      O16348   1.539   0.361   2.652
 5369WAT     H116349   1.504   0.318   2.735
 5369WAT     H216350   1.470   0.356   2.579
 5370WAT      O16351   9.345   1.990   5.894
 5370WAT     H116352   9.338   1.894   5.924
 5370WAT     H216353   9.266   2.013   5.838
 5371WAT      O16354   4.896   2.419   5.688
 5371WAT     H116355   4.930   2.481   5.759
 5371WAT     H216356   4.852   2.340   5.731
 5372WAT      O16357   4.619   1.398   3.803
 5372WAT     H116358   4.719   1.404   3.799
 5372WAT     H216359   4.581   1.433   3.717
 5373WAT      O16360   3.936   3.356   7.815
 5373WAT     H116361   3.853   3.385   7.769
 5373WAT     H216362   3.982   3.436   7.855
 5374WAT      O16363   2.598   7.857   6.336
 5374WAT     H116364   2.584   7.954   6.356
 5374WAT     H216365   2.606   7.844   6.237
 5375WAT      O16366   3.311   2.718   2.316
 5375WAT     H116367   3.304   2.643   2.382
 5375WAT     H216368   3.219   2.746   2.288
 5376WAT      O16369   9.557   6.732   9.549
 5376WAT     H116370   9.564   6.813   9.490
 5376WAT     H216371   9.607   6.748   9.634
 5377WAT      O16372   7.921   3.702   1.295
 5377WAT     H116373   7.970   3.786   1.273
 5377WAT     H216374   7.840   3.694   1.237
 5378WAT      O16375   4.477   8.769   1.292
 5378WAT     H116376   4.547   8.795   1.226
 5378WAT     H216377   4.445   8.676   1.273
 5379WAT      O16378   7.698   5.904   2.804
 5379WAT     H116379   7.600   5.925   2.801
 5379WAT     H216380   7.749   5.973   2.754
 5380WAT      O16381   4.323   8.737   0.056
 5380WAT     H116382   4.270   8.821   0.048
 5380WAT     H216383   4.370   8.736   0.145
 5381WAT      O16384   7.187   7.024   5.754
 5381WAT     H116385   7.177   6.992   5.848
 5381WAT     H216386   7.276   6.997   5.718
 5382WAT      O16387   9.632   2.237   0.025
 5382WAT     H116388   9.611   2.139   0.023
 5382WAT     H216389   9.548   2.290   0.018
 5383WAT      O16390   2.246   7.403   4.134
 5383WAT     H116391   2.242   7.371   4.229
 5383WAT     H216392   2.325   7.362   4.089
 5384WAT      O16393   4.527   6.286   0.539
 5384WAT     H116394   4.533   6.228   0.620
 5384WAT     H216395   4.484   6.373   0.564
 5385WAT      O16396   3.966   9.502   3.885
 5385WAT     H116397   3.925   9.498   3.794
 5385WAT     H216398   3.894   9.492   3.954
 5386WAT      O16399   5.807   0.347   8.338
 5386WAT     H116400   5.854   0.341   8.425
 5386WAT     H216401   5.860   0.403   8.274
 5387WAT      O16402   3.152   9.796   5.978
 5387WAT     H116403   3.058   9.819   6.005
 5387WAT     H216404   3.154   9.701   5.945
 5388WAT      O16405   3.162   4.072   8.448
 5388WAT     H116406   3.102   4.086   8.370
 5388WAT     H216407   3.130   3.994   8.502
 5389WAT      O16408   8.893   1.328   6.672
 5389WAT     H116409   8.992   1.313   6.664
 5389WAT     H216410   8.849   1.244   6.704
 5390WAT      O16411   0.647   8.386   0.490
 5390WAT     H116412   0.699   8.324   0.430
 5390WAT     H216413   0.614   8.463   0.436
 5391WAT      O16414   3.146   7.735   7.379
 5391WAT     H116415   3.128   7.652   7.328
 5391WAT     H216416   3.060   7.786   7.391
 5392WAT      O16417   1.734   1.054   8.342
 5392WAT     H116418   1.749   1.065   8.440
 5392WAT     H216419   1.772   0.966   8.311
 5393WAT      O16420   6.837   3.268   0.906
 5393WAT     H116421   6.791   3.229   0.826
 5393WAT     H216422   6.928   3.301   0.878
 5394WAT      O16423   4.714   2.174   2.762
 5394WAT     H116424   4.667   2.097   2.719
 5394WAT     H216425   4.804   2.144   2.794
 5395WAT      O16426   2.316   4.788   4.781
 5395WAT     H116427   2.256   4.709   4.793
 5395WAT     H216428   2.261   4.867   4.754
 5396WAT      O16429   0.552   2.753   8.821
 5396WAT     H116430   0.610   2.825   8.857
 5396WAT     H216431   0.605   2.670   8.808
 5397WAT      O16432   1.056   7.834   7.496
 5397WAT     H116433   0.980   7.777   7.526
 5397WAT     H216434   1.050   7.848   7.397
 5398WAT      O16435   4.022   6.489   6.942
 5398WAT     H116436   3.936   6.503   6.991
 5398WAT     H216437   4.092   6.455   7.005
 5399WAT      O16438   1.707   9.177   4.812
 5399WAT     H116439   1.802   9.186   4.781
 5399WAT     H216440   1.667   9.094   4.774
 5400WAT      O16441   4.743   6.605   5.070
 5400WAT     H116442   4.751   6.589   5.168
 5400WAT     H216443   4.646   6.612   5.045
 5401WAT      O16444   9.211   1.791   6.819
 5401WAT     H116445   9.133   1.788   6.881
 5401WAT     H216446   9.291   1.828   6.867
 5402WAT      O16447   6.959   4.405   5.935
 5402WAT     H116448   6.964   4.306   5.929
 5402WAT     H216449   6.937   4.443   5.845
 5403WAT      O16450   3.140   0.394   9.571
 5403WAT     H116451   3.158   0.461   9.644
 5403WAT     H216452   3.106   0.442   9.490
 5404WAT      O16453   8.348   5.342   2.604
 5404WAT     H116454   8.431   5.320   2.552
 5404WAT     H216455   8.273   5.283   2.573
 5405WAT      O16456   3.685   6.678   2.590
 5405WAT     H116457   3.779   6.680   2.556
 5405WAT     H216458   3.636   6.601   2.548
 5406WAT      O16459   8.694   5.180   7.006
 5406WAT     H116460   8.749   5.096   7.001
 5406WAT     H216461   8.659   5.203   6.916
 5407WAT      O16462   2.385   8.902   7.788
 5407WAT     H116463   2.374   8.873   7.883
 5407WAT     H216464   2.466   8.858   7.749
 5408WAT      O16465   1.868   8.665   4.983
 5408WAT     H116466   1.801   8.717   5.036
 5408WAT     H216467   1.860   8.568   5.003
 5409WAT      O16468   7.668   4.359   0.570
 5409WAT     H116469   7.688   4.418   0.492
 5409WAT     H216470   7.596   4.294   0.546
 5410WAT      O16471   0.053   9.679   7.413
 5410WAT     H116472   0.025   9.584   7.425
 5410WAT     H216473   0.139   9.695   7.462
 5411WAT      O16474   8.424   7.280   0.740
 5411WAT     H116475   8.461   7.236   0.822
 5411WAT     H216476   8.497   7.331   0.694
 5412WAT      O16477   7.726   9.538   5.491
 5412WAT     H116478   7.720   9.458   5.551
 5412WAT     H216479   7.822   9.561   5.476
 5413WAT      O16480   8.914   5.170   3.231
 5413WAT     H116481   9.012   5.154   3.222
 5413WAT     H216482   8.882   5.230   3.158
 5414WAT      O16483   7.061   5.150   8.478
 5414WAT     H116484   6.994   5.183   8.411
 5414WAT     H216485   7.014   5.127   8.564
 5415WAT      O16486   1.243   8.001   9.366
 5415WAT     H116487   1.209   7.935   9.433
 5415WAT     H216488   1.322   7.962   9.318
 5416WAT      O16489   3.746   2.279   1.464
 5416WAT     H116490   3.782   2.357   1.516
 5416WAT     H216491   3.646   2.281   1.467
 5417WAT      O16492   2.894   5.505   0.871
 5417WAT     H116493   2.951   5.460   0.941
 5417WAT     H216494   2.799   5.473   0.881
 5418WAT      O16495   5.487   2.625   1.736
 5418WAT     H116496   5.558   2.591   1.798
 5418WAT     H216497   5.434   2.547   1.702
 5419WAT      O16498   7.722   8.404   4.579
 5419WAT     H116499   7.683   8.480   4.630
 5419WAT     H216500   7.758   8.437   4.492
 5420WAT      O16501   4.797   0.159   8.736
 5420WAT     H116502   4.886   0.205   8.729
 5420WAT     H216503   4.803   0.087   8.805
 5421WAT      O16504   7.892   1.064   0.244
 5421WAT     H116505   7.923   1.024   0.158
 5421WAT     H216506   7.795   1.088   0.238
 5422WAT      O16507   3.435   4.496   1.137
 5422WAT     H116508   3.492   4.453   1.066
 5422WAT     H216509   3.408   4.427   1.204
 5423WAT      O16510   4.194   2.056   5.062
 5423WAT     H116511   4.195   2.150   5.029
 5423WAT     H216512   4.173   1.994   4.986
 5424WAT      O16513   7.561   9.639   4.026
 5424WAT     H116514   7.586   9.654   3.930
 5424WAT     H216515   7.556   9.541   4.044
 5425WAT      O16516   8.221   8.369   6.465
 5425WAT     H116517   8.271   8.379   6.551
 5425WAT     H216518   8.254   8.287   6.417
 5426WAT      O16519   5.324   4.764   8.161
 5426WAT     H116520   5.329   4.665   8.162
 5426WAT     H216521   5.245   4.794   8.108
 5427WAT      O16522   0.564   5.565   9.417
 5427WAT     H116523   0.585   5.468   9.407
 5427WAT     H216524   0.542   5.604   9.327
 5428WAT      O16525   3.284   2.462   2.471
 5428WAT     H116526   3.374   2.457   2.428
 5428WAT     H216527   3.262   2.373   2.512
 5429WAT      O16528   0.461   4.857   1.890
 5429WAT     H116529   0.547   4.831   1.935
 5429WAT     H216530   0.388   4.795   1.918
 5430WAT      O16531   9.833   1.869   1.006
 5430WAT     H116532   9.894   1.791   1.015
 5430WAT     H216533   9.825   1.895   0.910
 5431WAT      O16534   9.327   9.577   3.696
 5431WAT     H116535   9.406   9.591   3.756
 5431WAT     H216536   9.354   9.585   3.601
 5432WAT      O16537   0.375   9.583   0.473
 5432WAT     H116538   0.382   9.661   0.410
 5432WAT     H216539   0.371   9.498   0.420
 5433WAT      O16540   6.467   1.293   4.921
 5433WAT     H116541   6.444   1.200   4.953
 5433WAT     H216542   6.442   1.359   4.992
 5434WAT      O16543   1.689   3.635   2.789
 5434WAT     H116544   1.692   3.547   2.836
 5434WAT     H216545   1.687   3.621   2.690
 5435WAT      O16546   0.778   6.259   9.566
 5435WAT     H116547   0.862   6.250   9.619
 5435WAT     H216548   0.757   6.171   9.524
 5436WAT      O16549   7.219   4.099   7.340
 5436WAT     H116550   7.239   4.138   7.250
 5436WAT     H216551   7.145   4.150   7.383
 5437WAT      O16552   8.313   7.848   0.566
 5437WAT     H116553   8.301   7.846   0.467
 5437WAT     H216554   8.380   7.780   0.593
 5438WAT      O16555   7.329   4.902   4.546
 5438WAT     H116556   7.420   4.944   4.549
 5438WAT     H216557   7.265   4.965   4.503
 5439WAT      O16558   3.779   1.313   2.617
 5439WAT     H116559   3.870   1.275   2.601
 5439WAT     H216560   3.715   1.239   2.634
 5440WAT      O16561   8.750   0.922   1.691
 5440WAT     H116562   8.720   0.995   1.629
 5440WAT     H216563   8.791   0.849   1.638
 5441WAT      O16564   7.565   3.621   6.272
 5441WAT     H116565   7.474   3.652   6.244
 5441WAT     H216566   7.557   3.565   6.354
 5442WAT      O16567   8.699   7.149   1.498
 5442WAT     H116568   8.722   7.129   1.593
 5442WAT     H216569   8.647   7.073   1.460
 5443WAT      O16570   2.414   9.378   2.708
 5443WAT     H116571   2.327   9.356   2.753
 5443WAT     H216572   2.398   9.391   2.610
 5444WAT      O16573   3.737   0.256   3.375
 5444WAT     H116574   3.789   0.336   3.344
 5444WAT     H216575   3.667   0.284   3.440
 5445WAT      O16576   9.487   7.581   6.195
 5445WAT     H116577   9.585   7.564   6.203
 5445WAT     H216578   9.469   7.679   6.200
 5446WAT      O16579   4.006   1.466   3.801
 5446WAT     H116580   3.957   1.380   3.786
 5446WAT     H216581   4.101   1.456   3.769
 5447WAT      O16582   5.901   3.453   8.241
 5447WAT     H116583   5.929   3.407   8.157
 5447WAT     H216584   5.909   3.552   8.230
 5448WAT      O16585   3.581   0.791   3.968
 5448WAT     H116586   3.529   0.706   3.957
 5448WAT     H216587   3.529   0.856   4.023
 5449WAT      O16588   9.453   1.388   0.386
 5449WAT     H116589   9.421   1.316   0.447
 5449WAT     H216590   9.428   1.367   0.292
 5450WAT      O16591   9.642   1.980   0.600
 5450WAT     H116592   9.694   2.046   0.547
 5450WAT     H216593   9.597   2.026   0.676
 5451WAT      O16594   8.515   8.874   8.668
 5451WAT     H116595   8.435   8.834   8.712
 5451WAT     H216596   8.537   8.822   8.586
 5452WAT      O16597   2.168   0.112   4.504
 5452WAT     H116598   2.207   0.140   4.592
 5452WAT     H216599   2.072   0.087   4.516
 5453WAT      O16600   6.727   1.031   7.477
 5453WAT     H116601   6.653   1.024   7.543
 5453WAT     H216602   6.726   1.121   7.434
 5454WAT      O16603   2.222   5.192   3.772
 5454WAT     H116604   2.306   5.183   3.826
 5454WAT     H216605   2.145   5.152   3.821
 5455WAT      O16606   6.287   1.227   4.424
 5455WAT     H116607   6.345   1.146   4.432
 5455WAT     H216608   6.319   1.298   4.487
 5456WAT      O16609   7.199   2.273   0.796
 5456WAT     H116610   7.172   2.201   0.732
 5456WAT     H216611   7.130   2.282   0.867
 5457WAT      O16612   1.675   5.384   6.571
 5457WAT     H116613   1.613   5.307   6.560
 5457WAT     H216614   1.654   5.432   6.656
 5458WAT      O16615   6.834   8.166   7.102
 5458WAT     H116616   6.841   8.109   7.184
 5458WAT     H216617   6.784   8.250   7.124
 5459WAT      O16618   6.321   6.035   4.376
 5459WAT     H116619   6.328   6.108   4.308
 5459WAT     H216620   6.313   6.075   4.468
 5460WAT      O16621   1.574   7.838   2.297
 5460WAT     H116622   1.587   7.864   2.393
 5460WAT     H216623   1.516   7.906   2.251
 5461WAT      O16624   2.566   8.681   7.008
 5461WAT     H116625   2.547   8.585   7.027
 5461WAT     H216626   2.535   8.737   7.085
 5462WAT      O16627   3.858   6.691   8.647
 5462WAT     H116628   3.922   6.748   8.595
 5462WAT     H216629   3.893   6.678   8.739
 5463WAT      O16630   8.792   9.226   0.873
 5463WAT     H116631   8.708   9.173   0.863
 5463WAT     H216632   8.854   9.178   0.935
 5464WAT      O16633   5.030   1.710   0.935
 5464WAT     H116634   4.942   1.757   0.935
 5464WAT     H216635   5.100   1.771   0.971
 5465WAT      O16636   4.228   0.769   4.705
 5465WAT     H116637   4.193   0.735   4.618
 5465WAT     H216638   4.158   0.757   4.776
 5466WAT      O16639   4.268   7.333   7.150
 5466WAT     H116640   4.183   7.346   7.099
 5466WAT     H216641   4.251   7.347   7.248
 5467WAT      O16642   2.791   3.975   7.771
 5467WAT     H116643   2.734   3.969   7.853
 5467WAT     H216644   2.776   3.894   7.714
 5468WAT      O16645   2.487   1.445   2.407
 5468WAT     H116646   2.570   1.408   2.447
 5468WAT     H216647   2.412   1.437   2.472
 5469WAT      O16648   2.871   1.058   4.151
 5469WAT     H116649   2.951   1.086   4.205
 5469WAT     H216650   2.872   0.958   4.142
 5470WAT      O16651   5.696   1.993   2.562
 5470WAT     H116652   5.641   2.020   2.641
 5470WAT     H216653   5.696   2.066   2.495
 5471WAT      O16654   1.603   6.975   7.365
 5471WAT     H116655   1.645   6.914   7.431
 5471WAT     H216656   1.582   6.924   7.282
 5472WAT      O16657   1.683   1.539   6.493
 5472WAT     H116658   1.596   1.545   6.542
 5472WAT     H216659   1.692   1.617   6.430
 5473WAT      O16660   7.591   6.705   9.057
 5473WAT     H116661   7.638   6.792   9.045
 5473WAT     H216662   7.620   6.641   8.986
 5474WAT      O16663   6.038   8.067   1.998
 5474WAT     H116664   6.020   8.096   2.093
 5474WAT     H216665   6.009   7.972   1.987
 5475WAT      O16666   8.720   1.593   6.274
 5475WAT     H116667   8.659   1.593   6.353
 5475WAT     H216668   8.676   1.544   6.198
 5476WAT      O16669   7.646   8.149   4.527
 5476WAT     H116670   7.585   8.137   4.448
 5476WAT     H216671   7.649   8.246   4.551
 5477WAT      O16672   2.898   9.038   7.070
 5477WAT     H116673   2.839   9.086   7.005
 5477WAT     H216674   2.870   8.942   7.076
 5478WAT      O16675   1.856   3.483   5.511
 5478WAT     H116676   1.909   3.566   5.495
 5478WAT     H216677   1.915   3.413   5.550
 5479WAT      O16678   7.649   6.416   7.869
 5479WAT     H116679   7.635   6.378   7.960
 5479WAT     H216680   7.639   6.516   7.873
 5480WAT      O16681   7.654   8.944   9.406
 5480WAT     H116682   7.699   8.859   9.377
 5480WAT     H216683   7.614   8.989   9.326
 5481WAT      O16684   0.136   8.243   2.018
 5481WAT     H116685   0.137   8.145   2.033
 5481WAT     H216686   0.069   8.286   2.079
 5482WAT      O16687   3.245   6.227   1.464
 5482WAT     H116688   3.296   6.162   1.409
 5482WAT     H216689   3.147   6.213   1.452
 5483WAT      O16690   4.202   9.824   8.604
 5483WAT     H116691   4.175   9.774   8.522
 5483WAT     H216692   4.285   9.785   8.641
 5484WAT      O16693   9.455   7.751   7.551
 5484WAT     H116694   9.361   7.717   7.555
 5484WAT     H216695   9.500   7.717   7.469
 5485WAT      O16696   7.920   4.139   9.058
 5485WAT     H116697   8.018   4.121   9.067
 5485WAT     H216698   7.869   4.076   9.116
 5486WAT      O16699   9.831   5.180   3.119
 5486WAT     H116700   9.831   5.085   3.149
 5486WAT     H216701   9.886   5.236   3.182
 5487WAT      O16702   7.300   4.849   1.892
 5487WAT     H116703   7.299   4.770   1.953
 5487WAT     H216704   7.255   4.825   1.806
 5488WAT      O16705   2.512   5.126   4.633
 5488WAT     H116706   2.416   5.151   4.643
 5488WAT     H216707   2.519   5.046   4.572
 5489WAT      O16708   0.131   0.253   7.103
 5489WAT     H116709   0.201   0.189   7.136
 5489WAT     H216710   0.170   0.345   7.098
 5490WAT      O16711   1.728   3.350   9.651
 5490WAT     H116712   1.657   3.298   9.699
 5490WAT     H216713   1.710   3.350   9.553
 5491WAT      O16714   5.486   2.898   9.885
 5491WAT     H116715   5.462   2.879   9.789
 5491WAT     H216716   5.434   2.978   9.916
 5492WAT      O16717   7.657   4.210   1.677
 5492WAT     H116718   7.724   4.277   1.644
 5492WAT     H216719   7.615   4.164   1.599
 5493WAT      O16720   5.251   5.647   5.718
 5493WAT     H116721   5.347   5.626   5.700
 5493WAT     H216722   5.211   5.574   5.774
 5494WAT      O16723   1.233   0.066   0.639
 5494WAT     H116724   1.192   0.145   0.594
 5494WAT     H216725   1.190   0.053   0.728
 5495WAT      O16726   4.145   7.896   1.466
 5495WAT     H116727   4.124   7.895   1.563
 5495WAT     H216728   4.182   7.807   1.439
 5496WAT      O16729   6.600   6.554   8.169
 5496WAT     H116730   6.700   6.552   8.171
 5496WAT     H216731   6.569   6.571   8.076
 5497WAT      O16732   9.208   0.598   9.790
 5497WAT     H116733   9.125   0.593   9.847
 5497WAT     H216734   9.181   0.607   9.694
 5498WAT      O16735   6.354   0.840   7.576
 5498WAT     H116736   6.334   0.760   7.633
 5498WAT     H216737   6.269   0.881   7.545
 5499WAT      O16738   6.286   8.073   6.534
 5499WAT     H116739   6.336   8.156   6.558
 5499WAT     H216740   6.190   8.084   6.560
 5500WAT      O16741   3.110   8.792   6.442
 5500WAT     H116742   3.134   8.888   6.426
 5500WAT     H216743   3.134   8.768   6.537
 5501WAT      O16744   1.234   0.663   0.473
 5501WAT     H116745   1.158   0.718   0.440
 5501WAT     H216746   1.229   0.571   0.433
 5502WAT      O16747   2.982   0.884   1.858
 5502WAT     H116748   3.011   0.882   1.953
 5502WAT     H216749   2.910   0.816   1.843
 5503WAT      O16750   9.221   1.204   7.192
 5503WAT     H116751   9.255   1.193   7.099
 5503WAT     H216752   9.161   1.127   7.215
 5504WAT      O16753   5.455   7.459   8.712
 5504WAT     H116754   5.422   7.507   8.793
 5504WAT     H216755   5.486   7.367   8.738
 5505WAT      O16756   6.022   6.267   5.106
 5505WAT     H116757   6.017   6.167   5.107
 5505WAT     H216758   5.955   6.303   5.041
 5506WAT      O16759   1.492   3.087   1.300
 5506WAT     H116760   1.395   3.072   1.279
 5506WAT     H216761   1.521   3.175   1.262
 5507WAT      O16762   9.226   7.014   7.577
 5507WAT     H116763   9.162   6.970   7.640
 5507WAT     H216764   9.306   7.046   7.629
 5508WAT      O16765   1.781   7.801   9.625
 5508WAT     H116766   1.782   7.892   9.667
 5508WAT     H216767   1.691   7.759   9.638
 5509WAT      O16768   5.939   7.081   7.728
 5509WAT     H116769   5.980   7.034   7.806
 5509WAT     H216770   5.993   7.061   7.646
 5510WAT      O16771   4.648   0.650   8.874
 5510WAT     H116772   4.747   0.665   8.863
 5510WAT     H216773   4.615   0.594   8.797
 5511WAT      O16774   0.836   7.053   0.903
 5511WAT     H116775   0.767   7.125   0.906
 5511WAT     H216776   0.892   7.063   0.820
 5512WAT      O16777   8.019   8.980   5.840
 5512WAT     H116778   8.016   8.956   5.743
 5512WAT     H216779   7.927   8.978   5.878
 5513WAT      O16780   6.476   6.506   2.101
 5513WAT     H116781   6.383   6.538   2.117
 5513WAT     H216782   6.519   6.562   2.029
 5514WAT      O16783   8.258   6.573   9.459
 5514WAT     H116784   8.267   6.514   9.539
 5514WAT     H216785   8.169   6.557   9.416
 5515WAT      O16786   0.635   8.207   7.006
 5515WAT     H116787   0.708   8.232   6.943
 5515WAT     H216788   0.547   8.237   6.969
 5516WAT      O16789   2.082   7.775   2.251
 5516WAT     H116790   1.991   7.815   2.256
 5516WAT     H216791   2.081   7.685   2.295
 5517WAT      O16792   0.927   2.307   3.279
 5517WAT     H116793   0.831   2.309   3.308
 5517WAT     H216794   0.942   2.380   3.212
 5518WAT      O16795   6.719   4.094   5.952
 5518WAT     H116796   6.646   4.139   6.003
 5518WAT     H216797   6.714   3.995   5.966
 5519WAT      O16798   8.891   6.189   8.037
 5519WAT     H116799   8.838   6.267   8.069
 5519WAT     H216800   8.851   6.154   7.952
 5520WAT      O16801   3.579   3.613   7.476
 5520WAT     H116802   3.586   3.699   7.425
 5520WAT     H216803   3.668   3.569   7.478
 5521WAT      O16804   2.330   5.713   2.255
 5521WAT     H116805   2.351   5.805   2.221
 5521WAT     H216806   2.411   5.655   2.246
 5522WAT      O16807   1.406   8.331   0.015
 5522WAT     H116808   1.433   8.238   0.041
 5522WAT     H216809   1.412   8.391   0.095
 5523WAT      O16810   8.047   6.094   6.971
 5523WAT     H116811   7.997   6.007   6.970
 5523WAT     H216812   8.134   6.082   7.019
 5524WAT      O16813   8.081   2.412   2.288
 5524WAT     H116814   8.054   2.508   2.289
 5524WAT     H216815   8.085   2.380   2.193
 5525WAT      O16816   0.725   3.818   7.406
 5525WAT     H116817   0.822   3.804   7.383
 5525WAT     H216818   0.707   3.916   7.415
 5526WAT      O16819   0.754   7.118   5.114
 5526WAT     H116820   0.695   7.051   5.158
 5526WAT     H216821   0.741   7.114   5.015
 5527WAT      O16822   6.713   6.611   9.069
 5527WAT     H116823   6.772   6.610   8.988
 5527WAT     H216824   6.619   6.589   9.042
 5528WAT      O16825   4.645   9.826   6.742
 5528WAT     H116826   4.564   9.847   6.795
 5528WAT     H216827   4.651   9.888   6.664
 5529WAT      O16828   2.856   9.312   9.752
 5529WAT     H116829   2.861   9.345   9.846
 5529WAT     H216830   2.855   9.390   9.689
 5530WAT      O16831   9.241   0.450   0.394
 5530WAT     H116832   9.158   0.504   0.407
 5530WAT     H216833   9.285   0.434   0.482
 5531WAT      O16834   1.890   1.471   2.310
 5531WAT     H116835   1.828   1.448   2.235
 5531WAT     H216836   1.840   1.465   2.397
 5532WAT      O16837   1.384   8.651   1.710
 5532WAT     H116838   1.346   8.560   1.728
 5532WAT     H216839   1.449   8.646   1.635
 5533WAT      O16840   8.947   2.051   5.254
 5533WAT     H116841   9.012   2.009   5.191
 5533WAT     H216842   8.896   1.980   5.303
 5534WAT      O16843   4.060   9.206   0.467
 5534WAT     H116844   4.135   9.248   0.415
 5534WAT     H216845   3.993   9.169   0.403
 5535WAT      O16846   7.973   5.874   0.925
 5535WAT     H116847   8.057   5.910   0.886
 5535WAT     H216848   7.960   5.912   1.017
 5536WAT      O16849   9.230   2.960   7.233
 5536WAT     H116850   9.280   2.874   7.249
 5536WAT     H216851   9.244   3.021   7.310
 5537WAT      O16852   0.874   1.245   3.459
 5537WAT     H116853   0.879   1.327   3.516
 5537WAT     H216854   0.946   1.248   3.389
 5538WAT      O16855   8.685   5.522   3.773
 5538WAT     H116856   8.748   5.518   3.696
 5538WAT     H216857   8.607   5.462   3.755
 5539WAT      O16858   6.587   5.285   7.350
 5539WAT     H116859   6.670   5.340   7.361
 5539WAT     H216860   6.551   5.298   7.257
 5540WAT      O16861   5.288   3.574   3.452
 5540WAT     H116862   5.313   3.570   3.549
 5540WAT     H216863   5.371   3.566   3.396
 5541WAT      O16864   6.195   7.846   9.208
 5541WAT     H116865   6.108   7.804   9.234
 5541WAT     H216866   6.205   7.842   9.109
 5542WAT      O16867   1.710   0.805   5.454
 5542WAT     H116868   1.642   0.757   5.509
 5542WAT     H216869   1.787   0.833   5.512
 5543WAT      O16870   9.455   2.841   9.047
 5543WAT     H116871   9.478   2.877   9.137
 5543WAT     H216872   9.433   2.916   8.985
 5544WAT      O16873   1.621   5.528   1.237
 5544WAT     H116874   1.564   5.601   1.275
 5544WAT     H216875   1.563   5.452   1.208
 5545WAT      O16876   1.003   4.904   2.056
 5545WAT     H116877   0.928   4.970   2.064
 5545WAT     H216878   1.084   4.940   2.104
 5546WAT      O16879   3.101   5.023   1.509
 5546WAT     H116880   3.005   5.002   1.525
 5546WAT     H216881   3.133   5.087   1.579
 5547WAT      O16882   1.563   5.465   4.945
 5547WAT     H116883   1.653   5.454   4.902
 5547WAT     H216884   1.498   5.501   4.878
 5548WAT      O16885   3.402   5.501   3.557
 5548WAT     H116886   3.494   5.540   3.559
 5548WAT     H216887   3.390   5.447   3.474
 5549WAT      O16888   6.421   4.814   0.498
 5549WAT     H116889   6.516   4.781   0.494
 5549WAT     H216890   6.358   4.737   0.490
 5550WAT      O16891   0.136   2.187   8.956
 5550WAT     H116892   0.125   2.193   8.857
 5550WAT     H216893   0.174   2.098   8.981
 5551WAT      O16894   0.454   6.289   1.227
 5551WAT     H116895   0.450   6.386   1.202
 5551WAT     H216896   0.381   6.239   1.181
 5552WAT      O16897   7.790   6.699   0.652
 5552WAT     H116898   7.850   6.675   0.728
 5552WAT     H216899   7.780   6.798   0.646
 5553WAT      O16900   7.795   0.456   7.717
 5553WAT     H116901   7.723   0.459   7.647
 5553WAT     H216902   7.805   0.362   7.750
 5554WAT      O16903   2.131   5.300   4.251
 5554WAT     H116904   2.076   5.361   4.307
 5554WAT     H216905   2.152   5.345   4.164
 5555WAT      O16906   9.310   2.321   5.427
 5555WAT     H116907   9.307   2.379   5.345
 5555WAT     H216908   9.279   2.374   5.506
 5556WAT      O16909   4.940   1.266   8.556
 5556WAT     H116910   4.885   1.195   8.511
 5556WAT     H216911   5.037   1.248   8.540
 5557WAT      O16912   1.708   6.631   3.068
 5557WAT     H116913   1.724   6.616   2.971
 5557WAT     H216914   1.753   6.715   3.097
 5558WAT      O16915   2.762   2.332   4.171
 5558WAT     H116916   2.769   2.426   4.137
 5558WAT     H216917   2.844   2.281   4.145
 5559WAT      O16918   2.711   8.956   7.362
 5559WAT     H116919   2.777   9.018   7.319
 5559WAT     H216920   2.725   8.956   7.461
 5560WAT      O16921   5.796   4.292   2.494
 5560WAT     H116922   5.771   4.281   2.398
 5560WAT     H216923   5.714   4.312   2.548
 5561WAT      O16924   7.247   6.577   9.289
 5561WAT     H116925   7.173   6.614   9.346
 5561WAT     H216926   7.247   6.625   9.201
 5562WAT      O16927   4.646   7.219   4.934
 5562WAT     H116928   4.603   7.169   4.859
 5562WAT     H216929   4.646   7.317   4.914
 5563WAT      O16930   9.647   2.147   2.512
 5563WAT     H116931   9.576   2.211   2.543
 5563WAT     H216932   9.609   2.087   2.442
 5564WAT      O16933   5.741   7.330   2.896
 5564WAT     H116934   5.816   7.373   2.846
 5564WAT     H216935   5.750   7.230   2.890
 5565WAT      O16936   3.658   0.416   4.527
 5565WAT     H116937   3.653   0.321   4.556
 5565WAT     H216938   3.753   0.446   4.524
 5566WAT      O16939   6.860   1.186   3.029
 5566WAT     H116940   6.872   1.133   2.945
 5566WAT     H216941   6.833   1.279   3.006
 5567WAT      O16942   9.165   7.694   8.844
 5567WAT     H116943   9.238   7.732   8.901
 5567WAT     H216944   9.105   7.767   8.813
 5568WAT      O16945   5.581   2.816   7.797
 5568WAT     H116946   5.674   2.790   7.824
 5568WAT     H216947   5.551   2.757   7.722
 5569WAT      O16948   5.657   6.185   4.654
 5569WAT     H116949   5.754   6.200   4.674
 5569WAT     H216950   5.633   6.228   4.568
 5570WAT      O16951   1.659   8.814   8.080
 5570WAT     H116952   1.697   8.738   8.132
 5570WAT     H216953   1.733   8.871   8.044
 5571WAT      O16954   3.223   8.685   9.423
 5571WAT     H116955   3.219   8.761   9.488
 5571WAT     H216956   3.159   8.701   9.349
 5572WAT      O16957   8.492   7.203   4.846
 5572WAT     H116958   8.484   7.253   4.759
 5572WAT     H216959   8.585   7.166   4.854
 5573WAT      O16960   0.835   5.770   5.910
 5573WAT     H116961   0.905   5.755   5.980
 5573WAT     H216962   0.755   5.715   5.932
 5574WAT      O16963   8.611   7.230   4.374
 5574WAT     H116964   8.601   7.131   4.385
 5574WAT     H216965   8.666   7.249   4.293
 5575WAT      O16966   2.173   4.284   7.809
 5575WAT     H116967   2.082   4.315   7.837
 5575WAT     H216968   2.242   4.345   7.847
 5576WAT      O16969   6.009   2.188   7.792
 5576WAT     H116970   5.995   2.095   7.758
 5576WAT     H216971   5.922   2.227   7.821
 5577WAT      O16972   9.438   7.633   9.867
 5577WAT     H116973   9.360   7.645   9.928
 5577WAT     H216974   9.521   7.617   9.921
 5578WAT      O16975   2.266   7.396   3.126
 5578WAT     H116976   2.273   7.433   3.033
 5578WAT     H216977   2.356   7.363   3.155
 5579WAT      O16978   0.945   5.909   8.554
 5579WAT     H116979   1.039   5.930   8.580
 5579WAT     H216980   0.907   5.842   8.619
 5580WAT      O16981   3.354   4.753   8.548
 5580WAT     H116982   3.269   4.701   8.560
 5580WAT     H216983   3.334   4.841   8.506
 5581WAT      O16984   6.191   6.162   2.566
 5581WAT     H116985   6.234   6.081   2.525
 5581WAT     H216986   6.223   6.244   2.518
 5582WAT      O16987   6.502   5.068   4.611
 5582WAT     H116988   6.437   5.085   4.537
 5582WAT     H216989   6.488   4.975   4.647
 5583WAT      O16990   6.415   4.277   7.120
 5583WAT     H116991   6.479   4.350   7.145
 5583WAT     H216992   6.415   4.266   7.020
 5584WAT      O16993   6.832   3.366   1.973
 5584WAT     H116994   6.883   3.295   1.924
 5584WAT     H216995   6.804   3.436   1.908
 5585WAT      O16996   2.837   5.595   2.368
 5585WAT     H116997   2.882   5.627   2.284
 5585WAT     H216998   2.904   5.591   2.442
 5586WAT      O16999   9.193   6.089   8.764
 5586WAT     H117000   9.276   6.105   8.711
 5586WAT     H217001   9.114   6.120   8.711
 5587WAT      O17002   5.208   0.135   3.092
 5587WAT     H117003   5.224   0.224   3.050
 5587WAT     H217004   5.128   0.092   3.049
 5588WAT      O17005   3.397   2.760   8.134
 5588WAT     H117006   3.382   2.692   8.062
 5588WAT     H217007   3.398   2.851   8.093
 5589WAT      O17008   3.163   8.928   4.183
 5589WAT     H117009   3.106   8.909   4.103
 5589WAT     H217010   3.135   8.868   4.258
 5590WAT      O17011   6.362   6.450   1.737
 5590WAT     H117012   6.350   6.382   1.664
 5590WAT     H217013   6.430   6.518   1.708
 5591WAT      O17014   6.850   1.393   7.208
 5591WAT     H117015   6.935   1.445   7.221
 5591WAT     H217016   6.820   1.401   7.113
 5592WAT      O17017   2.116   6.346   9.262
 5592WAT     H117018   2.068   6.404   9.196
 5592WAT     H217019   2.062   6.338   9.345
 5593WAT      O17020   2.183   4.147   6.555
 5593WAT     H117021   2.247   4.115   6.485
 5593WAT     H217022   2.231   4.209   6.618
 5594WAT      O17023   4.965   9.343   9.557
 5594WAT     H117024   4.983   9.341   9.655
 5594WAT     H217025   4.866   9.347   9.541
 5595WAT      O17026   3.863   0.730   7.657
 5595WAT     H117027   3.948   0.722   7.710
 5595WAT     H217028   3.880   0.782   7.574
 5596WAT      O17029   2.650   3.816   3.687
 5596WAT     H117030   2.554   3.796   3.707
 5596WAT     H217031   2.669   3.797   3.591
 5597WAT      O17032   0.144   0.670   8.135
 5597WAT     H117033   0.131   0.661   8.234
 5597WAT     H217034   0.152   0.766   8.111
 5598WAT      O17035   5.144   7.758   9.448
 5598WAT     H117036   5.046   7.735   9.455
 5598WAT     H217037   5.195   7.708   9.518
 5599WAT      O17038   7.340   0.091   1.608
 5599WAT     H117039   7.292   0.102   1.521
 5599WAT     H217040   7.330   0.174   1.663
 5600WAT      O17041   4.703   5.198   8.663
 5600WAT     H117042   4.734   5.271   8.724
 5600WAT     H217043   4.609   5.217   8.633
 5601WAT      O17044   7.109   2.545   0.457
 5601WAT     H117045   7.015   2.511   0.468
 5601WAT     H217046   7.168   2.471   0.423
 5602WAT      O17047   7.978   3.421   3.448
 5602WAT     H117048   8.051   3.354   3.464
 5602WAT     H217049   8.017   3.513   3.451
 5603WAT      O17050   3.617   7.014   5.464
 5603WAT     H117051   3.632   7.006   5.365
 5603WAT     H217052   3.541   6.955   5.491
 5604WAT      O17053   9.498   5.018   6.552
 5604WAT     H117054   9.564   4.962   6.600
 5604WAT     H217055   9.541   5.061   6.473
 5605WAT      O17056   9.648   8.393   3.318
 5605WAT     H117057   9.710   8.327   3.275
 5605WAT     H217058   9.692   8.431   3.399
 5606WAT      O17059   8.990   3.133   9.658
 5606WAT     H117060   9.060   3.089   9.713
 5606WAT     H217061   9.009   3.231   9.652
 5607WAT      O17062   2.157   3.750   8.720
 5607WAT     H117063   2.172   3.657   8.753
 5607WAT     H217064   2.081   3.792   8.769
 5608WAT      O17065   9.767   3.650   2.703
 5608WAT     H117066   9.817   3.711   2.642
 5608WAT     H217067   9.701   3.596   2.650
 5609WAT      O17068   9.269   5.963   3.348
 5609WAT     H117069   9.254   6.034   3.417
 5609WAT     H217070   9.331   5.894   3.385
 5610WAT      O17071   1.615   2.644   1.402
 5610WAT     H117072   1.622   2.711   1.476
 5610WAT     H217073   1.576   2.559   1.437
 5611WAT      O17074   7.556   8.531   6.736
 5611WAT     H117075   7.477   8.533   6.675
 5611WAT     H217076   7.594   8.438   6.737
 5612WAT      O17077   5.671   2.913   2.137
 5612WAT     H117078   5.628   2.983   2.080
 5612WAT     H217079   5.622   2.827   2.127
 5613WAT      O17080   5.923   2.117   4.553
 5613WAT     H117081   5.901   2.123   4.455
 5613WAT     H217082   5.842   2.142   4.606
 5614WAT      O17083   8.845   5.829   1.156
 5614WAT     H117084   8.859   5.730   1.153
 5614WAT     H217085   8.770   5.850   1.218
 5615WAT      O17086   7.395   6.243   2.656
 5615WAT     H117087   7.465   6.275   2.592
 5615WAT     H217088   7.411   6.284   2.746
 5616WAT      O17089   9.227   6.549   5.641
 5616WAT     H117090   9.180   6.478   5.589
 5616WAT     H217091   9.164   6.625   5.657
 5617WAT      O17092   1.270   9.186   1.730
 5617WAT     H117093   1.301   9.091   1.720
 5617WAT     H217094   1.349   9.245   1.743
 5618WAT      O17095   5.154   0.734   9.469
 5618WAT     H117096   5.076   0.701   9.521
 5618WAT     H217097   5.138   0.718   9.371
 5619WAT      O17098   8.957   4.611   9.567
 5619WAT     H117099   8.883   4.575   9.509
 5619WAT     H217100   8.999   4.537   9.618
 5620WAT      O17101   4.678   7.370   9.552
 5620WAT     H117102   4.593   7.340   9.510
 5620WAT     H217103   4.663   7.456   9.600
 5621WAT      O17104   0.606   7.718   1.838
 5621WAT     H117105   0.596   7.737   1.936
 5621WAT     H217106   0.605   7.619   1.823
 5622WAT      O17107   6.816   6.227   0.399
 5622WAT     H117108   6.798   6.168   0.321
 5622WAT     H217109   6.821   6.172   0.482
 5623WAT      O17110   2.633   1.458   6.295
 5623WAT     H117111   2.540   1.450   6.258
 5623WAT     H217112   2.679   1.536   6.253
 5624WAT      O17113   4.630   0.565   0.291
 5624WAT     H117114   4.608   0.475   0.330
 5624WAT     H217115   4.599   0.568   0.196
 5625WAT      O17116   5.192   0.710   0.897
 5625WAT     H117117   5.278   0.678   0.938
 5625WAT     H217118   5.134   0.632   0.875
 5626WAT      O17119   1.173   0.278   9.833
 5626WAT     H117120   1.123   0.297   9.918
 5626WAT     H217121   1.203   0.365   9.792
 5627WAT      O17122   8.029   4.454   7.792
 5627WAT     H117123   7.981   4.369   7.770
 5627WAT     H217124   7.964   4.523   7.822
 5628WAT      O17125   4.722   1.573   6.870
 5628WAT     H117126   4.710   1.514   6.950
 5628WAT     H217127   4.652   1.551   6.802
 5629WAT      O17128   9.322   4.871   5.791
 5629WAT     H117129   9.252   4.938   5.766
 5629WAT     H217130   9.277   4.789   5.828
 5630WAT      O17131   0.925   0.115   6.682
 5630WAT     H117132   0.826   0.107   6.685
 5630WAT     H217133   0.966   0.023   6.680
 5631WAT      O17134   8.319   3.700   0.492
 5631WAT     H117135   8.387   3.758   0.448
 5631WAT     H217136   8.363   3.649   0.566
 5632WAT      O17137   0.686   6.736   3.615
 5632WAT     H117138   0.721   6.686   3.695
 5632WAT     H217139   0.763   6.773   3.563
 5633WAT      O17140   3.502   6.144   2.965
 5633WAT     H117141   3.513   6.218   2.898
 5633WAT     H217142   3.566   6.070   2.943
 5634WAT      O17143   2.846   1.866   2.665
 5634WAT     H117144   2.807   1.784   2.706
 5634WAT     H217145   2.784   1.943   2.676
 5635WAT      O17146   8.987   4.331   7.822
 5635WAT     H117147   8.918   4.373   7.764
 5635WAT     H217148   9.018   4.245   7.782
 5636WAT      O17149   6.963   4.413   9.619
 5636WAT     H117150   7.038   4.443   9.678
 5636WAT     H217151   6.959   4.472   9.538
 5637WAT      O17152   1.685   1.918   0.451
 5637WAT     H117153   1.783   1.911   0.469
 5637WAT     H217154   1.660   1.855   0.376
 5638WAT      O17155   9.670   4.377   2.727
 5638WAT     H117156   9.737   4.441   2.765
 5638WAT     H217157   9.578   4.416   2.734
 5639WAT      O17158   6.194   7.584   2.736
 5639WAT     H117159   6.269   7.559   2.798
 5639WAT     H217160   6.118   7.619   2.790
 5640WAT      O17161   7.294   9.059   4.773
 5640WAT     H117162   7.239   8.980   4.748
 5640WAT     H217163   7.261   9.141   4.725
 5641WAT      O17164   7.652   8.622   1.210
 5641WAT     H117165   7.690   8.706   1.172
 5641WAT     H217166   7.717   8.581   1.273
 5642WAT      O17167   3.318   8.933   3.198
 5642WAT     H117168   3.308   8.922   3.099
 5642WAT     H217169   3.413   8.915   3.225
 5643WAT      O17170   2.312   7.901   3.153
 5643WAT     H117171   2.368   7.859   3.080
 5643WAT     H217172   2.266   7.982   3.117
 5644WAT      O17173   2.068   3.592   4.422
 5644WAT     H117174   1.983   3.627   4.461
 5644WAT     H217175   2.110   3.528   4.486
 5645WAT      O17176   8.145   0.680   6.981
 5645WAT     H117177   8.080   0.707   7.051
 5645WAT     H217178   8.228   0.643   7.024
 5646WAT      O17179   9.563   5.501   4.002
 5646WAT     H117180   9.650   5.475   4.043
 5646WAT     H217181   9.570   5.494   3.902
 5647WAT      O17182   9.759   7.553   5.993
 5647WAT     H117183   9.696   7.511   5.928
 5647WAT     H217184   9.777   7.489   6.069
 5648WAT      O17185   0.678   2.930   4.492
 5648WAT     H117186   0.633   2.840   4.497
 5648WAT     H217187   0.770   2.919   4.456
 5649WAT      O17188   6.680   1.321   9.399
 5649WAT     H117189   6.647   1.228   9.414
 5649WAT     H217190   6.611   1.373   9.349
 5650WAT      O17191   8.749   8.120   9.622
 5650WAT     H117192   8.837   8.154   9.589
 5650WAT     H217193   8.733   8.027   9.588
 5651WAT      O17194   3.958   3.322   3.325
 5651WAT     H117195   3.948   3.224   3.342
 5651WAT     H217196   3.931   3.373   3.406
 5652WAT      O17197   7.597   6.475   1.648
 5652WAT     H117198   7.648   6.518   1.723
 5652WAT     H217199   7.506   6.450   1.680
 5653WAT      O17200   7.114   2.257   3.595
 5653WAT     H117201   7.041   2.202   3.556
 5653WAT     H217202   7.129   2.338   3.538
 5654WAT      O17203   8.588   8.595   8.137
 5654WAT     H117204   8.643   8.513   8.118
 5654WAT     H217205   8.524   8.576   8.211
 5655WAT      O17206   2.234   9.818   6.721
 5655WAT     H117207   2.187   9.732   6.740
 5655WAT     H217208   2.294   9.840   6.798
 5656WAT      O17209   7.077   2.538   5.698
 5656WAT     H117210   7.005   2.470   5.685
 5656WAT     H217211   7.039   2.619   5.741
 5657WAT      O17212   4.691   0.198   0.466
 5657WAT     H117213   4.715   0.274   0.527
 5657WAT     H217214   4.624   0.229   0.398
 5658WAT      O17215   9.226   2.632   2.027
 5658WAT     H117216   9.311   2.631   1.975
 5658WAT     H217217   9.172   2.551   2.004
 5659WAT      O17218   1.084   5.741   4.031
 5659WAT     H117219   1.071   5.648   4.065
 5659WAT     H217220   1.169   5.747   3.979
 5660WAT      O17221   6.551   5.069   5.716
 5660WAT     H117222   6.465   5.018   5.717
 5660WAT     H217223   6.533   5.166   5.732
 5661WAT      O17224   3.518   6.255   5.681
 5661WAT     H117225   3.577   6.206   5.617
 5661WAT     H217226   3.473   6.331   5.633
 5662WAT      O17227   0.757   1.876   5.736
 5662WAT     H117228   0.749   1.786   5.780
 5662WAT     H217229   0.778   1.944   5.806
 5663WAT      O17230   8.674   8.924   5.106
 5663WAT     H117231   8.670   8.986   5.184
 5663WAT     H217232   8.632   8.836   5.130
 5664WAT      O17233   5.548   6.095   1.443
 5664WAT     H117234   5.644   6.107   1.469
 5664WAT     H217235   5.543   6.066   1.348
 5665WAT      O17236   4.946   2.733   1.191
 5665WAT     H117237   5.011   2.745   1.267
 5665WAT     H217238   4.953   2.811   1.129
 5666WAT      O17239   9.028   7.427   8.169
 5666WAT     H117240   9.017   7.360   8.243
 5666WAT     H217241   8.965   7.406   8.095
 5667WAT      O17242   7.623   7.313   5.988
 5667WAT     H117243   7.604   7.245   6.058
 5667WAT     H217244   7.620   7.271   5.897
 5668WAT      O17245   3.486   0.880   7.698
 5668WAT     H117246   3.501   0.782   7.707
 5668WAT     H217247   3.573   0.926   7.683
 5669WAT      O17248   1.945   9.384   3.981
 5669WAT     H117249   1.892   9.377   4.065
 5669WAT     H217250   2.004   9.465   3.985
 5670WAT      O17251   4.283   9.077   1.080
 5670WAT     H117252   4.305   8.987   1.118
 5670WAT     H217253   4.187   9.098   1.099
 5671WAT      O17254   5.256   9.364   1.090
 5671WAT     H117255   5.335   9.350   1.150
 5671WAT     H217256   5.286   9.394   1.000
 5672WAT      O17257   1.097   4.577   9.398
 5672WAT     H117258   1.146   4.491   9.411
 5672WAT     H217259   1.088   4.596   9.300
 5673WAT      O17260   4.284   2.312   3.466
 5673WAT     H117261   4.342   2.392   3.449
 5673WAT     H217262   4.223   2.298   3.389
 5674WAT      O17263   2.598   2.052   8.786
 5674WAT     H117264   2.536   1.989   8.833
 5674WAT     H217265   2.678   2.069   8.842
 5675WAT      O17266   7.118   6.944   0.031
 5675WAT     H117267   7.098   7.042   0.041
 5675WAT     H217268   7.043   6.891   0.070
 5676WAT      O17269   5.905   1.983   1.926
 5676WAT     H117270   5.916   1.939   1.837
 5676WAT     H217271   5.986   2.039   1.946
 5677WAT      O17272   7.682   1.574   1.292
 5677WAT     H117273   7.700   1.601   1.386
 5677WAT     H217274   7.588   1.598   1.268
 5678WAT      O17275   9.525   3.925   9.811
 5678WAT     H117276   9.439   3.937   9.861
 5678WAT     H217277   9.512   3.952   9.716
 5679WAT      O17278   9.025   5.933   5.239
 5679WAT     H117279   9.008   5.872   5.162
 5679WAT     H217280   9.123   5.935   5.259
 5680WAT      O17281   9.147   1.641   7.101
 5680WAT     H117282   9.060   1.593   7.112
 5680WAT     H217283   9.207   1.589   7.040
 5681WAT      O17284   3.204   9.299   1.143
 5681WAT     H117285   3.258   9.361   1.086
 5681WAT     H217286   3.129   9.349   1.185
 5682WAT      O17287   4.894   0.379   0.180
 5682WAT     H117288   4.965   0.413   0.118
 5682WAT     H217289   4.816   0.346   0.126
 5683WAT      O17290   4.850   5.373   0.954
 5683WAT     H117291   4.807   5.438   1.016
 5683WAT     H217292   4.946   5.360   0.979
 5684WAT      O17293   6.304   2.798   6.381
 5684WAT     H117294   6.208   2.780   6.359
 5684WAT     H217295   6.332   2.884   6.339
 5685WAT      O17296   9.674   9.072   0.729
 5685WAT     H117297   9.622   9.030   0.655
 5685WAT     H217298   9.612   9.101   0.802
 5686WAT      O17299   4.866   3.905   0.601
 5686WAT     H117300   4.828   3.888   0.510
 5686WAT     H217301   4.881   4.003   0.613
 5687WAT      O17302   3.633   3.893   6.675
 5687WAT     H117303   3.705   3.824   6.689
 5687WAT     H217304   3.595   3.920   6.764
 5688WAT      O17305   2.172   4.320   3.158
 5688WAT     H117306   2.091   4.378   3.146
 5688WAT     H217307   2.253   4.378   3.171
 5689WAT      O17308   2.603   2.849   4.413
 5689WAT     H117309   2.671   2.798   4.360
 5689WAT     H217310   2.594   2.808   4.504
 5690WAT      O17311   3.891   6.074   0.438
 5690WAT     H117312   3.908   5.982   0.471
 5690WAT     H217313   3.973   6.130   0.450
 5691WAT      O17314   8.918   7.319   1.410
 5691WAT     H117315   8.893   7.236   1.458
 5691WAT     H217316   8.847   7.342   1.343
 5692WAT      O17317   2.998   8.917   3.964
 5692WAT     H117318   2.913   8.923   4.017
 5692WAT     H217319   3.010   9.001   3.911
 5693WAT      O17320   4.329   2.377   1.670
 5693WAT     H117321   4.405   2.367   1.605
 5693WAT     H217322   4.365   2.409   1.758
 5694WAT      O17323   1.291   0.366   2.502
 5694WAT     H117324   1.199   0.400   2.483
 5694WAT     H217325   1.288   0.268   2.520
 5695WAT      O17326   7.452   6.013   2.775
 5695WAT     H117327   7.391   5.994   2.852
 5695WAT     H217328   7.434   6.105   2.741
 5696WAT      O17329   5.050   7.779   5.695
 5696WAT     H117330   5.048   7.879   5.704
 5696WAT     H217331   5.031   7.737   5.784
 5697WAT      O17332   5.236   4.330   7.624
 5697WAT     H117333   5.270   4.388   7.550
 5697WAT     H217334   5.141   4.354   7.644
 5698WAT      O17335   1.310   3.851   8.686
 5698WAT     H117336   1.390   3.862   8.628
 5698WAT     H217337   1.227   3.864   8.632
 5699WAT      O17338   5.147   7.914   8.343
 5699WAT     H117339   5.104   8.003   8.361
 5699WAT     H217340   5.172   7.871   8.429
 5700WAT      O17341   4.518   1.780   2.687
 5700WAT     H117342   4.586   1.731   2.741
 5700WAT     H217343   4.497   1.727   2.604
 5701WAT      O17344   1.841   7.665   2.044
 5701WAT     H117345   1.846   7.617   2.131
 5701WAT     H217346   1.933   7.683   2.010
 5702WAT      O17347   7.629   7.076   1.491
 5702WAT     H117348   7.682   7.057   1.408
 5702WAT     H217349   7.591   7.169   1.485
 5703WAT      O17350   7.513   1.326   5.492
 5703WAT     H117351   7.482   1.392   5.424
 5703WAT     H217352   7.541   1.242   5.447
 5704WAT      O17353   9.336   5.673   8.198
 5704WAT     H117354   9.286   5.685   8.285
 5704WAT     H217355   9.382   5.585   8.198
 5705WAT      O17356   7.649   1.311   8.871
 5705WAT     H117357   7.569   1.369   8.854
 5705WAT     H217358   7.623   1.236   8.931
 5706WAT      O17359   7.731   4.801   5.573
 5706WAT     H117360   7.736   4.701   5.582
 5706WAT     H217361   7.706   4.841   5.662
 5707WAT      O17362   2.551   4.729   4.855
 5707WAT     H117363   2.466   4.736   4.803
 5707WAT     H217364   2.530   4.704   4.950
 5708WAT      O17365   0.275   8.789   3.651
 5708WAT     H117366   0.234   8.711   3.602
 5708WAT     H217367   0.210   8.865   3.652
 5709WAT      O17368   0.509   7.434   4.500
 5709WAT     H117369   0.454   7.406   4.579
 5709WAT     H217370   0.589   7.374   4.493
 5710WAT      O17371   4.186   7.830   7.709
 5710WAT     H117372   4.277   7.831   7.751
 5710WAT     H217373   4.161   7.736   7.688
 5711WAT      O17374   4.288   8.361   8.937
 5711WAT     H117375   4.307   8.280   8.992
 5711WAT     H217376   4.332   8.351   8.847
 5712WAT      O17377   2.742   1.406   5.211
 5712WAT     H117378   2.806   1.402   5.134
 5712WAT     H217379   2.791   1.385   5.296
 5713WAT      O17380   5.820   5.086   8.716
 5713WAT     H117381   5.855   5.020   8.651
 5713WAT     H217382   5.811   5.176   8.672
 5714WAT      O17383   2.731   6.644   7.979
 5714WAT     H117384   2.695   6.735   8.002
 5714WAT     H217385   2.676   6.604   7.906
 5715WAT      O17386   8.825   3.695   3.578
 5715WAT     H117387   8.782   3.611   3.544
 5715WAT     H217388   8.760   3.744   3.637
 5716WAT      O17389   0.576   8.856   9.702
 5716WAT     H117390   0.576   8.903   9.614
 5716WAT     H217391   0.521   8.907   9.767
 5717WAT      O17392   8.432   9.184   2.391
 5717WAT     H117393   8.504   9.252   2.398
 5717WAT     H217394   8.472   9.094   2.372
 5718WAT      O17395   1.754   8.102   4.194
 5718WAT     H117396   1.737   8.144   4.105
 5718WAT     H217397   1.767   8.004   4.184
 5719WAT      O17398   3.381   2.690   0.985
 5719WAT     H117399   3.413   2.691   0.890
 5719WAT     H217400   3.457   2.715   1.045
 5720WAT      O17401   4.214   8.097   3.324
 5720WAT     H117402   4.201   8.078   3.227
 5720WAT     H217403   4.251   8.016   3.369
 5721WAT      O17404   4.201   5.165   1.985
 5721WAT     H117405   4.200   5.222   2.068
 5721WAT     H217406   4.294   5.131   1.970
 5722WAT      O17407   2.293   1.911   1.053
 5722WAT     H117408   2.272   1.901   0.956
 5722WAT     H217409   2.242   1.843   1.105
 5723WAT      O17410   3.345   2.182   3.401
 5723WAT     H117411   3.415   2.116   3.373
 5723WAT     H217412   3.384   2.274   3.400
 5724WAT      O17413   5.105   2.945   0.639
 5724WAT     H117414   5.101   2.993   0.552
 5724WAT     H217415   5.179   2.878   0.637
 5725WAT      O17416   7.943   1.928   1.355
 5725WAT     H117417   7.862   1.945   1.300
 5725WAT     H217418   7.934   1.840   1.402
 5726WAT      O17419   7.990   5.726   8.056
 5726WAT     H117420   7.941   5.802   8.014
 5726WAT     H217421   7.942   5.640   8.035
 5727WAT      O17422   6.467   2.891   1.168
 5727WAT     H117423   6.521   2.966   1.130
 5727WAT     H217424   6.400   2.929   1.232
 5728WAT      O17425   5.971   4.504   0.022
 5728WAT     H117426   5.970   4.585  -0.036
 5728WAT     H217427   6.058   4.499   0.070
 5729WAT      O17428   2.666   9.604   2.064
 5729WAT     H117429   2.574   9.564   2.063
 5729WAT     H217430   2.731   9.536   2.099
 5730WAT      O17431   2.041   5.960   0.946
 5730WAT     H117432   1.983   6.038   0.971
 5730WAT     H217433   1.992   5.902   0.881
 5731WAT      O17434   6.977   0.833   3.306
 5731WAT     H117435   7.019   0.743   3.295
 5731WAT     H217436   6.897   0.840   3.247
 5732WAT      O17437   6.383   8.280   4.890
 5732WAT     H117438   6.407   8.196   4.841
 5732WAT     H217439   6.299   8.265   4.942
 5733WAT      O17440   4.848   2.381   3.426
 5733WAT     H117441   4.873   2.300   3.479
 5733WAT     H217442   4.823   2.455   3.489
 5734WAT      O17443   4.565   7.607   7.549
 5734WAT     H117444   4.530   7.558   7.629
 5734WAT     H217445   4.538   7.559   7.466
 5735WAT      O17446   6.578  -0.003   2.601
 5735WAT     H117447   6.609   0.060   2.672
 5735WAT     H217448   6.640   0.002   2.522
 5736WAT      O17449   8.491   1.321   5.509
 5736WAT     H117450   8.516   1.259   5.582
 5736WAT     H217451   8.460   1.408   5.548
 5737WAT      O17452   3.326   0.789   5.352
 5737WAT     H117453   3.282   0.760   5.437
 5737WAT     H217454   3.379   0.712   5.315
 5738WAT      O17455   9.150   2.375   9.508
 5738WAT     H117456   9.172   2.280   9.529
 5738WAT     H217457   9.052   2.391   9.520
 5739WAT      O17458   4.100   6.436   1.268
 5739WAT     H117459   4.200   6.432   1.269
 5739WAT     H217460   4.064   6.358   1.216
 5740WAT      O17461   4.997   0.158   3.458
 5740WAT     H117462   4.965   0.164   3.553
 5740WAT     H217463   5.033   0.066   3.441
 5741WAT      O17464   7.646   0.260   1.360
 5741WAT     H117465   7.607   0.190   1.301
 5741WAT     H217466   7.576   0.328   1.382
 5742WAT      O17467   6.549   7.445   2.700
 5742WAT     H117468   6.627   7.387   2.726
 5742WAT     H217469   6.504   7.406   2.620
 5743WAT      O17470   0.029   0.816   7.127
 5743WAT     H117471   0.062   0.817   7.222
 5743WAT     H217472  -0.025   0.733   7.112
 5744WAT      O17473   1.619   8.296   4.968
 5744WAT     H117474   1.597   8.394   4.960
 5744WAT     H217475   1.594   8.249   4.884
 5745WAT      O17476   4.139   9.461   2.228
 5745WAT     H117477   4.236   9.437   2.217
 5745WAT     H217478   4.121   9.485   2.323
 5746WAT      O17479   1.859   3.119   4.231
 5746WAT     H117480   1.875   3.021   4.217
 5746WAT     H217481   1.844   3.136   4.328
 5747WAT      O17482   8.726   6.889   8.137
 5747WAT     H117483   8.654   6.920   8.199
 5747WAT     H217484   8.791   6.833   8.187
 5748WAT      O17485   2.790   2.129   8.955
 5748WAT     H117486   2.720   2.163   9.019
 5748WAT     H217487   2.847   2.205   8.926
 5749WAT      O17488   2.064   2.348   1.860
 5749WAT     H117489   1.973   2.340   1.901
 5749WAT     H217490   2.058   2.335   1.761
 5750WAT      O17491   3.285   4.191   4.409
 5750WAT     H117492   3.279   4.260   4.338
 5750WAT     H217493   3.304   4.234   4.497
 5751WAT      O17494   6.178   6.890   6.252
 5751WAT     H117495   6.208   6.806   6.207
 5751WAT     H217496   6.227   6.968   6.214
 5752WAT      O17497   0.734   6.995   6.984
 5752WAT     H117498   0.682   6.954   6.909
 5752WAT     H217499   0.831   6.998   6.959
 5753WAT      O17500   8.472   6.529   5.748
 5753WAT     H117501   8.391   6.580   5.717
 5753WAT     H217502   8.553   6.588   5.739
 5754WAT      O17503   0.251   4.488   3.054
 5754WAT     H117504   0.280   4.400   3.092
 5754WAT     H217505   0.301   4.505   2.969
 5755WAT      O17506   7.189   0.842   7.227
 5755WAT     H117507   7.268   0.817   7.171
 5755WAT     H217508   7.122   0.890   7.170
 5756WAT      O17509   8.465   9.816   1.521
 5756WAT     H117510   8.447   9.747   1.590
 5756WAT     H217511   8.528   9.885   1.557
 5757WAT      O17512   4.245   9.433   9.348
 5757WAT     H117513   4.171   9.381   9.390
 5757WAT     H217514   4.215   9.528   9.333
 5758WAT      O17515   0.259   6.202   5.999
 5758WAT     H117516   0.274   6.150   5.915
 5758WAT     H217517   0.252   6.299   5.977
 5759WAT      O17518   4.295   1.963   4.606
 5759WAT     H117519   4.328   1.899   4.536
 5759WAT     H217520   4.359   2.039   4.613
 5760WAT      O17521   5.078   8.167   4.180
 5760WAT     H117522   5.097   8.072   4.155
 5760WAT     H217523   5.100   8.227   4.103
 5761WAT      O17524   6.794   7.115   4.721
 5761WAT     H117525   6.801   7.207   4.759
 5761WAT     H217526   6.843   7.111   4.634
 5762WAT      O17527   7.154   7.688   4.072
 5762WAT     H117528   7.145   7.638   3.986
 5762WAT     H217529   7.159   7.623   4.148
 5763WAT      O17530   3.986   5.490   6.614
 5763WAT     H117531   3.957   5.395   6.600
 5763WAT     H217532   3.981   5.539   6.527
 5764WAT      O17533   5.350   1.412   8.755
 5764WAT     H117534   5.333   1.362   8.840
 5764WAT     H217535   5.353   1.510   8.773
 5765WAT      O17536   3.129   0.536   0.401
 5765WAT     H117537   3.212   0.587   0.379
 5765WAT     H217538   3.111   0.541   0.499
 5766WAT      O17539   4.249   0.542   2.052
 5766WAT     H117540   4.183   0.612   2.078
 5766WAT     H217541   4.313   0.578   1.984
 5767WAT      O17542   2.036   3.299   5.603
 5767WAT     H117543   2.060   3.205   5.577
 5767WAT     H217544   2.119   3.354   5.611
 5768WAT      O17545   6.804   1.908   0.857
 5768WAT     H117546   6.902   1.891   0.850
 5768WAT     H217547   6.789   2.004   0.883
 5769WAT      O17548   5.521   7.571   1.316
 5769WAT     H117549   5.457   7.501   1.283
 5769WAT     H217550   5.583   7.596   1.242
 5770WAT      O17551   0.668   0.307   0.291
 5770WAT     H117552   0.589   0.328   0.349
 5770WAT     H217553   0.649   0.334   0.197
 5771WAT      O17554   3.633   3.798   8.220
 5771WAT     H117555   3.678   3.724   8.169
 5771WAT     H217556   3.601   3.868   8.157
 5772WAT      O17557   4.427   3.150   8.080
 5772WAT     H117558   4.369   3.128   8.001
 5772WAT     H217559   4.396   3.098   8.160
 5773WAT      O17560   5.652   7.796   3.712
 5773WAT     H117561   5.601   7.743   3.781
 5773WAT     H217562   5.657   7.892   3.742
 5774WAT      O17563   0.742   1.593   1.127
 5774WAT     H117564   0.820   1.593   1.189
 5774WAT     H217565   0.771   1.626   1.037
 5775WAT      O17566   3.973   7.599   1.082
 5775WAT     H117567   3.936   7.638   1.166
 5775WAT     H217568   3.981   7.670   1.012
 5776WAT      O17569   4.176   6.304   2.395
 5776WAT     H117570   4.172   6.260   2.306
 5776WAT     H217571   4.105   6.266   2.455
 5777WAT      O17572   5.707   0.470   8.746
 5777WAT     H117573   5.671   0.547   8.799
 5777WAT     H217574   5.631   0.410   8.718
 5778WAT      O17575   0.233   0.529   4.348
 5778WAT     H117576   0.188   0.570   4.427
 5778WAT     H217577   0.193   0.438   4.331
 5779WAT      O17578   0.514   5.868   4.268
 5779WAT     H117579   0.474   5.871   4.177
 5779WAT     H217580   0.613   5.854   4.261
 5780WAT      O17581   4.097   3.287   6.081
 5780WAT     H117582   4.157   3.208   6.070
 5780WAT     H217583   4.032   3.268   6.155
 5781WAT      O17584   4.566   8.367   0.034
 5781WAT     H117585   4.619   8.282   0.026
 5781WAT     H217586   4.622   8.437   0.077
 5782WAT      O17587   6.163   1.698   0.634
 5782WAT     H117588   6.178   1.600   0.623
 5782WAT     H217589   6.193   1.726   0.726
 5783WAT      O17590   1.758   8.918   3.468
 5783WAT     H117591   1.670   8.958   3.442
 5783WAT     H217592   1.780   8.843   3.406
 5784WAT      O17593   3.330   9.046   9.162
 5784WAT     H117594   3.371   9.097   9.239
 5784WAT     H217595   3.262   9.104   9.117
 5785WAT      O17596   3.329   0.049   6.147
 5785WAT     H117597   3.281   0.018   6.229
 5785WAT     H217598   3.277   0.021   6.066
 5786WAT      O17599   4.148   5.006   2.352
 5786WAT     H117600   4.194   4.954   2.280
 5786WAT     H217601   4.216   5.049   2.412
 5787WAT      O17602   6.186   3.696   3.117
 5787WAT     H117603   6.198   3.597   3.114
 5787WAT     H217604   6.257   3.740   3.061
 5788WAT      O17605   3.590   0.213   0.513
 5788WAT     H117606   3.682   0.183   0.489
 5788WAT     H217607   3.553   0.154   0.584
 5789WAT      O17608   8.423   4.633   3.616
 5789WAT     H117609   8.345   4.600   3.563
 5789WAT     H217610   8.394   4.650   3.710
 5790WAT      O17611   0.892   4.793   8.961
 5790WAT     H117612   0.949   4.840   8.893
 5790WAT     H217613   0.831   4.859   9.004
 5791WAT      O17614   6.994   1.297   3.696
 5791WAT     H117615   6.947   1.343   3.621
 5791WAT     H217616   6.943   1.215   3.721
 5792WAT      O17617   7.313   2.315   2.069
 5792WAT     H117618   7.330   2.326   2.167
 5792WAT     H217619   7.378   2.248   2.032
 5793WAT      O17620   3.705   5.802   0.117
 5793WAT     H117621   3.762   5.885   0.124
 5793WAT     H217622   3.649   5.808   0.034
 5794WAT      O17623   7.160   7.116   6.565
 5794WAT     H117624   7.131   7.210   6.552
 5794WAT     H217625   7.260   7.111   6.560
 5795WAT      O17626   0.990   8.171   7.276
 5795WAT     H117627   0.925   8.120   7.219
 5795WAT     H217628   0.961   8.167   7.371
 5796WAT      O17629   6.802   4.733   1.532
 5796WAT     H117630   6.869   4.683   1.477
 5796WAT     H217631   6.800   4.693   1.624
 5797WAT      O17632   4.734   0.836   7.150
 5797WAT     H117633   4.697   0.845   7.057
 5797WAT     H217634   4.731   0.924   7.196
 5798WAT      O17635   1.575   1.423   1.555
 5798WAT     H117636   1.590   1.354   1.625
 5798WAT     H217637   1.650   1.421   1.489
 5799WAT      O17638   1.363   4.058   7.849
 5799WAT     H117639   1.421   4.116   7.793
 5799WAT     H217640   1.390   4.066   7.945
 5800WAT      O17641   3.593   1.553   0.655
 5800WAT     H117642   3.671   1.492   0.661
 5800WAT     H217643   3.615   1.630   0.595
 5801WAT      O17644   2.341   1.691   3.443
 5801WAT     H117645   2.275   1.618   3.462
 5801WAT     H217646   2.331   1.764   3.510
 5802WAT      O17647   5.841   0.589   7.927
 5802WAT     H117648   5.750   0.617   7.956
 5802WAT     H217649   5.837   0.555   7.833
 5803WAT      O17650   9.356   3.498   5.636
 5803WAT     H117651   9.266   3.455   5.641
 5803WAT     H217652   9.347   3.596   5.655
 5804WAT      O17653   4.788   8.533   6.685
 5804WAT     H117654   4.735   8.536   6.600
 5804WAT     H217655   4.858   8.462   6.677
 5805WAT      O17656   6.206   0.009   4.276
 5805WAT     H117657   6.250  -0.079   4.292
 5805WAT     H217658   6.218   0.068   4.356
 5806WAT      O17659   9.385   7.043   8.467
 5806WAT     H117660   9.473   7.085   8.442
 5806WAT     H217661   9.340   7.008   8.385
 5807WAT      O17662   3.101   9.703   2.400
 5807WAT     H117663   3.040   9.741   2.469
 5807WAT     H217664   3.046   9.670   2.323
 5808WAT      O17665   7.689   9.731   7.909
 5808WAT     H117666   7.598   9.711   7.945
 5808WAT     H217667   7.700   9.830   7.896
 5809WAT      O17668   5.014   5.615   5.972
 5809WAT     H117669   5.046   5.666   6.052
 5809WAT     H217670   5.081   5.543   5.950
 5810WAT      O17671   7.740   3.316   1.782
 5810WAT     H117672   7.825   3.292   1.735
 5810WAT     H217673   7.690   3.233   1.804
 5811WAT      O17674   4.284   3.322   7.473
 5811WAT     H117675   4.352   3.342   7.402
 5811WAT     H217676   4.329   3.317   7.562
 5812WAT      O17677   0.965   2.704   1.985
 5812WAT     H117678   0.894   2.773   1.970
 5812WAT     H217679   0.923   2.620   2.019
 5813WAT      O17680   4.962   0.316   4.809
 5813WAT     H117681   4.930   0.234   4.857
 5813WAT     H217682   4.911   0.327   4.724
 5814WAT      O17683   8.104   4.036   5.535
 5814WAT     H117684   8.010   4.065   5.514
 5814WAT     H217685   8.116   3.940   5.511
 5815WAT      O17686   0.919   2.206   1.295
 5815WAT     H117687   0.948   2.172   1.385
 5815WAT     H217688   0.861   2.286   1.307
 5816WAT      O17689   5.133   2.220   6.186
 5816WAT     H117690   5.188   2.137   6.175
 5816WAT     H217691   5.142   2.277   6.105
 5817WAT      O17692   3.420   3.133   7.119
 5817WAT     H117693   3.403   3.186   7.202
 5817WAT     H217694   3.479   3.056   7.141
 5818WAT      O17695   3.493   2.685   3.644
 5818WAT     H117696   3.514   2.778   3.671
 5818WAT     H217697   3.394   2.674   3.634
 5819WAT      O17698   1.407   0.753   0.950
 5819WAT     H117699   1.336   0.704   1.000
 5819WAT     H217700   1.397   0.735   0.852
 5820WAT      O17701   3.811   8.124   6.853
 5820WAT     H117702   3.739   8.090   6.913
 5820WAT     H217703   3.897   8.128   6.904
 5821WAT      O17704   2.018   3.810   6.558
 5821WAT     H117705   1.990   3.891   6.609
 5821WAT     H217706   2.004   3.825   6.460
 5822WAT      O17707   8.752   2.531   3.396
 5822WAT     H117708   8.681   2.560   3.331
 5822WAT     H217709   8.735   2.437   3.425
 5823WAT      O17710   7.070   3.986   0.205
 5823WAT     H117711   6.998   4.056   0.205
 5823WAT     H217712   7.029   3.896   0.187
 5824WAT      O17713   5.287   1.283   4.428
 5824WAT     H117714   5.303   1.347   4.503
 5824WAT     H217715   5.237   1.203   4.462
 5825WAT      O17716   3.568   8.842   3.275
 5825WAT     H117717   3.627   8.876   3.348
 5825WAT     H217718   3.622   8.823   3.193
 5826WAT      O17719   7.868   9.804   0.410
 5826WAT     H117720   7.901   9.868   0.479
 5826WAT     H217721   7.937   9.734   0.394
 5827WAT      O17722   0.312   5.804   1.738
 5827WAT     H117723   0.359   5.717   1.753
 5827WAT     H217724   0.213   5.789   1.742
 5828WAT      O17725   6.275   7.590   0.898
 5828WAT     H117726   6.274   7.619   0.994
 5828WAT     H217727   6.196   7.629   0.851
 5829WAT      O17728   1.623   5.177   6.905
 5829WAT     H117729   1.662   5.104   6.850
 5829WAT     H217730   1.631   5.153   7.002
 5830WAT      O17731   3.662   5.543   2.645
 5830WAT     H117732   3.740   5.534   2.707
 5830WAT     H217733   3.681   5.493   2.560
 5831WAT      O17734   1.164   5.663   4.438
 5831WAT     H117735   1.196   5.715   4.358
 5831WAT     H217736   1.067   5.683   4.453
 5832WAT      O17737   2.157   3.437   0.079
 5832WAT     H117738   2.101   3.422  -0.002
 5832WAT     H217739   2.106   3.409   0.160
 5833WAT      O17740   4.919   4.699   8.067
 5833WAT     H117741   4.908   4.600   8.062
 5833WAT     H217742   4.892   4.732   8.157
 5834WAT      O17743   7.426   7.573   9.463
 5834WAT     H117744   7.339   7.524   9.470
 5834WAT     H217745   7.466   7.558   9.373
 5835WAT      O17746   3.836   8.987   0.981
 5835WAT     H117747   3.748   9.006   0.936
 5835WAT     H217748   3.845   8.889   0.996
 5836WAT      O17749   1.783   5.298   4.865
 5836WAT     H117750   1.861   5.318   4.806
 5836WAT     H217751   1.717   5.242   4.815
 5837WAT      O17752   0.245   2.811   3.749
 5837WAT     H117753   0.241   2.822   3.848
 5837WAT     H217754   0.252   2.901   3.705
 5838WAT      O17755   4.025   8.720   2.098
 5838WAT     H117756   4.034   8.752   2.193
 5838WAT     H217757   4.090   8.771   2.041
 5839WAT      O17758   2.603   0.016   8.248
 5839WAT     H117759   2.595   0.098   8.191
 5839WAT     H217760   2.616   0.044   8.343
 5840WAT      O17761   2.544   5.884   0.263
 5840WAT     H117762   2.477   5.810   0.257
 5840WAT     H217763   2.497   5.972   0.275
 5841WAT      O17764   3.428   6.890   8.213
 5841WAT     H117765   3.335   6.928   8.210
 5841WAT     H217766   3.479   6.930   8.288
 5842WAT      O17767   1.132   0.485   6.665
 5842WAT     H117768   1.121   0.469   6.763
 5842WAT     H217769   1.147   0.397   6.619
 5843WAT      O17770   9.473   7.930   2.566
 5843WAT     H117771   9.514   7.848   2.606
 5843WAT     H217772   9.381   7.909   2.533
 5844WAT      O17773   1.095   3.864   2.970
 5844WAT     H117774   1.139   3.937   2.918
 5844WAT     H217775   1.073   3.897   3.062
 5845WAT      O17776   5.196   7.753   1.611
 5845WAT     H117777   5.220   7.661   1.582
 5845WAT     H217778   5.116   7.784   1.560
 5846WAT      O17779   0.753   3.717   7.051
 5846WAT     H117780   0.774   3.814   7.062
 5846WAT     H217781   0.703   3.702   6.966
 5847WAT      O17782   4.852   7.118   2.085
 5847WAT     H117783   4.848   7.178   2.005
 5847WAT     H217784   4.876   7.171   2.166
 5848WAT      O17785   3.605   0.609   9.083
 5848WAT     H117786   3.678   0.588   9.019
 5848WAT     H217787   3.632   0.686   9.141
 5849WAT      O17788   2.258   8.865   6.325
 5849WAT     H117789   2.173   8.830   6.365
 5849WAT     H217790   2.331   8.799   6.339
 5850WAT      O17791   8.143   3.337   4.690
 5850WAT     H117792   8.116   3.434   4.693
 5850WAT     H217793   8.061   3.281   4.676
 5851WAT      O17794   2.566   7.798   0.439
 5851WAT     H117795   2.609   7.718   0.398
 5851WAT     H217796   2.477   7.813   0.397
 5852WAT      O17797   7.056   2.125   2.576
 5852WAT     H117798   7.101   2.048   2.621
 5852WAT     H217799   6.957   2.115   2.584
 5853WAT      O17800   4.752   5.982   0.712
 5853WAT     H117801   4.748   5.885   0.689
 5853WAT     H217802   4.689   6.002   0.787
 5854WAT      O17803   8.646   6.150   3.478
 5854WAT     H117804   8.575   6.162   3.408
 5854WAT     H217805   8.726   6.106   3.437
 5855WAT      O17806   1.675   9.516   5.158
 5855WAT     H117807   1.714   9.432   5.122
 5855WAT     H217808   1.576   9.516   5.144
 5856WAT      O17809   7.980   2.823   4.136
 5856WAT     H117810   7.881   2.838   4.143
 5856WAT     H217811   8.027   2.879   4.204
 5857WAT      O17812   7.800   0.328   6.046
 5857WAT     H117813   7.858   0.258   6.088
 5857WAT     H217814   7.805   0.412   6.100
 5858WAT      O17815   2.769   0.011   1.405
 5858WAT     H117816   2.682  -0.036   1.393
 5858WAT     H217817   2.752   0.103   1.442
 5859WAT      O17818   9.703   1.275   0.996
 5859WAT     H117819   9.715   1.367   0.960
 5859WAT     H217820   9.709   1.278   1.096
 5860WAT      O17821   2.793   1.020   3.034
 5860WAT     H117822   2.821   1.020   2.939
 5860WAT     H217823   2.693   1.013   3.039
 5861WAT      O17824   2.673   8.181   1.763
 5861WAT     H117825   2.686   8.279   1.780
 5861WAT     H217826   2.753   8.145   1.716
 5862WAT      O17827   7.940   4.467   3.557
 5862WAT     H117828   7.893   4.525   3.623
 5862WAT     H217829   7.876   4.441   3.484
 5863WAT      O17830   3.711   4.261   4.414
 5863WAT     H117831   3.789   4.303   4.459
 5863WAT     H217832   3.703   4.296   4.320
 5864WAT      O17833   2.643   0.589   4.983
 5864WAT     H117834   2.688   0.668   5.026
 5864WAT     H217835   2.550   0.581   5.019
 5865WAT      O17836   8.251   3.248   1.940
 5865WAT     H117837   8.256   3.202   2.029
 5865WAT     H217838   8.223   3.343   1.953
 5866WAT      O17839   0.642   0.321   9.798
 5866WAT     H117840   0.633   0.224   9.816
 5866WAT     H217841   0.606   0.342   9.707
 5867WAT      O17842   8.635   7.614   1.646
 5867WAT     H117843   8.677   7.674   1.714
 5867WAT     H217844   8.652   7.651   1.555
 5868WAT      O17845   3.979   2.693   4.778
 5868WAT     H117846   3.923   2.676   4.859
 5868WAT     H217847   4.059   2.634   4.780
 5869WAT      O17848   8.642   0.574   4.730
 5869WAT     H117849   8.649   0.667   4.766
 5869WAT     H217850   8.589   0.575   4.645
 5870WAT      O17851   3.525   0.105   1.715
 5870WAT     H117852   3.535   0.054   1.800
 5870WAT     H217853   3.503   0.200   1.735
 5871WAT      O17854   8.623   5.104   9.616
 5871WAT     H117855   8.641   5.006   9.623
 5871WAT     H217856   8.614   5.129   9.520
 5872WAT      O17857   7.515   9.726   5.228
 5872WAT     H117858   7.496   9.701   5.322
 5872WAT     H217859   7.438   9.701   5.170
 5873WAT      O17860   6.864   3.791   5.669
 5873WAT     H117861   6.877   3.727   5.593
 5873WAT     H217862   6.907   3.754   5.751
 5874WAT      O17863   7.193   4.101   8.988
 5874WAT     H117864   7.124   4.135   9.053
 5874WAT     H217865   7.281   4.091   9.036
 5875WAT      O17866   1.734   3.606   3.819
 5875WAT     H117867   1.692   3.651   3.898
 5875WAT     H217868   1.746   3.508   3.839
 5876WAT      O17869   5.421   6.594   9.767
 5876WAT     H117870   5.386   6.659   9.833
 5876WAT     H217871   5.483   6.530   9.812
 5877WAT      O17872   2.755   0.706   6.732
 5877WAT     H117873   2.805   0.637   6.679
 5877WAT     H217874   2.715   0.663   6.813
 5878WAT      O17875   0.407   8.819   0.972
 5878WAT     H117876   0.457   8.901   0.945
 5878WAT     H217877   0.471   8.752   1.010
 5879WAT      O17878   4.319   7.561   8.340
 5879WAT     H117879   4.396   7.498   8.330
 5879WAT     H217880   4.349   7.655   8.324
 5880WAT      O17881   1.900   1.299   4.035
 5880WAT     H117882   1.965   1.333   4.104
 5880WAT     H217883   1.809   1.337   4.054
 5881WAT      O17884   8.667   2.260   0.606
 5881WAT     H117885   8.568   2.267   0.594
 5881WAT     H217886   8.712   2.333   0.554
 5882WAT      O17887   6.703   2.329   2.807
 5882WAT     H117888   6.741   2.311   2.898
 5882WAT     H217889   6.732   2.420   2.776
 5883WAT      O17890   7.784   4.075   9.468
 5883WAT     H117891   7.810   3.979   9.456
 5883WAT     H217892   7.688   4.080   9.497
 5884WAT      O17893   6.151   5.767   2.892
 5884WAT     H117894   6.133   5.861   2.863
 5884WAT     H217895   6.118   5.755   2.986
 5885WAT      O17896   3.314   7.702   5.874
 5885WAT     H117897   3.329   7.696   5.775
 5885WAT     H217898   3.385   7.758   5.915
 5886WAT      O17899   4.687   4.596   4.934
 5886WAT     H117900   4.767   4.655   4.951
 5886WAT     H217901   4.604   4.644   4.965
 5887WAT      O17902   3.365   8.283   0.166
 5887WAT     H117903   3.410   8.214   0.222
 5887WAT     H217904   3.408   8.372   0.180
 5888WAT      O17905   0.610   5.086   8.824
 5888WAT     H117906   0.560   5.002   8.842
 5888WAT     H217907   0.687   5.093   8.887
 5889WAT      O17908   9.347   8.833   3.434
 5889WAT     H117909   9.429   8.811   3.487
 5889WAT     H217910   9.347   8.931   3.411
 5890WAT      O17911   4.058   7.655   5.558
 5890WAT     H117912   4.028   7.751   5.557
 5890WAT     H217913   4.026   7.610   5.641
 5891WAT      O17914   9.379   4.685   3.773
 5891WAT     H117915   9.423   4.732   3.697
 5891WAT     H217916   9.446   4.626   3.818
 5892WAT      O17917   3.374   7.142   5.627
 5892WAT     H117918   3.362   7.237   5.655
 5892WAT     H217919   3.466   7.130   5.589
 5893WAT      O17920   9.281   0.130   0.662
 5893WAT     H117921   9.292   0.137   0.563
 5893WAT     H217922   9.347   0.189   0.708
 5894WAT      O17923   0.083   9.674   3.531
 5894WAT     H117924   0.009   9.608   3.522
 5894WAT     H217925   0.156   9.637   3.588
 5895WAT      O17926   3.946   1.002   2.909
 5895WAT     H117927   3.976   0.908   2.890
 5895WAT     H217928   3.992   1.035   2.992
 5896WAT      O17929   6.262   4.244   9.585
 5896WAT     H117930   6.290   4.169   9.646
 5896WAT     H217931   6.317   4.240   9.501
 5897WAT      O17932   6.319   1.599   6.043
 5897WAT     H117933   6.314   1.515   6.097
 5897WAT     H217934   6.414   1.631   6.042
 5898WAT      O17935   4.194   3.940   5.365
 5898WAT     H117936   4.170   4.037   5.368
 5898WAT     H217937   4.113   3.887   5.341
 5899WAT      O17938   7.846   6.464   4.990
 5899WAT     H117939   7.835   6.426   5.082
 5899WAT     H217940   7.890   6.554   4.996
 5900WAT      O17941   5.951   6.599   6.393
 5900WAT     H117942   5.956   6.551   6.481
 5900WAT     H217943   5.907   6.540   6.325
 5901WAT      O17944   0.711   7.821   1.135
 5901WAT     H117945   0.641   7.882   1.098
 5901WAT     H217946   0.731   7.750   1.067
 5902WAT      O17947   3.940   5.857   6.064
 5902WAT     H117948   3.867   5.835   5.999
 5902WAT     H217949   4.028   5.851   6.017
 5903WAT      O17950   9.799   3.192   3.608
 5903WAT     H117951   9.833   3.284   3.628
 5903WAT     H217952   9.829   3.164   3.517
 5904WAT      O17953   7.985   3.793   7.981
 5904WAT     H117954   8.033   3.733   7.916
 5904WAT     H217955   7.950   3.873   7.932
 5905WAT      O17956   7.224   4.622   9.078
 5905WAT     H117957   7.250   4.646   8.984
 5905WAT     H217958   7.303   4.633   9.138
 5906WAT      O17959   6.749   2.822   2.561
 5906WAT     H117960   6.827   2.778   2.605
 5906WAT     H217961   6.773   2.847   2.468
 5907WAT      O17962   2.986   5.273   7.947
 5907WAT     H117963   3.017   5.181   7.924
 5907WAT     H217964   3.018   5.337   7.877
 5908WAT      O17965   3.273   8.454   8.227
 5908WAT     H117966   3.334   8.527   8.258
 5908WAT     H217967   3.273   8.450   8.127
 5909WAT      O17968   8.425   2.255   1.224
 5909WAT     H117969   8.383   2.207   1.147
 5909WAT     H217970   8.507   2.206   1.254
 5910WAT      O17971   4.929   0.017   6.816
 5910WAT     H117972   4.954   0.099   6.868
 5910WAT     H217973   4.830   0.007   6.817
 5911WAT      O17974   8.246   1.545   9.689
 5911WAT     H117975   8.248   1.546   9.789
 5911WAT     H217976   8.214   1.455   9.657
 5912WAT      O17977   0.659   4.728   0.866
 5912WAT     H117978   0.590   4.782   0.817
 5912WAT     H217979   0.614   4.652   0.914
 5913WAT      O17980   3.970   1.487   2.886
 5913WAT     H117981   3.978   1.535   2.798
 5913WAT     H217982   3.883   1.438   2.889
 5914WAT      O17983   1.957   0.405   1.227
 5914WAT     H117984   1.865   0.421   1.263
 5914WAT     H217985   1.952   0.342   1.150
 5915WAT      O17986   7.932   7.964   0.378
 5915WAT     H117987   7.844   7.967   0.330
 5915WAT     H217988   7.995   8.029   0.336
 5916WAT      O17989   7.247   5.246   1.424
 5916WAT     H117990   7.236   5.207   1.515
 5916WAT     H217991   7.245   5.173   1.356
 5917WAT      O17992   0.926   7.999   1.147
 5917WAT     H117993   0.883   8.080   1.107
 5917WAT     H217994   0.869   7.963   1.220
 5918WAT      O17995   7.678   3.803   4.822
 5918WAT     H117996   7.594   3.858   4.818
 5918WAT     H217997   7.704   3.776   4.729
 5919WAT      O17998   0.850   3.309   8.758
 5919WAT     H117999   0.912   3.325   8.834
 5919WAT     H218000   0.860   3.383   8.691
 5920WAT      O18001   1.031   8.781   8.933
 5920WAT     H118002   0.948   8.836   8.932
 5920WAT     H218003   1.037   8.728   8.848
 5921WAT      O18004   8.087   8.380   8.119
 5921WAT     H118005   8.108   8.321   8.197
 5921WAT     H218006   8.022   8.334   8.059
 5922WAT      O18007   1.882   5.955   8.417
 5922WAT     H118008   1.843   5.933   8.328
 5922WAT     H218009   1.975   5.918   8.422
 5923WAT      O18010   3.307   5.950   6.372
 5923WAT     H118011   3.330   6.041   6.405
 5923WAT     H218012   3.330   5.882   6.442
 5924WAT      O18013   4.576   2.885   1.669
 5924WAT     H118014   4.489   2.890   1.717
 5924WAT     H218015   4.576   2.806   1.607
 5925WAT      O18016   9.626   6.385   0.580
 5925WAT     H118017   9.607   6.446   0.657
 5925WAT     H218018   9.669   6.437   0.506
 5926WAT      O18019   6.050   8.494   3.106
 5926WAT     H118020   6.068   8.424   3.174
 5926WAT     H218021   5.977   8.554   3.138
 5927WAT      O18022   6.296   8.410   4.384
 5927WAT     H118023   6.259   8.472   4.314
 5927WAT     H218024   6.257   8.434   4.473
 5928WAT      O18025   7.914   0.992   2.975
 5928WAT     H118026   7.958   1.078   3.000
 5928WAT     H218027   7.816   0.998   2.996
 5929WAT      O18028   2.858   4.826   9.319
 5929WAT     H118029   2.805   4.752   9.279
 5929WAT     H218030   2.881   4.894   9.249
 5930WAT      O18031   6.689   9.486   5.431
 5930WAT     H118032   6.609   9.543   5.414
 5930WAT     H218033   6.758   9.539   5.480
 5931WAT      O18034   3.308   1.219   5.454
 5931WAT     H118035   3.392   1.188   5.499
 5931WAT     H218036   3.315   1.316   5.434
 5932WAT      O18037   1.584   1.102   1.372
 5932WAT     H118038   1.669   1.072   1.329
 5932WAT     H218039   1.583   1.074   1.468
 5933WAT      O18040   2.916   2.629   0.060
 5933WAT     H118041   2.893   2.713   0.010
 5933WAT     H218042   2.834   2.593   0.104
 5934WAT      O18043   3.708   9.456   5.405
 5934WAT     H118044   3.654   9.425   5.327
 5934WAT     H218045   3.752   9.543   5.383
 5935WAT      O18046   7.551   6.609   4.253
 5935WAT     H118047   7.471   6.571   4.301
 5935WAT     H218048   7.594   6.537   4.199
 5936WAT      O18049   0.914   1.558   8.265
 5936WAT     H118050   0.919   1.562   8.364
 5936WAT     H218051   0.934   1.465   8.234
 5937WAT      O18052   8.165   8.584   0.938
 5937WAT     H118053   8.259   8.553   0.957
 5937WAT     H218054   8.107   8.564   1.016
 5938WAT      O18055   4.018   3.894   3.640
 5938WAT     H118056   4.045   3.839   3.560
 5938WAT     H218057   3.985   3.833   3.712
 5939WAT      O18058   4.194   2.181   7.378
 5939WAT     H118059   4.255   2.184   7.298
 5939WAT     H218060   4.151   2.091   7.383
 5940WAT      O18061   7.481   6.867   2.565
 5940WAT     H118062   7.465   6.965   2.558
 5940WAT     H218063   7.411   6.818   2.512
 5941WAT      O18064   2.291   5.546   3.608
 5941WAT     H118065   2.351   5.595   3.544
 5941WAT     H218066   2.347   5.485   3.664
 5942WAT      O18067   7.429   6.488   3.085
 5942WAT     H118068   7.503   6.554   3.074
 5942WAT     H218069   7.386   6.500   3.174
 5943WAT      O18070   4.423   4.163   9.512
 5943WAT     H118071   4.334   4.155   9.468
 5943WAT     H218072   4.441   4.081   9.566
 5944WAT      O18073   3.497   1.862   6.425
 5944WAT     H118074   3.474   1.879   6.521
 5944WAT     H218075   3.415   1.878   6.369
 5945WAT      O18076   3.231   2.571   8.227
 5945WAT     H118077   3.160   2.561   8.158
 5945WAT     H218078   3.303   2.631   8.192
 5946WAT      O18079   7.599   2.590   7.081
 5946WAT     H118080   7.572   2.624   6.991
 5946WAT     H218081   7.654   2.658   7.129
 5947WAT      O18082   1.618   4.869   7.480
 5947WAT     H118083   1.594   4.885   7.385
 5947WAT     H218084   1.569   4.788   7.513
 5948WAT      O18085   9.270   1.101   1.908
 5948WAT     H118086   9.239   1.119   2.001
 5948WAT     H218087   9.215   1.028   1.868
 5949WAT      O18088   9.261   6.136   7.078
 5949WAT     H118089   9.321   6.056   7.081
 5949WAT     H218090   9.298   6.204   7.014
 5950WAT      O18091   8.091   7.329   6.239
 5950WAT     H118092   8.043   7.248   6.272
 5950WAT     H218093   8.131   7.379   6.316
 5951WAT      O18094   1.095   5.972   5.059
 5951WAT     H118095   1.150   6.055   5.068
 5951WAT     H218096   1.001   5.995   5.037
 5952WAT      O18097   0.347   6.880   9.735
 5952WAT     H118098   0.430   6.862   9.683
 5952WAT     H218099   0.370   6.895   9.832
 5953WAT      O18100   9.812   0.649   0.118
 5953WAT     H118101   9.731   0.705   0.101
 5953WAT     H218102   9.893   0.708   0.118
 5954WAT      O18103   2.778   4.807   6.879
 5954WAT     H118104   2.745   4.851   6.795
 5954WAT     H218105   2.764   4.869   6.957
 5955WAT      O18106   0.592   1.450   1.432
 5955WAT     H118107   0.610   1.382   1.361
 5955WAT     H218108   0.611   1.410   1.522
 5956WAT      O18109   6.274   6.868   3.892
 5956WAT     H118110   6.221   6.883   3.809
 5956WAT     H218111   6.225   6.908   3.970
 5957WAT      O18112   0.443   8.335   6.879
 5957WAT     H118113   0.496   8.294   6.806
 5957WAT     H218114   0.371   8.393   6.840
 5958WAT      O18115   6.775   9.000   5.752
 5958WAT     H118116   6.797   9.091   5.719
 5958WAT     H218117   6.741   8.944   5.676
 5959WAT      O18118   6.054   9.501   1.819
 5959WAT     H118119   6.083   9.480   1.726
 5959WAT     H218120   5.980   9.569   1.817
 5960WAT      O18121   2.702   9.155   5.396
 5960WAT     H118122   2.652   9.116   5.473
 5960WAT     H218123   2.652   9.234   5.360
 5961WAT      O18124   7.970   1.946   1.787
 5961WAT     H118125   7.989   2.006   1.710
 5961WAT     H218126   8.014   1.982   1.869
 5962WAT      O18127   7.577   8.062   2.513
 5962WAT     H118128   7.602   8.082   2.608
 5962WAT     H218129   7.587   8.144   2.457
 5963WAT      O18130   1.379   5.412   7.174
 5963WAT     H118131   1.444   5.382   7.244
 5963WAT     H218132   1.291   5.367   7.189
 5964WAT      O18133   5.353   6.424   5.169
 5964WAT     H118134   5.400   6.343   5.205
 5964WAT     H218135   5.419   6.481   5.119
 5965WAT      O18136   4.841   9.624   5.417
 5965WAT     H118137   4.814   9.590   5.327
 5965WAT     H218138   4.759   9.649   5.469
 5966WAT      O18139   2.101   6.291   8.682
 5966WAT     H118140   2.070   6.254   8.771
 5966WAT     H218141   2.131   6.385   8.694
 5967WAT      O18142   4.221   7.294   9.180
 5967WAT     H118143   4.139   7.238   9.185
 5967WAT     H218144   4.226   7.352   9.261
 5968WAT      O18145   3.107   5.595   8.433
 5968WAT     H118146   3.124   5.505   8.472
 5968WAT     H218147   3.172   5.661   8.471
 5969WAT      O18148   5.031   8.472   0.741
 5969WAT     H118149   4.988   8.398   0.792
 5969WAT     H218150   5.124   8.445   0.716
 5970WAT      O18151   8.235   0.163   7.315
 5970WAT     H118152   8.309   0.162   7.382
 5970WAT     H218153   8.245   0.085   7.254
 5971WAT      O18154   4.161   1.383   6.116
 5971WAT     H118155   4.206   1.313   6.170
 5971WAT     H218156   4.159   1.355   6.020
 5972WAT      O18157   0.897   2.335   5.653
 5972WAT     H118158   0.835   2.361   5.579
 5972WAT     H218159   0.851   2.271   5.714
 5973WAT      O18160   0.224   1.909   4.224
 5973WAT     H118161   0.318   1.915   4.190
 5973WAT     H218162   0.223   1.858   4.310
 5974WAT      O18163   2.232   9.297   7.490
 5974WAT     H118164   2.282   9.213   7.467
 5974WAT     H218165   2.268   9.335   7.575
 5975WAT      O18166   5.023   5.716   3.998
 5975WAT     H118167   5.066   5.762   4.076
 5975WAT     H218168   5.025   5.776   3.918
 5976WAT      O18169   0.959   2.062   9.431
 5976WAT     H118170   0.880   2.074   9.492
 5976WAT     H218171   1.010   1.981   9.459
 5977WAT      O18172   4.676   3.608   0.491
 5977WAT     H118173   4.619   3.546   0.546
 5977WAT     H218174   4.630   3.628   0.405
 5978WAT      O18175   8.612   0.390   1.457
 5978WAT     H118176   8.592   0.485   1.484
 5978WAT     H218177   8.586   0.376   1.361
 5979WAT      O18178   2.520   0.589   1.594
 5979WAT     H118179   2.572   0.660   1.545
 5979WAT     H218180   2.437   0.567   1.543
 5980WAT      O18181   1.524   7.567   4.062
 5980WAT     H118182   1.599   7.537   4.002
 5980WAT     H218183   1.437   7.531   4.028
 5981WAT      O18184   1.799   2.654   5.611
 5981WAT     H118185   1.875   2.717   5.599
 5981WAT     H218186   1.722   2.701   5.652
 5982WAT      O18187   4.887   4.834   8.294
 5982WAT     H118188   4.952   4.905   8.321
 5982WAT     H218189   4.858   4.782   8.375
 5983WAT      O18190   5.807   8.105   9.327
 5983WAT     H118191   5.804   8.037   9.400
 5983WAT     H218192   5.756   8.187   9.355
 5984WAT      O18193   3.405   1.131   7.512
 5984WAT     H118194   3.362   1.062   7.454
 5984WAT     H218195   3.352   1.141   7.596
 5985WAT      O18196   1.515   5.469   6.100
 5985WAT     H118197   1.539   5.384   6.147
 5985WAT     H218198   1.594   5.503   6.050
 5986WAT      O18199   3.736   1.151   5.289
 5986WAT     H118200   3.806   1.220   5.307
 5986WAT     H218201   3.715   1.149   5.191
 5987WAT      O18202   9.449   5.711   4.135
 5987WAT     H118203   9.437   5.689   4.232
 5987WAT     H218204   9.486   5.632   4.087
 5988WAT      O18205   5.498   5.814   4.459
 5988WAT     H118206   5.428   5.768   4.406
 5988WAT     H218207   5.586   5.809   4.411
 5989WAT      O18208   9.453   2.663   1.865
 5989WAT     H118209   9.503   2.723   1.928
 5989WAT     H218210   9.503   2.577   1.854
 5990WAT      O18211   2.040   7.345   1.245
 5990WAT     H118212   1.992   7.260   1.221
 5990WAT     H218213   2.007   7.420   1.187
 5991WAT      O18214   8.477   8.757   4.888
 5991WAT     H118215   8.525   8.732   4.972
 5991WAT     H218216   8.380   8.735   4.896
 5992WAT      O18217   0.534   1.924   1.284
 5992WAT     H118218   0.602   1.915   1.356
 5992WAT     H218219   0.453   1.870   1.308
 5993WAT      O18220   1.873   3.435   6.993
 5993WAT     H118221   1.832   3.494   7.063
 5993WAT     H218222   1.837   3.459   6.903
 5994WAT      O18223   4.378   2.388   2.966
 5994WAT     H118224   4.448   2.458   2.981
 5994WAT     H218225   4.341   2.398   2.874
 5995WAT      O18226   2.982   0.714   3.162
 5995WAT     H118227   2.898   0.759   3.130
 5995WAT     H218228   2.969   0.683   3.256
 5996WAT      O18229   0.380   4.343   0.498
 5996WAT     H118230   0.453   4.281   0.469
 5996WAT     H218231   0.415   4.437   0.502
 5997WAT      O18232   6.218   2.987   1.319
 5997WAT     H118233   6.163   2.929   1.379
 5997WAT     H218234   6.161   3.063   1.285
 5998WAT      O18235   2.680   9.361   8.765
 5998WAT     H118236   2.726   9.340   8.679
 5998WAT     H218237   2.616   9.437   8.751
 5999WAT      O18238   2.758   3.454   6.342
 5999WAT     H118239   2.734   3.494   6.253
 5999WAT     H218240   2.836   3.502   6.381
 6000WAT      O18241   1.096   0.892   4.080
 6000WAT     H118242   1.060   0.864   3.991
 6000WAT     H218243   1.096   0.992   4.086
 6001WAT      O18244   9.108   7.133   5.401
 6001WAT     H118245   9.119   7.095   5.492
 6001WAT     H218246   9.184   7.102   5.343
 6002WAT      O18247   0.012   9.688   0.869
 6002WAT     H118248   0.054   9.701   0.779
 6002WAT     H218249  -0.073   9.741   0.874
 6003WAT      O18250   6.168   7.701   4.843
 6003WAT     H118251   6.145   7.775   4.907
 6003WAT     H218252   6.130   7.615   4.877
 6004WAT      O18253   2.277   8.816   8.049
 6004WAT     H118254   2.218   8.815   7.968
 6004WAT     H218255   2.229   8.774   8.126
 6005WAT      O18256   1.791   4.874   6.062
 6005WAT     H118257   1.841   4.896   5.979
 6005WAT     H218258   1.700   4.840   6.038
 6006WAT      O18259   6.303   5.680   4.182
 6006WAT     H118260   6.264   5.600   4.137
 6006WAT     H218261   6.239   5.715   4.250
 6007WAT      O18262   4.648   4.201   3.913
 6007WAT     H118263   4.562   4.150   3.913
 6007WAT     H218264   4.633   4.293   3.949
 6008WAT      O18265   4.718   1.508   4.910
 6008WAT     H118266   4.736   1.412   4.889
 6008WAT     H218267   4.763   1.533   4.995
 6009WAT      O18268   8.055   7.388   2.964
 6009WAT     H118269   7.962   7.351   2.961
 6009WAT     H218270   8.118   7.324   2.919
 6010WAT      O18271   0.118   4.609   0.659
 6010WAT     H118272   0.173   4.679   0.614
 6010WAT     H218273   0.021   4.631   0.648
 6011WAT      O18274   3.387   1.961   7.674
 6011WAT     H118275   3.295   1.967   7.635
 6011WAT     H218276   3.381   1.926   7.767
 6012WAT      O18277   9.490   1.863   4.028
 6012WAT     H118278   9.493   1.827   3.935
 6012WAT     H218279   9.477   1.962   4.025
 6013WAT      O18280   9.524   2.549   2.212
 6013WAT     H118281   9.517   2.467   2.156
 6013WAT     H218282   9.434   2.593   2.217
 6014WAT      O18283   1.576   4.865   4.869
 6014WAT     H118284   1.573   4.958   4.831
 6014WAT     H218285   1.552   4.799   4.797
 6015WAT      O18286   4.754   5.237   3.111
 6015WAT     H118287   4.685   5.263   3.043
 6015WAT     H218288   4.739   5.143   3.140
 6016WAT      O18289   3.917   6.699   5.929
 6016WAT     H118290   3.929   6.796   5.908
 6016WAT     H218291   3.861   6.657   5.857
 6017WAT      O18292   2.599   7.945   0.661
 6017WAT     H118293   2.588   7.896   0.574
 6017WAT     H218294   2.517   8.000   0.678
 6018WAT      O18295   5.678   2.534   9.054
 6018WAT     H118296   5.597   2.486   9.088
 6018WAT     H218297   5.686   2.521   8.956
 6019WAT      O18298   3.464   4.486   2.740
 6019WAT     H118299   3.453   4.480   2.640
 6019WAT     H218300   3.552   4.528   2.760
 6020WAT      O18301   1.086   8.766   9.420
 6020WAT     H118302   1.028   8.704   9.473
 6020WAT     H218303   1.182   8.751   9.443
 6021WAT      O18304   8.226   8.501   7.928
 6021WAT     H118305   8.189   8.449   8.005
 6021WAT     H218306   8.154   8.514   7.860
 6022WAT      O18307   3.291   5.541   7.416
 6022WAT     H118308   3.375   5.593   7.434
 6022WAT     H218309   3.213   5.602   7.423
 6023WAT      O18310   2.711   6.073   7.145
 6023WAT     H118311   2.794   6.102   7.191
 6023WAT     H218312   2.713   5.974   7.132
 6024WAT      O18313   1.652   8.520   5.268
 6024WAT     H118314   1.688   8.604   5.308
 6024WAT     H218315   1.710   8.493   5.190
 6025WAT      O18316   3.061   4.785   9.847
 6025WAT     H118317   3.129   4.827   9.908
 6025WAT     H218318   3.091   4.692   9.823
 6026WAT      O18319   4.678   7.387   3.161
 6026WAT     H118320   4.633   7.434   3.237
 6026WAT     H218321   4.685   7.448   3.083
 6027WAT      O18322   3.124   0.796   9.577
 6027WAT     H118323   3.149   0.882   9.531
 6027WAT     H218324   3.043   0.812   9.634
 6028WAT      O18325   6.601   3.844   9.876
 6028WAT     H118326   6.600   3.944   9.869
 6028WAT     H218327   6.630   3.817   9.967
 6029WAT      O18328   3.855   5.940   3.923
 6029WAT     H118329   3.850   6.014   3.991
 6029WAT     H218330   3.876   5.854   3.970
 6030WAT      O18331   1.718   2.176   2.681
 6030WAT     H118332   1.676   2.233   2.752
 6030WAT     H218333   1.649   2.153   2.612
 6031WAT      O18334   5.173   2.997   8.951
 6031WAT     H118335   5.074   3.006   8.950
 6031WAT     H218336   5.215   3.077   8.908
 6032WAT      O18337   8.153   5.384   1.824
 6032WAT     H118338   8.150   5.298   1.875
 6032WAT     H218339   8.065   5.400   1.780
 6033WAT      O18340   7.103   6.271   8.193
 6033WAT     H118341   7.193   6.231   8.178
 6033WAT     H218342   7.039   6.236   8.124
 6034WAT      O18343   0.775   3.895   3.679
 6034WAT     H118344   0.699   3.959   3.696
 6034WAT     H218345   0.769   3.818   3.743
 6035WAT      O18346   3.004   1.540   2.522
 6035WAT     H118347   3.054   1.623   2.544
 6035WAT     H218348   3.011   1.475   2.597
 6036WAT      O18349   3.017   3.527   6.797
 6036WAT     H118350   3.039   3.448   6.738
 6036WAT     H218351   3.049   3.509   6.890
 6037WAT      O18352   4.510   0.474   1.507
 6037WAT     H118353   4.563   0.514   1.582
 6037WAT     H218354   4.416   0.506   1.511
 6038WAT      O18355   0.201   1.078   2.072
 6038WAT     H118356   0.176   1.045   1.981
 6038WAT     H218357   0.301   1.085   2.079
 6039WAT      O18358   9.016   4.368   1.489
 6039WAT     H118359   8.951   4.303   1.450
 6039WAT     H218360   9.104   4.323   1.503
 6040WAT      O18361   5.420   6.560   6.458
 6040WAT     H118362   5.439   6.468   6.493
 6040WAT     H218363   5.331   6.560   6.412
 6041WAT      O18364   1.106   0.312   0.545
 6041WAT     H118365   1.092   0.354   0.456
 6041WAT     H218366   1.023   0.265   0.574
 6042WAT      O18367   2.454   3.841   7.626
 6042WAT     H118368   2.448   3.940   7.633
 6042WAT     H218369   2.522   3.817   7.556
 6043WAT      O18370   2.408   3.487   7.350
 6043WAT     H118371   2.409   3.584   7.371
 6043WAT     H218372   2.430   3.434   7.432
 6044WAT      O18373   7.984   6.273   4.813
 6044WAT     H118374   8.034   6.206   4.867
 6044WAT     H218375   7.937   6.337   4.874
 6045WAT      O18376   9.813   2.706   9.226
 6045WAT     H118377   9.776   2.699   9.134
 6045WAT     H218378   9.745   2.674   9.292
 6046WAT      O18379   9.102   4.342   8.243
 6046WAT     H118380   9.056   4.326   8.330
 6046WAT     H218381   9.067   4.426   8.202
 6047WAT      O18382   3.187   0.897   3.319
 6047WAT     H118383   3.197   0.798   3.315
 6047WAT     H218384   3.100   0.923   3.278
 6048WAT      O18385   7.334   3.602   7.258
 6048WAT     H118386   7.421   3.631   7.219
 6048WAT     H218387   7.270   3.678   7.255
 6049WAT      O18388   3.573   9.505   7.447
 6049WAT     H118389   3.482   9.466   7.461
 6049WAT     H218390   3.564   9.596   7.405
 6050WAT      O18391   3.058   4.795   3.185
 6050WAT     H118392   3.029   4.867   3.247
 6050WAT     H218393   3.063   4.831   3.092
 6051WAT      O18394   6.688   5.203   2.480
 6051WAT     H118395   6.667   5.130   2.545
 6051WAT     H218396   6.656   5.291   2.515
 6052WAT      O18397   4.489   5.130   2.214
 6052WAT     H118398   4.508   5.223   2.183
 6052WAT     H218399   4.469   5.131   2.312
 6053WAT      O18400   8.648   4.372   8.274
 6053WAT     H118401   8.649   4.277   8.306
 6053WAT     H218402   8.701   4.378   8.188
 6054WAT      O18403   8.626   0.106   3.168
 6054WAT     H118404   8.598   0.193   3.128
 6054WAT     H218405   8.687   0.122   3.245
 6055WAT      O18406   1.066   3.218   0.154
 6055WAT     H118407   1.085   3.306   0.111
 6055WAT     H218408   1.150   3.181   0.194
 6056WAT      O18409   2.622   0.587   3.322
 6056WAT     H118410   2.567   0.632   3.393
 6056WAT     H218411   2.718   0.610   3.335
 6057WAT      O18412   0.131   6.779   9.595
 6057WAT     H118413   0.212   6.792   9.652
 6057WAT     H218414   0.152   6.805   9.500
 6058WAT      O18415   7.430   5.542   0.385
 6058WAT     H118416   7.519   5.571   0.421
 6058WAT     H218417   7.371   5.516   0.461
 6059WAT      O18418   1.228   8.501   2.420
 6059WAT     H118419   1.187   8.540   2.502
 6059WAT     H218420   1.156   8.468   2.359
 6060WAT      O18421   5.234   6.654   2.999
 6060WAT     H118422   5.326   6.625   3.024
 6060WAT     H218423   5.199   6.717   3.068
 6061WAT      O18424   9.835   0.986   6.053
 6061WAT     H118425   9.853   1.074   6.097
 6061WAT     H218426   9.900   0.972   5.978
 6062WAT      O18427   5.606   4.640   0.984
 6062WAT     H118428   5.636   4.578   0.912
 6062WAT     H218429   5.528   4.599   1.033
 6063WAT      O18430   7.328   1.003   9.529
 6063WAT     H118431   7.240   0.965   9.558
 6063WAT     H218432   7.385   1.018   9.609
 6064WAT      O18433   1.824   4.181   9.768
 6064WAT     H118434   1.865   4.263   9.728
 6064WAT     H218435   1.748   4.150   9.711
 6065WAT      O18436   1.552   9.009   8.736
 6065WAT     H118437   1.550   9.011   8.636
 6065WAT     H218438   1.461   9.031   8.771
 6066WAT      O18439   8.338   8.883   2.976
 6066WAT     H118440   8.381   8.871   3.065
 6066WAT     H218441   8.247   8.921   2.987
 6067WAT      O18442   0.227   4.560   5.558
 6067WAT     H118443   0.261   4.654   5.565
 6067WAT     H218444   0.297   4.503   5.515
 6068WAT      O18445   2.889   6.804   1.849
 6068WAT     H118446   2.918   6.890   1.808
 6068WAT     H218447   2.961   6.735   1.837
 6069WAT      O18448   4.191   9.712   3.862
 6069WAT     H118449   4.133   9.632   3.847
 6069WAT     H218450   4.220   9.748   3.773
 6070WAT      O18451   9.330   0.097   9.231
 6070WAT     H118452   9.294   0.113   9.139
 6070WAT     H218453   9.281   0.156   9.296
 6071WAT      O18454   3.408   8.012   2.716
 6071WAT     H118455   3.407   7.916   2.743
 6071WAT     H218456   3.477   8.027   2.645
 6072WAT      O18457   2.954   7.456   7.984
 6072WAT     H118458   3.012   7.392   7.934
 6072WAT     H218459   2.926   7.530   7.922
 6073WAT      O18460   3.392   1.054   2.520
 6073WAT     H118461   3.298   1.021   2.523
 6073WAT     H218462   3.412   1.091   2.429
 6074WAT      O18463   1.700   6.714   7.039
 6074WAT     H118464   1.693   6.665   7.126
 6074WAT     H218465   1.796   6.727   7.015
 6075WAT      O18466   0.691   8.961   2.867
 6075WAT     H118467   0.688   8.973   2.767
 6075WAT     H218468   0.695   8.864   2.889
 6076WAT      O18469   8.598   7.597   9.085
 6076WAT     H118470   8.654   7.680   9.093
 6076WAT     H218471   8.658   7.517   9.078
 6077WAT      O18472   2.472   7.437   0.259
 6077WAT     H118473   2.431   7.429   0.168
 6077WAT     H218474   2.532   7.358   0.275
 6078WAT      O18475   2.244   3.673   7.554
 6078WAT     H118476   2.247   3.584   7.600
 6078WAT     H218477   2.329   3.722   7.571
 6079WAT      O18478   5.401   1.505   4.081
 6079WAT     H118479   5.317   1.495   4.135
 6079WAT     H218480   5.480   1.501   4.142
 6080WAT      O18481   0.366   0.158   2.778
 6080WAT     H118482   0.399   0.221   2.707
 6080WAT     H218483   0.312   0.085   2.736
 6081WAT      O18484   7.462   4.544   9.509
 6081WAT     H118485   7.502   4.636   9.501
 6081WAT     H218486   7.459   4.518   9.605
 6082WAT      O18487   6.951   9.596   1.989
 6082WAT     H118488   6.925   9.517   2.045
 6082WAT     H218489   6.934   9.576   1.893
 6083WAT      O18490   7.036   8.832   0.074
 6083WAT     H118491   7.068   8.782  -0.006
 6083WAT     H218492   6.955   8.788   0.112
 6084WAT      O18493   4.687   5.282   9.691
 6084WAT     H118494   4.724   5.191   9.710
 6084WAT     H218495   4.616   5.274   9.621
 6085WAT      O18496   8.964   4.418   8.935
 6085WAT     H118497   8.953   4.484   9.010
 6085WAT     H218498   9.041   4.446   8.878
 6086WAT      O18499   3.117   6.998   4.312
 6086WAT     H118500   3.031   6.981   4.360
 6086WAT     H218501   3.098   7.007   4.214
 6087WAT      O18502   0.371   7.220   5.163
 6087WAT     H118503   0.294   7.270   5.125
 6087WAT     H218504   0.390   7.140   5.105
 6088WAT      O18505   9.765   5.945   8.154
 6088WAT     H118506   9.811   5.978   8.236
 6088WAT     H218507   9.791   6.001   8.076
 6089WAT      O18508   8.456   2.800   3.377
 6089WAT     H118509   8.475   2.727   3.312
 6089WAT     H218510   8.361   2.827   3.370
 6090WAT      O18511   8.655   9.068   3.107
 6090WAT     H118512   8.714   9.148   3.103
 6090WAT     H218513   8.562   9.093   3.078
 6091WAT      O18514   3.723   4.871   5.937
 6091WAT     H118515   3.679   4.943   5.884
 6091WAT     H218516   3.790   4.912   6.000
 6092WAT      O18517   5.105   1.544   0.527
 6092WAT     H118518   5.077   1.452   0.553
 6092WAT     H218519   5.048   1.578   0.453
 6093WAT      O18520   9.189   6.538   0.248
 6093WAT     H118521   9.188   6.557   0.347
 6093WAT     H218522   9.255   6.599   0.203
 6094WAT      O18523   9.155   7.531   5.814
 6094WAT     H118524   9.133   7.600   5.883
 6094WAT     H218525   9.245   7.493   5.833
 6095WAT      O18526   0.075   1.277   9.627
 6095WAT     H118527   0.129   1.214   9.682
 6095WAT     H218528   0.130   1.310   9.551
 6096WAT      O18529   8.347   3.209   9.289
 6096WAT     H118530   8.370   3.214   9.386
 6096WAT     H218531   8.250   3.230   9.276
 6097WAT      O18532   8.008   2.237   3.668
 6097WAT     H118533   8.062   2.321   3.659
 6097WAT     H218534   7.918   2.250   3.626
 6098WAT      O18535   9.358   4.087   4.059
 6098WAT     H118536   9.353   4.036   4.144
 6098WAT     H218537   9.373   4.184   4.078
 6099WAT      O18538   3.685   6.931   9.394
 6099WAT     H118539   3.674   6.999   9.322
 6099WAT     H218540   3.619   6.857   9.380
 6100WAT      O18541   1.571   3.894   8.586
 6100WAT     H118542   1.652   3.846   8.619
 6100WAT     H218543   1.598   3.963   8.519
 6101WAT      O18544   2.070   3.061   2.233
 6101WAT     H118545   1.978   3.022   2.227
 6101WAT     H218546   2.131   2.996   2.279
 6102WAT      O18547   1.908   0.491   4.896
 6102WAT     H118548   1.817   0.493   4.855
 6102WAT     H218549   1.912   0.417   4.964
 6103WAT      O18550   7.979   4.022   7.659
 6103WAT     H118551   7.916   3.953   7.623
 6103WAT     H218552   8.068   4.013   7.615
 6104WAT      O18553   2.073   4.964   9.636
 6104WAT     H118554   1.993   4.905   9.633
 6104WAT     H218555   2.067   5.033   9.564
 6105WAT      O18556   8.054   1.136   7.492
 6105WAT     H118557   8.055   1.117   7.590
 6105WAT     H218558   7.974   1.191   7.469
 6106WAT      O18559   9.034   3.366   0.012
 6106WAT     H118560   9.043   3.402  -0.081
 6106WAT     H218561   9.115   3.311   0.035
 6107WAT      O18562   8.424   9.840   8.860
 6107WAT     H118563   8.386   9.799   8.943
 6107WAT     H218564   8.405   9.938   8.860
 6108WAT      O18565   2.239   5.125   6.168
 6108WAT     H118566   2.292   5.059   6.114
 6108WAT     H218567   2.146   5.092   6.180
 6109WAT      O18568   4.266   8.706   3.857
 6109WAT     H118569   4.339   8.755   3.904
 6109WAT     H218570   4.178   8.747   3.880
 6110WAT      O18571   1.277   8.211   3.079
 6110WAT     H118572   1.363   8.179   3.119
 6110WAT     H218573   1.232   8.274   3.142
 6111WAT      O18574   6.054   0.789   0.489
 6111WAT     H118575   5.967   0.741   0.500
 6111WAT     H218576   6.127   0.722   0.476
 6112WAT      O18577   2.530   5.489   0.191
 6112WAT     H118578   2.500   5.428   0.265
 6112WAT     H218579   2.515   5.445   0.103
 6113WAT      O18580   9.034   9.788   8.926
 6113WAT     H118581   9.083   9.709   8.890
 6113WAT     H218582   9.099   9.859   8.953
 6114WAT      O18583   7.268   1.052   1.591
 6114WAT     H118584   7.199   0.984   1.566
 6114WAT     H218585   7.357   1.007   1.601
 6115WAT      O18586   0.139   4.970   3.537
 6115WAT     H118587   0.164   4.927   3.624
 6115WAT     H218588   0.045   4.946   3.513
 6116WAT      O18589   6.422   1.903   0.571
 6116WAT     H118590   6.371   1.962   0.508
 6116WAT     H218591   6.359   1.861   0.636
 6117WAT      O18592   9.735   2.212   5.033
 6117WAT     H118593   9.824   2.254   5.046
 6117WAT     H218594   9.663   2.281   5.048
 6118WAT      O18595   6.931   0.681   8.138
 6118WAT     H118596   6.840   0.681   8.096
 6118WAT     H218597   6.993   0.738   8.083
 6119WAT      O18598   6.625   4.579   5.093
 6119WAT     H118599   6.631   4.661   5.037
 6119WAT     H218600   6.642   4.602   5.189
 6120WAT      O18601   1.831   3.268   4.669
 6120WAT     H118602   1.927   3.289   4.651
 6120WAT     H218603   1.780   3.267   4.583
 6121WAT      O18604   0.523   6.978   1.427
 6121WAT     H118605   0.583   6.913   1.380
 6121WAT     H218606   0.568   7.012   1.510
 6122WAT      O18607   3.817   6.829   6.331
 6122WAT     H118608   3.883   6.860   6.399
 6122WAT     H218609   3.728   6.871   6.351
 6123WAT      O18610   5.219   2.008   6.671
 6123WAT     H118611   5.267   1.926   6.703
 6123WAT     H218612   5.283   2.085   6.671
 6124WAT      O18613   0.736   5.462   8.849
 6124WAT     H118614   0.739   5.388   8.782
 6124WAT     H218615   0.676   5.436   8.925
 6125WAT      O18616   4.722   3.041   2.163
 6125WAT     H118617   4.679   2.961   2.121
 6125WAT     H218618   4.653   3.093   2.213
 6126WAT      O18619   4.430   9.186   1.305
 6126WAT     H118620   4.401   9.238   1.386
 6126WAT     H218621   4.357   9.188   1.237
 6127WAT      O18622   6.065   2.941   5.435
 6127WAT     H118623   6.125   2.990   5.498
 6127WAT     H218624   5.987   2.998   5.411
 6128WAT      O18625   3.495   1.575   2.630
 6128WAT     H118626   3.594   1.585   2.624
 6128WAT     H218627   3.472   1.523   2.712
 6129WAT      O18628   5.948   6.848   5.489
 6129WAT     H118629   5.898   6.901   5.558
 6129WAT     H218630   5.989   6.767   5.532
 6130WAT      O18631   2.723   0.032   0.390
 6130WAT     H118632   2.682  -0.041   0.336
 6130WAT     H218633   2.747   0.108   0.330
 6131WAT      O18634   2.391   9.413   9.046
 6131WAT     H118635   2.318   9.420   8.978
 6131WAT     H218636   2.376   9.333   9.104
 6132WAT      O18637   7.149   1.780   1.959
 6132WAT     H118638   7.169   1.788   2.057
 6132WAT     H218639   7.224   1.730   1.914
 6133WAT      O18640   4.363   8.339   3.579
 6133WAT     H118641   4.331   8.259   3.630
 6133WAT     H218642   4.457   8.324   3.549
 6134WAT      O18643   2.551   8.411   7.092
 6134WAT     H118644   2.574   8.401   7.189
 6134WAT     H218645   2.601   8.342   7.039
 6135WAT      O18646   6.386   4.382   9.380
 6135WAT     H118647   6.419   4.432   9.461
 6135WAT     H218648   6.463   4.350   9.326
 6136WAT      O18649   0.167   3.261   3.822
 6136WAT     H118650   0.131   3.305   3.740
 6136WAT     H218651   0.102   3.271   3.896
 6137WAT      O18652   1.961   1.375   2.628
 6137WAT     H118653   1.944   1.278   2.643
 6137WAT     H218654   2.059   1.393   2.638
 6138WAT      O18655   3.008   9.169   1.823
 6138WAT     H118656   3.039   9.222   1.902
 6138WAT     H218657   2.912   9.190   1.806
 6139WAT      O18658   7.646   8.841   2.932
 6139WAT     H118659   7.711   8.831   2.856
 6139WAT     H218660   7.605   8.932   2.928
 6140WAT      O18661   6.450   7.126   1.798
 6140WAT     H118662   6.506   7.105   1.718
 6140WAT     H218663   6.487   7.080   1.878
 6141WAT      O18664   8.417   3.595   5.894
 6141WAT     H118665   8.437   3.670   5.832
 6141WAT     H218666   8.449   3.509   5.854
 6142WAT      O18667   5.527   4.685   6.922
 6142WAT     H118668   5.502   4.700   7.018
 6142WAT     H218669   5.548   4.773   6.879
 6143WAT      O18670   5.544   9.156   3.310
 6143WAT     H118671   5.511   9.113   3.394
 6143WAT     H218672   5.556   9.086   3.239
 6144WAT      O18673   3.252   5.363   3.335
 6144WAT     H118674   3.269   5.273   3.294
 6144WAT     H218675   3.248   5.432   3.264
 6145WAT      O18676   8.915   8.797   6.053
 6145WAT     H118677   8.961   8.848   6.126
 6145WAT     H218678   8.816   8.794   6.072
 6146WAT      O18679   3.108   0.662   9.043
 6146WAT     H118680   3.192   0.688   9.089
 6146WAT     H218681   3.031   0.712   9.082
 6147WAT      O18682   9.701   1.723   4.420
 6147WAT     H118683   9.747   1.793   4.475
 6147WAT     H218684   9.603   1.723   4.443
 6148WAT      O18685   9.393   4.761   6.812
 6148WAT     H118686   9.333   4.827   6.858
 6148WAT     H218687   9.346   4.725   6.731
 6149WAT      O18688   7.731   9.321   0.875
 6149WAT     H118689   7.660   9.343   0.942
 6149WAT     H218690   7.701   9.349   0.784
 6150WAT      O18691   0.593   5.528   8.433
 6150WAT     H118692   0.560   5.436   8.455
 6150WAT     H218693   0.519   5.594   8.441
 6151WAT      O18694   5.318   8.330   3.124
 6151WAT     H118695   5.396   8.326   3.062
 6151WAT     H218696   5.264   8.247   3.115
 6152WAT      O18697   2.823   9.220   4.178
 6152WAT     H118698   2.829   9.121   4.169
 6152WAT     H218699   2.859   9.263   4.095
 6153WAT      O18700   4.172   8.084   6.700
 6153WAT     H118701   4.272   8.072   6.700
 6153WAT     H218702   4.129   8.003   6.741
 6154WAT      O18703   4.068   5.121   0.355
 6154WAT     H118704   4.034   5.151   0.444
 6154WAT     H218705   4.115   5.034   0.365
 6155WAT      O18706   7.538   4.493   5.450
 6155WAT     H118707   7.558   4.481   5.353
 6155WAT     H218708   7.478   4.419   5.481
 6156WAT      O18709   1.502   0.360   8.179
 6156WAT     H118710   1.590   0.395   8.209
 6156WAT     H218711   1.446   0.336   8.259
 6157WAT      O18712   0.680   2.995   3.454
 6157WAT     H118713   0.778   2.982   3.470
 6157WAT     H218714   0.635   2.905   3.447
 6158WAT      O18715   1.352   6.378   6.172
 6158WAT     H118716   1.314   6.329   6.094
 6158WAT     H218717   1.278   6.404   6.234
 6159WAT      O18718   0.760   2.981   6.234
 6159WAT     H118719   0.725   3.044   6.303
 6159WAT     H218720   0.688   2.916   6.209
 6160WAT      O18721   7.091   7.334   4.760
 6160WAT     H118722   7.160   7.273   4.799
 6160WAT     H218723   7.002   7.314   4.801
 6161WAT      O18724   0.798   3.513   7.840
 6161WAT     H118725   0.817   3.561   7.925
 6161WAT     H218726   0.775   3.417   7.860
 6162WAT      O18727   5.113   5.962   6.044
 6162WAT     H118728   5.039   5.963   5.976
 6162WAT     H218729   5.201   5.975   5.998
 6163WAT      O18730   3.892   7.221   7.577
 6163WAT     H118731   3.990   7.211   7.589
 6163WAT     H218732   3.844   7.171   7.650
 6164WAT      O18733   0.905   2.630   3.631
 6164WAT     H118734   0.889   2.665   3.723
 6164WAT     H218735   0.828   2.573   3.602
 6165WAT      O18736   8.445   5.492   8.424
 6165WAT     H118737   8.429   5.396   8.448
 6165WAT     H218738   8.474   5.498   8.328
 6166WAT      O18739   0.544   8.538   4.976
 6166WAT     H118740   0.451   8.553   5.011
 6166WAT     H218741   0.548   8.449   4.929
 6167WAT      O18742   3.116   0.671   2.939
 6167WAT     H118743   3.186   0.743   2.929
 6167WAT     H218744   3.072   0.679   3.028
 6168WAT      O18745   7.820   2.665   6.630
 6168WAT     H118746   7.853   2.572   6.646
 6168WAT     H218747   7.772   2.669   6.542
 6169WAT      O18748   7.048   6.943   9.662
 6169WAT     H118749   7.083   6.932   9.755
 6169WAT     H218750   7.006   6.857   9.632
 6170WAT      O18751   2.591   1.781   7.173
 6170WAT     H118752   2.553   1.693   7.203
 6170WAT     H218753   2.683   1.792   7.211
 6171WAT      O18754   0.915   6.427   6.516
 6171WAT     H118755   0.921   6.527   6.523
 6171WAT     H218756   0.932   6.387   6.606
 6172WAT      O18757   8.133   0.110   0.813
 6172WAT     H118758   8.194   0.141   0.740
 6172WAT     H218759   8.181   0.113   0.901
 6173WAT      O18760   9.595   5.484   3.735
 6173WAT     H118761   9.614   5.398   3.689
 6173WAT     H218762   9.507   5.520   3.704
 6174WAT      O18763   2.264   8.560   1.836
 6174WAT     H118764   2.324   8.640   1.831
 6174WAT     H218765   2.318   8.476   1.829
 6175WAT      O18766   4.201   1.975   9.063
 6175WAT     H118767   4.211   1.889   9.113
 6175WAT     H218768   4.270   2.040   9.093
 6176WAT      O18769   8.019   8.350   7.598
 6176WAT     H118770   7.957   8.403   7.656
 6176WAT     H218771   7.999   8.253   7.609
 6177WAT      O18772   1.115   2.896   2.086
 6177WAT     H118773   1.067   2.813   2.058
 6177WAT     H218774   1.138   2.950   2.005
 6178WAT      O18775   6.514   8.173   5.180
 6178WAT     H118776   6.531   8.206   5.273
 6178WAT     H218777   6.545   8.242   5.114
 6179WAT      O18778   1.182   6.192   5.382
 6179WAT     H118779   1.222   6.103   5.403
 6179WAT     H218780   1.198   6.255   5.458
 6180WAT      O18781   4.591   0.455   5.881
 6180WAT     H118782   4.622   0.393   5.953
 6180WAT     H218783   4.615   0.416   5.792
 6181WAT      O18784   8.472   9.170   5.645
 6181WAT     H118785   8.389   9.172   5.702
 6181WAT     H218786   8.544   9.222   5.689
 6182WAT      O18787   9.209   1.666   5.040
 6182WAT     H118788   9.126   1.655   4.986
 6182WAT     H218789   9.207   1.602   5.117
 6183WAT      O18790   3.196   7.977   3.050
 6183WAT     H118791   3.192   8.028   2.964
 6183WAT     H218792   3.119   7.913   3.054
 6184WAT      O18793   3.362   8.387   4.945
 6184WAT     H118794   3.406   8.402   5.034
 6184WAT     H218795   3.303   8.307   4.950
 6185WAT      O18796   0.956   2.555   9.155
 6185WAT     H118797   0.893   2.478   9.157
 6185WAT     H218798   0.922   2.626   9.094
 6186WAT      O18799   5.866   8.822   2.297
 6186WAT     H118800   5.899   8.815   2.391
 6186WAT     H218801   5.897   8.743   2.245
 6187WAT      O18802   9.253   2.518   8.778
 6187WAT     H118803   9.274   2.420   8.772
 6187WAT     H218804   9.277   2.552   8.869
 6188WAT      O18805   3.828   3.556   5.562
 6188WAT     H118806   3.798   3.554   5.658
 6188WAT     H218807   3.753   3.591   5.505
 6189WAT      O18808   8.364   5.894   0.525
 6189WAT     H118809   8.373   5.979   0.473
 6189WAT     H218810   8.455   5.855   0.540
 6190WAT      O18811   6.563   0.418   1.221
 6190WAT     H118812   6.571   0.450   1.315
 6190WAT     H218813   6.612   0.480   1.160
 6191WAT      O18814   2.193   1.108   1.076
 6191WAT     H118815   2.182   1.136   0.980
 6191WAT     H218816   2.220   1.012   1.079
 6192WAT      O18817   9.306   3.780   7.364
 6192WAT     H118818   9.352   3.695   7.338
 6192WAT     H218819   9.212   3.761   7.391
 6193WAT      O18820   6.078   3.003   2.934
 6193WAT     H118821   6.117   3.010   2.843
 6193WAT     H218822   6.114   2.921   2.980
 6194WAT      O18823   1.388   7.605   4.582
 6194WAT     H118824   1.479   7.619   4.623
 6194WAT     H218825   1.320   7.658   4.634
 6195WAT      O18826   0.267   2.599   4.484
 6195WAT     H118827   0.198   2.529   4.468
 6195WAT     H218828   0.358   2.559   4.474
 6196WAT      O18829   3.358   8.136   5.360
 6196WAT     H118830   3.272   8.126   5.310
 6196WAT     H218831   3.347   8.203   5.433
 6197WAT      O18832   2.164   8.048   0.325
 6197WAT     H118833   2.244   8.074   0.379
 6197WAT     H218834   2.189   8.040   0.229
 6198WAT      O18835   4.528   3.639   3.043
 6198WAT     H118836   4.610   3.691   3.067
 6198WAT     H218837   4.493   3.672   2.955
 6199WAT      O18838   4.463   2.232   3.669
 6199WAT     H118839   4.388   2.238   3.604
 6199WAT     H218840   4.440   2.166   3.740
 6200WAT      O18841   8.179   7.826   8.802
 6200WAT     H118842   8.135   7.914   8.784
 6200WAT     H218843   8.117   7.752   8.775
 6201WAT      O18844   0.718   2.357   4.523
 6201WAT     H118845   0.771   2.434   4.488
 6201WAT     H218846   0.650   2.391   4.588
 6202WAT      O18847   4.817   1.694   3.295
 6202WAT     H118848   4.894   1.729   3.242
 6202WAT     H218849   4.739   1.678   3.234
 6203WAT      O18850   7.518   7.915   8.398
 6203WAT     H118851   7.469   7.891   8.481
 6203WAT     H218852   7.568   8.001   8.411
 6204WAT      O18853   9.172   5.213   1.843
 6204WAT     H118854   9.248   5.218   1.908
 6204WAT     H218855   9.123   5.300   1.842
 6205WAT      O18856   1.197   2.211   1.218
 6205WAT     H118857   1.196   2.119   1.178
 6205WAT     H218858   1.103   2.242   1.232
 6206WAT      O18859   0.237   4.747   6.221
 6206WAT     H118860   0.290   4.831   6.209
 6206WAT     H218861   0.176   4.735   6.142
 6207WAT      O18862   7.871   9.553   8.901
 6207WAT     H118863   7.926   9.633   8.876
 6207WAT     H218864   7.886   9.480   8.834
 6208WAT      O18865   8.011   5.485   6.799
 6208WAT     H118866   8.082   5.419   6.775
 6208WAT     H218867   8.004   5.554   6.727
 6209WAT      O18868   9.668   7.453   9.540
 6209WAT     H118869   9.586   7.398   9.556
 6209WAT     H218870   9.701   7.489   9.628
 6210WAT      O18871   4.240   4.962   6.835
 6210WAT     H118872   4.187   5.045   6.847
 6210WAT     H218873   4.204   4.890   6.895
 6211WAT      O18874   5.243   8.807   2.728
 6211WAT     H118875   5.281   8.719   2.701
 6211WAT     H218876   5.313   8.878   2.721
 6212WAT      O18877   9.601   5.672   7.871
 6212WAT     H118878   9.541   5.593   7.879
 6212WAT     H218879   9.662   5.660   7.792
 6213WAT      O18880   5.597   1.145   5.459
 6213WAT     H118881   5.648   1.209   5.516
 6213WAT     H218882   5.661   1.089   5.406
 6214WAT      O18883   8.845   6.932   8.735
 6214WAT     H118884   8.771   6.931   8.801
 6214WAT     H218885   8.899   7.015   8.746
 6215WAT      O18886   0.020   5.300   5.299
 6215WAT     H118887   0.019   5.274   5.202
 6215WAT     H218888  -0.074   5.303   5.333
 6216WAT      O18889   8.918   2.218   6.042
 6216WAT     H118890   8.909   2.313   6.071
 6216WAT     H218891   9.015   2.194   6.039
 6217WAT      O18892   3.349   3.176   2.102
 6217WAT     H118893   3.410   3.113   2.150
 6217WAT     H218894   3.311   3.242   2.167
 6218WAT      O18895   4.498   0.063   3.754
 6218WAT     H118896   4.472   0.131   3.822
 6218WAT     H218897   4.416   0.029   3.708
 6219WAT      O18898   4.363   5.741   1.203
 6219WAT     H118899   4.342   5.679   1.127
 6219WAT     H218900   4.332   5.700   1.289
 6220WAT      O18901   0.956   2.151   6.754
 6220WAT     H118902   0.880   2.179   6.813
 6220WAT     H218903   0.947   2.054   6.732
 6221WAT      O18904   2.466   5.380   9.839
 6221WAT     H118905   2.459   5.447   9.765
 6221WAT     H218906   2.452   5.288   9.803
 6222WAT      O18907   3.855   6.310   0.030
 6222WAT     H118908   3.903   6.375   0.089
 6222WAT     H218909   3.757   6.326   0.035
 6223WAT      O18910   6.861   5.900   0.053
 6223WAT     H118911   6.959   5.901   0.072
 6223WAT     H218912   6.843   5.833  -0.019
 6224WAT      O18913   2.001   1.269   8.446
 6224WAT     H118914   1.973   1.234   8.356
 6224WAT     H218915   1.955   1.356   8.464
 6225WAT      O18916   6.942   0.735   2.709
 6225WAT     H118917   7.039   0.712   2.712
 6225WAT     H218918   6.888   0.660   2.748
 6226WAT      O18919   5.453   9.039   8.692
 6226WAT     H118920   5.498   9.038   8.782
 6226WAT     H218921   5.410   9.127   8.677
 6227WAT      O18922   6.153   1.698   2.944
 6227WAT     H118923   6.095   1.690   3.025
 6227WAT     H218924   6.096   1.690   2.862
 6228WAT      O18925   4.637   2.008   2.543
 6228WAT     H118926   4.731   1.995   2.511
 6228WAT     H218927   4.597   1.919   2.566
 6229WAT      O18928   7.075   9.634   2.396
 6229WAT     H118929   7.122   9.559   2.349
 6229WAT     H218930   7.023   9.687   2.329
 6230WAT      O18931   2.011   2.901   8.974
 6230WAT     H118932   1.915   2.918   8.951
 6230WAT     H218933   2.026   2.925   9.070
 6231WAT      O18934   4.950   2.152   4.228
 6231WAT     H118935   4.897   2.213   4.169
 6231WAT     H218936   4.899   2.067   4.240
 6232WAT      O18937   5.120   0.163   5.900
 6232WAT     H118938   5.133   0.141   5.997
 6232WAT     H218939   5.116   0.079   5.847
 6233WAT      O18940   2.872   4.977   8.044
 6233WAT     H118941   2.953   4.921   8.028
 6233WAT     H218942   2.790   4.923   8.027
 6234WAT      O18943   4.659   7.376   0.467
 6234WAT     H118944   4.739   7.434   0.482
 6234WAT     H218945   4.592   7.392   0.540
 6235WAT      O18946   3.514   6.260   0.724
 6235WAT     H118947   3.491   6.345   0.677
 6235WAT     H218948   3.548   6.194   0.657
 6236WAT      O18949   7.250   4.403   8.496
 6236WAT     H118950   7.228   4.346   8.575
 6236WAT     H218951   7.165   4.437   8.455
 6237WAT      O18952   6.827   9.280   2.760
 6237WAT     H118953   6.849   9.250   2.852
 6237WAT     H218954   6.728   9.291   2.750
 6238WAT      O18955   9.680   5.717   2.522
 6238WAT     H118956   9.635   5.627   2.518
 6238WAT     H218957   9.651   5.772   2.444
 6239WAT      O18958   6.089   5.569   5.186
 6239WAT     H118959   6.068   5.532   5.095
 6239WAT     H218960   6.157   5.511   5.231
 6240WAT      O18961   0.707   6.423   7.572
 6240WAT     H118962   0.736   6.384   7.658
 6240WAT     H218963   0.763   6.503   7.550
 6241WAT      O18964   1.312   1.183   6.533
 6241WAT     H118965   1.268   1.234   6.459
 6241WAT     H218966   1.340   1.093   6.499
 6242WAT      O18967   7.941   0.029   1.586
 6242WAT     H118968   7.958   0.125   1.564
 6242WAT     H218969   8.020  -0.026   1.559
 6243WAT      O18970   8.115   1.900   9.618
 6243WAT     H118971   8.065   1.968   9.563
 6243WAT     H218972   8.051   1.834   9.657
 6244WAT      O18973   9.369   7.446   2.267
 6244WAT     H118974   9.356   7.398   2.181
 6244WAT     H218975   9.427   7.526   2.253
 6245WAT      O18976   8.852   8.528   4.059
 6245WAT     H118977   8.867   8.574   4.146
 6245WAT     H218978   8.834   8.597   3.988
 6246WAT      O18979   6.314   2.253   9.751
 6246WAT     H118980   6.278   2.160   9.755
 6246WAT     H218981   6.408   2.251   9.716
 6247WAT      O18982   0.301   5.747   0.273
 6247WAT     H118983   0.286   5.763   0.175
 6247WAT     H218984   0.308   5.836   0.319
 6248WAT      O18985   5.462   6.339   7.763
 6248WAT     H118986   5.517   6.412   7.724
 6248WAT     H218987   5.367   6.349   7.732
 6249WAT      O18988   1.386   9.389   6.956
 6249WAT     H118989   1.446   9.446   7.011
 6249WAT     H218990   1.340   9.322   7.014
 6250WAT      O18991   8.973   2.534   4.207
 6250WAT     H118992   8.990   2.463   4.138
 6250WAT     H218993   8.907   2.600   4.172
 6251WAT      O18994   1.610   3.642   6.531
 6251WAT     H118995   1.562   3.611   6.449
 6251WAT     H218996   1.709   3.630   6.519
 6252WAT      O18997   0.350   5.013   3.093
 6252WAT     H118998   0.364   4.924   3.048
 6252WAT     H218999   0.340   4.999   3.191
 6253WAT      O19000   2.153   5.531   8.840
 6253WAT     H119001   2.243   5.553   8.877
 6253WAT     H219002   2.156   5.441   8.797
 6254WAT      O19003   8.243   6.997   9.352
 6254WAT     H119004   8.193   7.028   9.433
 6254WAT     H219005   8.329   6.955   9.379
 6255WAT      O19006   8.125   4.221   4.491
 6255WAT     H119007   8.130   4.211   4.590
 6255WAT     H219008   8.054   4.287   4.468
 6256WAT      O19009   8.872   3.963   9.046
 6256WAT     H119010   8.923   4.045   9.072
 6256WAT     H219011   8.937   3.888   9.029
 6257WAT      O19012   1.360   6.970   5.533
 6257WAT     H119013   1.402   7.027   5.463
 6257WAT     H219014   1.431   6.935   5.595
 6258WAT      O19015   6.342   0.497   3.304
 6258WAT     H119016   6.357   0.509   3.206
 6258WAT     H219017   6.245   0.480   3.321
 6259WAT      O19018   7.833   8.393   7.003
 6259WAT     H119019   7.861   8.370   7.097
 6259WAT     H219020   7.757   8.334   6.976
 6260WAT      O19021   0.548   8.000   9.439
 6260WAT     H119022   0.643   7.994   9.409
 6260WAT     H219023   0.499   8.066   9.382
 6261WAT      O19024   8.629   9.147   5.270
 6261WAT     H119025   8.564   9.117   5.339
 6261WAT     H219026   8.583   9.208   5.206
 6262WAT      O19027   8.667   1.335   5.870
 6262WAT     H119028   8.759   1.305   5.893
 6262WAT     H219029   8.664   1.435   5.871
 6263WAT      O19030   0.696   3.850   6.440
 6263WAT     H119031   0.643   3.892   6.513
 6263WAT     H219032   0.666   3.884   6.352
 6264WAT      O19033   5.459   0.210   2.107
 6264WAT     H119034   5.401   0.197   2.027
 6264WAT     H219035   5.444   0.136   2.172
 6265WAT      O19036   8.311   6.503   0.430
 6265WAT     H119037   8.346   6.410   0.445
 6265WAT     H219038   8.280   6.512   0.335
 6266WAT      O19039   0.985   3.303   7.789
 6266WAT     H119040   0.920   3.248   7.736
 6266WAT     H219041   0.966   3.400   7.773
 6267WAT      O19042   1.415   8.415   7.929
 6267WAT     H119043   1.366   8.382   7.848
 6267WAT     H219044   1.476   8.343   7.962
 6268WAT      O19045   9.608   4.576   9.490
 6268WAT     H119046   9.541   4.650   9.499
 6268WAT     H219047   9.578   4.496   9.541
 6269WAT      O19048   4.870   0.577   7.162
 6269WAT     H119049   4.798   0.647   7.159
 6269WAT     H219050   4.933   0.598   7.236
 6270WAT      O19051   5.015   4.107   2.550
 6270WAT     H119052   5.005   4.011   2.576
 6270WAT     H219053   4.952   4.127   2.475
 6271WAT      O19054   3.251   3.874   0.164
 6271WAT     H119055   3.201   3.917   0.089
 6271WAT     H219056   3.234   3.925   0.249
 6272WAT      O19057   0.962   8.196   6.694
 6272WAT     H119058   0.893   8.264   6.718
 6272WAT     H219059   0.940   8.156   6.605
 6273WAT      O19060   2.104   4.304   7.490
 6273WAT     H119061   2.149   4.287   7.578
 6273WAT     H219062   2.169   4.285   7.416
 6274WAT      O19063   6.431   8.326   1.423
 6274WAT     H119064   6.516   8.358   1.464
 6274WAT     H219065   6.377   8.277   1.492
 6275WAT      O19066   9.535   7.952   4.266
 6275WAT     H119067   9.613   7.913   4.217
 6275WAT     H219068   9.502   8.033   4.218
 6276WAT      O19069   1.534   8.382   5.461
 6276WAT     H119070   1.553   8.286   5.483
 6276WAT     H219071   1.589   8.409   5.382
 6277WAT      O19072   1.494   2.140   7.477
 6277WAT     H119073   1.527   2.049   7.454
 6277WAT     H219074   1.543   2.208   7.423
 6278WAT      O19075   3.208   1.401   8.342
 6278WAT     H119076   3.156   1.486   8.341
 6278WAT     H219077   3.157   1.330   8.390
 6279WAT      O19078   3.727   9.737   8.645
 6279WAT     H119079   3.634   9.733   8.610
 6279WAT     H219080   3.775   9.652   8.622
 6280WAT      O19081   2.577   8.847   3.549
 6280WAT     H119082   2.621   8.774   3.602
 6280WAT     H219083   2.624   8.858   3.462
 6281WAT      O19084   8.268   6.449   8.978
 6281WAT     H119085   8.346   6.412   8.927
 6281WAT     H219086   8.281   6.548   8.991
 6282WAT      O19087   2.651   5.348   2.375
 6282WAT     H119088   2.685   5.440   2.355
 6282WAT     H219089   2.696   5.282   2.315
 6283WAT      O19090   6.189   0.196   6.546
 6283WAT     H119091   6.196   0.291   6.576
 6283WAT     H219092   6.273   0.169   6.499
 6284WAT      O19093   5.278   1.999   8.602
 6284WAT     H119094   5.270   1.937   8.523
 6284WAT     H219095   5.323   2.083   8.573
 6285WAT      O19096   7.022   3.738   7.363
 6285WAT     H119097   6.992   3.683   7.442
 6285WAT     H219098   7.100   3.794   7.390
 6286WAT      O19099   6.031   0.428   0.528
 6286WAT     H119100   6.067   0.341   0.491
 6286WAT     H219101   6.108   0.485   0.558
 6287WAT      O19102   4.706   9.019   9.509
 6287WAT     H119103   4.698   9.029   9.410
 6287WAT     H219104   4.616   9.029   9.551
 6288WAT      O19105   0.739   1.660   0.664
 6288WAT     H119106   0.810   1.668   0.734
 6288WAT     H219107   0.779   1.623   0.580
 6289WAT      O19108   7.508   2.117   8.141
 6289WAT     H119109   7.587   2.174   8.117
 6289WAT     H219110   7.437   2.175   8.181
 6290WAT      O19111   2.914   9.478   5.744
 6290WAT     H119112   2.932   9.490   5.647
 6290WAT     H219113   2.830   9.425   5.756
 6291WAT      O19114   4.126   9.260   1.670
 6291WAT     H119115   4.211   9.283   1.717
 6291WAT     H219116   4.083   9.344   1.637
 6292WAT      O19117   3.521   1.394   3.459
 6292WAT     H119118   3.504   1.298   3.437
 6292WAT     H219119   3.545   1.444   3.376
 6293WAT      O19120   6.317   1.792   7.786
 6293WAT     H119121   6.369   1.856   7.729
 6293WAT     H219122   6.310   1.704   7.740
 6294WAT      O19123   8.132   3.806   8.944
 6294WAT     H119124   8.182   3.858   8.874
 6294WAT     H219125   8.034   3.805   8.921
 6295WAT      O19126   2.883   6.139   8.652
 6295WAT     H119127   2.972   6.094   8.645
 6295WAT     H219128   2.879   6.193   8.736
 6296WAT      O19129   0.512   5.799   7.124
 6296WAT     H119130   0.601   5.788   7.168
 6296WAT     H219131   0.517   5.768   7.029
 6297WAT      O19132   2.206   2.319   6.151
 6297WAT     H119133   2.245   2.344   6.239
 6297WAT     H219134   2.248   2.374   6.079
 6298WAT      O19135   4.481   6.765   8.452
 6298WAT     H119136   4.519   6.692   8.508
 6298WAT     H219137   4.524   6.764   8.361
 6299WAT      O19138   4.654   3.890   9.152
 6299WAT     H119139   4.612   3.976   9.124
 6299WAT     H219140   4.622   3.816   9.093
 6300WAT      O19141   4.138   8.794   7.412
 6300WAT     H119142   4.136   8.768   7.316
 6300WAT     H219143   4.077   8.872   7.427
 6301WAT      O19144   6.625   1.728   4.839
 6301WAT     H119145   6.702   1.737   4.776
 6301WAT     H219146   6.658   1.700   4.929
 6302WAT      O19147   7.471   2.334   3.697
 6302WAT     H119148   7.498   2.238   3.692
 6302WAT     H219149   7.378   2.340   3.732
 6303WAT      O19150   0.525   4.973   0.271
 6303WAT     H119151   0.515   5.072   0.271
 6303WAT     H219152   0.601   4.947   0.330
 6304WAT      O19153   8.134   6.452   2.203
 6304WAT     H119154   8.136   6.421   2.108
 6304WAT     H219155   8.224   6.437   2.245
 6305WAT      O19156   3.085   9.320   2.091
 6305WAT     H119157   3.164   9.277   2.133
 6305WAT     H219158   3.116   9.397   2.034
 6306WAT      O19159   6.125   3.097   8.747
 6306WAT     H119160   6.123   3.182   8.694
 6306WAT     H219161   6.164   3.116   8.837
 6307WAT      O19162   7.732   3.954   1.170
 6307WAT     H119163   7.719   3.857   1.150
 6307WAT     H219164   7.802   3.992   1.109
 6308WAT      O19165   5.194   0.507   2.477
 6308WAT     H119166   5.178   0.409   2.470
 6308WAT     H219167   5.209   0.546   2.386
 6309WAT      O19168   8.328   8.557   0.492
 6309WAT     H119169   8.354   8.633   0.551
 6309WAT     H219170   8.258   8.501   0.538
 6310WAT      O19171   9.375   3.563   8.332
 6310WAT     H119172   9.288   3.603   8.303
 6310WAT     H219173   9.409   3.502   8.261
 6311WAT      O19174   0.350   9.050   3.749
 6311WAT     H119175   0.310   9.034   3.839
 6311WAT     H219176   0.404   8.971   3.721
 6312WAT      O19177   7.828   1.629   6.837
 6312WAT     H119178   7.735   1.666   6.841
 6312WAT     H219179   7.827   1.534   6.869
 6313WAT      O19180   3.553   6.415   4.327
 6313WAT     H119181   3.643   6.371   4.317
 6313WAT     H219182   3.564   6.514   4.321
 6314WAT      O19183   3.697   0.886   0.167
 6314WAT     H119184   3.731   0.893   0.261
 6314WAT     H219185   3.605   0.925   0.162
 6315WAT      O19186   8.878   9.363   0.449
 6315WAT     H119187   8.895   9.265   0.436
 6315WAT     H219188   8.938   9.398   0.520
 6316WAT      O19189   5.612   5.366   2.592
 6316WAT     H119190   5.673   5.380   2.670
 6316WAT     H219191   5.625   5.440   2.526
 6317WAT      O19192   4.924   3.289   6.525
 6317WAT     H119193   4.826   3.269   6.521
 6317WAT     H219194   4.947   3.355   6.454
 6318WAT      O19195   9.513   2.344   6.687
 6318WAT     H119196   9.418   2.314   6.695
 6318WAT     H219197   9.518   2.443   6.697
 6319WAT      O19198   5.188   0.651   8.101
 6319WAT     H119199   5.217   0.604   8.018
 6319WAT     H219200   5.269   0.684   8.150
 6320WAT      O19201   2.789   2.516   9.077
 6320WAT     H119202   2.722   2.554   9.014
 6320WAT     H219203   2.745   2.447   9.136
 6321WAT      O19204   3.432   3.201   3.962
 6321WAT     H119205   3.460   3.148   4.042
 6321WAT     H219206   3.395   3.140   3.892
 6322WAT      O19207   3.890   9.428   6.747
 6322WAT     H119208   3.879   9.449   6.844
 6322WAT     H219209   3.942   9.343   6.738
 6323WAT      O19210   1.390   9.057   7.267
 6323WAT     H119211   1.403   9.044   7.365
 6323WAT     H219212   1.403   9.153   7.244
 6324WAT      O19213   1.685   0.108   5.740
 6324WAT     H119214   1.785   0.105   5.742
 6324WAT     H219215   1.649   0.074   5.827
 6325WAT      O19216   4.961   7.032   5.425
 6325WAT     H119217   4.884   6.970   5.413
 6325WAT     H219218   5.031   7.012   5.357
 6326WAT      O19219   7.887   5.095   5.034
 6326WAT     H119220   7.861   5.002   5.005
 6326WAT     H219221   7.987   5.104   5.031
 6327WAT      O19222   8.422   4.208   2.118
 6327WAT     H119223   8.334   4.254   2.134
 6327WAT     H219224   8.472   4.256   2.046
 6328WAT      O19225   1.108   5.528   6.081
 6328WAT     H119226   1.105   5.579   5.995
 6328WAT     H219227   1.193   5.550   6.130
 6329WAT      O19228   5.155   3.784   8.733
 6329WAT     H119229   5.139   3.828   8.644
 6329WAT     H219230   5.154   3.685   8.722
 6330WAT      O19231   6.809   8.610   5.196
 6330WAT     H119232   6.711   8.610   5.177
 6330WAT     H219233   6.849   8.696   5.164
 6331WAT      O19234   5.917   1.200   2.938
 6331WAT     H119235   5.966   1.287   2.947
 6331WAT     H219236   5.828   1.207   2.983
 6332WAT      O19237   2.580   6.065   3.090
 6332WAT     H119238   2.582   6.161   3.118
 6332WAT     H219239   2.656   6.047   3.027
 6333WAT      O19240   3.197   2.603   3.727
 6333WAT     H119241   3.203   2.555   3.639
 6333WAT     H219242   3.111   2.653   3.731
 6334WAT      O19243   6.522   0.278   3.250
 6334WAT     H119244   6.509   0.364   3.299
 6334WAT     H219245   6.476   0.204   3.300
 6335WAT      O19246   4.738   4.301   4.278
 6335WAT     H119247   4.709   4.360   4.203
 6335WAT     H219248   4.670   4.305   4.352
 6336WAT      O19249   5.025   6.581   3.799
 6336WAT     H119250   4.928   6.604   3.794
 6336WAT     H219251   5.070   6.606   3.714
 6337WAT      O19252   9.333   7.917   2.313
 6337WAT     H119253   9.398   7.891   2.242
 6337WAT     H219254   9.259   7.849   2.317
 6338WAT      O19255   3.093   7.037   2.328
 6338WAT     H119256   3.042   6.951   2.318
 6338WAT     H219257   3.173   7.021   2.386
 6339WAT      O19258   5.987   8.670   7.569
 6339WAT     H119259   5.891   8.682   7.593
 6339WAT     H219260   5.997   8.589   7.512
 6340WAT      O19261   0.432   2.483   7.456
 6340WAT     H119262   0.336   2.508   7.471
 6340WAT     H219263   0.438   2.384   7.440
 6341WAT      O19264   1.395   8.573   5.590
 6341WAT     H119265   1.311   8.601   5.542
 6341WAT     H219266   1.427   8.487   5.551
 6342WAT      O19267   1.978   0.721   5.024
 6342WAT     H119268   1.954   0.640   4.971
 6342WAT     H219269   2.040   0.696   5.098
 6343WAT      O19270   0.486   6.484   2.255
 6343WAT     H119271   0.507   6.404   2.311
 6343WAT     H219272   0.496   6.461   2.158
 6344WAT      O19273   2.060   5.320   8.091
 6344WAT     H119274   2.087   5.284   8.002
 6344WAT     H219275   2.012   5.408   8.078
 6345WAT      O19276   6.113   5.887   7.060
 6345WAT     H119277   6.097   5.798   7.017
 6345WAT     H219278   6.155   5.873   7.150
 6346WAT      O19279   0.534   7.735   0.442
 6346WAT     H119280   0.588   7.738   0.357
 6346WAT     H219281   0.571   7.665   0.502
 6347WAT      O19282   9.861   5.177   2.589
 6347WAT     H119283   9.915   5.261   2.594
 6347WAT     H219284   9.880   5.130   2.503
 6348WAT      O19285   9.563   6.360   3.037
 6348WAT     H119286   9.618   6.277   3.028
 6348WAT     H219287   9.467   6.338   3.021
 6349WAT      O19288   7.416   1.931   4.611
 6349WAT     H119289   7.476   2.010   4.626
 6349WAT     H219290   7.362   1.945   4.528
 6350WAT      O19291   7.705   9.389   5.909
 6350WAT     H119292   7.765   9.453   5.956
 6350WAT     H219293   7.658   9.331   5.976
 6351WAT      O19294   6.417   1.242   8.962
 6351WAT     H119295   6.500   1.236   9.018
 6351WAT     H219296   6.425   1.319   8.898
 6352WAT      O19297   5.894   1.071   3.561
 6352WAT     H119298   5.891   1.036   3.467
 6352WAT     H219299   5.816   1.035   3.612
 6353WAT      O19300   8.554   5.170   5.295
 6353WAT     H119301   8.530   5.128   5.208
 6353WAT     H219302   8.611   5.250   5.279
 6354WAT      O19303   8.725   4.533   3.965
 6354WAT     H119304   8.707   4.480   3.883
 6354WAT     H219305   8.806   4.590   3.951
 6355WAT      O19306   7.049   5.570   5.248
 6355WAT     H119307   7.003   5.653   5.218
 6355WAT     H219308   6.982   5.502   5.276
 6356WAT      O19309   5.380   6.115   4.410
 6356WAT     H119310   5.434   6.035   4.437
 6356WAT     H219311   5.382   6.124   4.311
 6357WAT      O19312   7.079   5.730   9.289
 6357WAT     H119313   7.002   5.792   9.274
 6357WAT     H219314   7.105   5.687   9.202
 6358WAT      O19315   6.830   8.067   8.189
 6358WAT     H119316   6.927   8.086   8.173
 6358WAT     H219317   6.810   8.077   8.286
 6359WAT      O19318   2.158   3.264   2.059
 6359WAT     H119319   2.127   3.182   2.106
 6359WAT     H219320   2.245   3.294   2.097
 6360WAT      O19321   2.814   5.809   8.769
 6360WAT     H119322   2.818   5.859   8.683
 6360WAT     H219323   2.861   5.861   8.840
 6361WAT      O19324   4.814   8.381   4.700
 6361WAT     H119325   4.903   8.419   4.675
 6361WAT     H219326   4.760   8.366   4.617
 6362WAT      O19327   5.580   8.938   3.158
 6362WAT     H119328   5.636   8.861   3.126
 6362WAT     H219329   5.485   8.909   3.167
 6363WAT      O19330   0.482   0.938   1.438
 6363WAT     H119331   0.421   0.944   1.517
 6363WAT     H219332   0.448   0.997   1.365
 6364WAT      O19333   0.293   6.709   7.596
 6364WAT     H119334   0.337   6.799   7.588
 6364WAT     H219335   0.363   6.638   7.592
 6365WAT      O19336   1.137   6.494   5.249
 6365WAT     H119337   1.236   6.481   5.255
 6365WAT     H219338   1.112   6.579   5.295
 6366WAT      O19339   7.819   5.067   6.313
 6366WAT     H119340   7.799   5.105   6.404
 6366WAT     H219341   7.917   5.049   6.305
 6367WAT      O19342   8.240   4.651   1.139
 6367WAT     H119343   8.218   4.554   1.148
 6367WAT     H219344   8.217   4.682   1.046
 6368WAT      O19345   0.072   1.173   0.099
 6368WAT     H119346   0.161   1.215   0.117
 6368WAT     H219347   0.018   1.233   0.040
 6369WAT      O19348   1.736   5.732   6.530
 6369WAT     H119349   1.646   5.764   6.503
 6369WAT     H219350   1.795   5.810   6.550
 6370WAT      O19351   6.009   4.627   6.817
 6370WAT     H119352   5.970   4.714   6.787
 6370WAT     H219353   6.103   4.640   6.846
 6371WAT      O19354   0.228   5.694   2.028
 6371WAT     H119355   0.280   5.689   1.943
 6371WAT     H219356   0.149   5.633   2.022
 6372WAT      O19357   0.183   7.319   5.889
 6372WAT     H119358   0.199   7.417   5.883
 6372WAT     H219359   0.204   7.286   5.981
 6373WAT      O19360   3.309   9.685   8.303
 6373WAT     H119361   3.345   9.778   8.297
 6373WAT     H219362   3.226   9.684   8.358
 6374WAT      O19363   4.366   1.817   9.740
 6374WAT     H119364   4.287   1.858   9.696
 6374WAT     H219365   4.450   1.849   9.695
 6375WAT      O19366   0.973   8.657   4.137
 6375WAT     H119367   0.919   8.573   4.150
 6375WAT     H219368   0.958   8.692   4.045
 6376WAT      O19369   0.894   5.268   5.768
 6376WAT     H119370   0.931   5.329   5.698
 6376WAT     H219371   0.957   5.263   5.845
 6377WAT      O19372   0.357   4.272   7.833
 6377WAT     H119373   0.453   4.273   7.807
 6377WAT     H219374   0.321   4.366   7.831
 6378WAT      O19375   8.240   4.217   2.860
 6378WAT     H119376   8.291   4.270   2.791
 6378WAT     H219377   8.251   4.120   2.842
 6379WAT      O19378   3.756   7.926   5.839
 6379WAT     H119379   3.707   7.983   5.773
 6379WAT     H219380   3.808   7.984   5.901
 6380WAT      O19381   1.565   0.295   7.142
 6380WAT     H119382   1.518   0.217   7.182
 6380WAT     H219383   1.654   0.265   7.107
 6381WAT      O19384   2.539   0.271   2.140
 6381WAT     H119385   2.449   0.309   2.121
 6381WAT     H219386   2.556   0.273   2.239
 6382WAT      O19387   9.728   3.055   1.807
 6382WAT     H119388   9.800   3.118   1.835
 6382WAT     H219389   9.679   3.023   1.889
 6383WAT      O19390   1.854   0.792   5.926
 6383WAT     H119391   1.853   0.806   5.827
 6383WAT     H219392   1.760   0.801   5.961
 6384WAT      O19393   4.709   3.903   6.796
 6384WAT     H119394   4.728   3.805   6.790
 6384WAT     H219395   4.616   3.921   6.763
 6385WAT      O19396   5.139   9.198   1.267
 6385WAT     H119397   5.170   9.259   1.194
 6385WAT     H219398   5.212   9.134   1.290
 6386WAT      O19399   1.087   5.590   6.445
 6386WAT     H119400   1.127   5.602   6.536
 6386WAT     H219401   1.159   5.583   6.377
 6387WAT      O19402   5.379   0.621   0.304
 6387WAT     H119403   5.367   0.524   0.326
 6387WAT     H219404   5.437   0.630   0.223
 6388WAT      O19405   4.928   3.455   2.804
 6388WAT     H119406   4.965   3.410   2.722
 6388WAT     H219407   4.896   3.385   2.868
 6389WAT      O19408   7.949   9.392   4.813
 6389WAT     H119409   7.905   9.355   4.732
 6389WAT     H219410   7.975   9.487   4.797
 6390WAT      O19411   5.825   4.123   3.954
 6390WAT     H119412   5.730   4.145   3.974
 6390WAT     H219413   5.859   4.183   3.881
 6391WAT      O19414   1.926   6.081   9.614
 6391WAT     H119415   2.002   6.026   9.581
 6391WAT     H219416   1.957   6.140   9.689
 6392WAT      O19417   8.975   3.538   6.176
 6392WAT     H119418   8.966   3.622   6.122
 6392WAT     H219419   9.065   3.498   6.160
 6393WAT      O19420   2.620   6.625   5.398
 6393WAT     H119421   2.704   6.599   5.447
 6393WAT     H219422   2.541   6.587   5.446
 6394WAT      O19423   6.168   1.060   6.813
 6394WAT     H119424   6.264   1.047   6.838
 6394WAT     H219425   6.159   1.143   6.757
 6395WAT      O19426   6.664   2.565   9.508
 6395WAT     H119427   6.726   2.513   9.449
 6395WAT     H219428   6.656   2.519   9.596
 6396WAT      O19429   5.912   5.884   2.691
 6396WAT     H119430   5.918   5.881   2.591
 6396WAT     H219431   5.986   5.941   2.727
 6397WAT      O19432   4.981   4.418   7.662
 6397WAT     H119433   4.889   4.426   7.699
 6397WAT     H219434   4.976   4.387   7.567
 6398WAT      O19435   6.942   4.570   1.353
 6398WAT     H119436   6.909   4.481   1.381
 6398WAT     H219437   7.027   4.560   1.301
 6399WAT      O19438   6.538   9.255   2.675
 6399WAT     H119439   6.585   9.253   2.587
 6399WAT     H219440   6.491   9.168   2.690
 6400WAT      O19441   4.188   2.947   5.255
 6400WAT     H119442   4.205   2.850   5.271
 6400WAT     H219443   4.110   2.958   5.194
 6401WAT      O19444   7.504   4.144   0.537
 6401WAT     H119445   7.528   4.047   0.528
 6401WAT     H219446   7.441   4.170   0.464
 6402WAT      O19447   1.861   8.420   9.484
 6402WAT     H119448   1.829   8.338   9.437
 6402WAT     H219449   1.801   8.440   9.561
 6403WAT      O19450   0.822   8.321   2.461
 6403WAT     H119451   0.736   8.277   2.435
 6403WAT     H219452   0.802   8.404   2.514
 6404WAT      O19453   0.884   6.798   6.777
 6404WAT     H119454   0.955   6.864   6.802
 6404WAT     H219455   0.921   6.735   6.709
 6405WAT      O19456   0.185   8.699   2.399
 6405WAT     H119457   0.251   8.772   2.417
 6405WAT     H219458   0.106   8.736   2.351
 6406WAT      O19459   6.218   4.936   6.473
 6406WAT     H119460   6.127   4.909   6.442
 6406WAT     H219461   6.269   4.974   6.396
 6407WAT      O19462   7.926   2.655   9.209
 6407WAT     H119463   7.949   2.670   9.113
 6407WAT     H219464   7.988   2.709   9.267
 6408WAT      O19465   4.660   0.453   8.324
 6408WAT     H119466   4.719   0.472   8.403
 6408WAT     H219467   4.663   0.355   8.303
 6409WAT      O19468   7.573   1.065   0.225
 6409WAT     H119469   7.588   1.123   0.306
 6409WAT     H219470   7.495   1.005   0.241
 6410WAT      O19471   1.744   4.462   1.413
 6410WAT     H119472   1.646   4.470   1.431
 6410WAT     H219473   1.759   4.446   1.316
 6411WAT      O19474   1.231   1.175   6.917
 6411WAT     H119475   1.182   1.227   6.987
 6411WAT     H219476   1.224   1.222   6.829
 6412WAT      O19477   8.834   7.649   3.946
 6412WAT     H119478   8.910   7.642   4.009
 6412WAT     H219479   8.791   7.559   3.934
 6413WAT      O19480   7.470   4.868   0.822
 6413WAT     H119481   7.392   4.931   0.813
 6413WAT     H219482   7.490   4.827   0.733
 6414WAT      O19483   3.170   4.526   9.763
 6414WAT     H119484   3.100   4.464   9.728
 6414WAT     H219485   3.225   4.479   9.833
 6415WAT      O19486   0.198   1.573   0.299
 6415WAT     H119487   0.194   1.510   0.376
 6415WAT     H219488   0.123   1.639   0.306
 6416WAT      O19489   8.347   9.481   3.665
 6416WAT     H119490   8.363   9.493   3.763
 6416WAT     H219491   8.410   9.412   3.628
 6417WAT      O19492   3.976   1.855   6.247
 6417WAT     H119493   4.042   1.787   6.213
 6417WAT     H219494   3.899   1.861   6.183
 6418WAT      O19495   1.325   4.543   4.012
 6418WAT     H119496   1.383   4.485   4.069
 6418WAT     H219497   1.379   4.619   3.976
 6419WAT      O19498   2.187   1.199   1.482
 6419WAT     H119499   2.194   1.100   1.488
 6419WAT     H219500   2.091   1.226   1.482
 6420WAT      O19501   0.272   6.031   7.839
 6420WAT     H119502   0.264   5.965   7.914
 6420WAT     H219503   0.216   6.000   7.762
 6421WAT      O19504   4.530   5.430   3.656
 6421WAT     H119505   4.603   5.422   3.588
 6421WAT     H219506   4.533   5.350   3.716
 6422WAT      O19507   8.619   8.257   1.310
 6422WAT     H119508   8.574   8.180   1.265
 6422WAT     H219509   8.706   8.227   1.348
 6423WAT      O19510   2.312   2.738   1.481
 6423WAT     H119511   2.255   2.820   1.484
 6423WAT     H219512   2.339   2.713   1.574
 6424WAT      O19513   4.833   4.706   6.950
 6424WAT     H119514   4.787   4.747   7.028
 6424WAT     H219515   4.776   4.714   6.869
 6425WAT      O19516   2.253   2.286   8.924
 6425WAT     H119517   2.236   2.337   9.008
 6425WAT     H219518   2.193   2.319   8.852
 6426WAT      O19519   0.511   3.131   4.975
 6426WAT     H119520   0.522   3.179   5.062
 6426WAT     H219521   0.589   3.069   4.962
 6427WAT      O19522   1.239   9.203   5.928
 6427WAT     H119523   1.216   9.136   5.998
 6427WAT     H219524   1.335   9.193   5.902
 6428WAT      O19525   1.029   7.129   3.277
 6428WAT     H119526   1.070   7.047   3.238
 6428WAT     H219527   0.929   7.121   3.273
 6429WAT      O19528   1.979   6.523   7.704
 6429WAT     H119529   2.012   6.614   7.727
 6429WAT     H219530   2.037   6.454   7.747
 6430WAT      O19531   9.384   6.984   8.907
 6430WAT     H119532   9.379   7.058   8.841
 6430WAT     H219533   9.367   6.897   8.861
 6431WAT      O19534   4.225   0.182   7.327
 6431WAT     H119535   4.311   0.137   7.305
 6431WAT     H219536   4.162   0.115   7.366
 6432WAT      O19537   0.154   7.870   3.812
 6432WAT     H119538   0.167   7.911   3.722
 6432WAT     H219539   0.230   7.894   3.871
 6433WAT      O19540   3.878   1.156   3.180
 6433WAT     H119541   3.780   1.133   3.181
 6433WAT     H219542   3.932   1.072   3.191
 6434WAT      O19543   2.286   7.920   7.306
 6434WAT     H119544   2.206   7.861   7.295
 6434WAT     H219545   2.363   7.881   7.256
 6435WAT      O19546   9.491   8.731   9.542
 6435WAT     H119547   9.421   8.766   9.604
 6435WAT     H219548   9.550   8.807   9.513
 6436WAT      O19549   4.147   8.871   5.816
 6436WAT     H119550   4.235   8.919   5.809
 6436WAT     H219551   4.073   8.938   5.814
 6437WAT      O19552   9.132   8.017   3.920
 6437WAT     H119553   9.224   8.046   3.895
 6437WAT     H219554   9.116   8.038   4.017
 6438WAT      O19555   8.437   5.396   4.589
 6438WAT     H119556   8.527   5.369   4.554
 6438WAT     H219557   8.373   5.402   4.513
 6439WAT      O19558   1.865   4.035   4.271
 6439WAT     H119559   1.953   4.073   4.299
 6439WAT     H219560   1.837   3.964   4.335
 6440WAT      O19561   0.484   6.807   0.493
 6440WAT     H119562   0.497   6.762   0.404
 6440WAT     H219563   0.572   6.837   0.528
 6441WAT      O19564   6.893   8.532   3.046
 6441WAT     H119565   6.992   8.541   3.037
 6441WAT     H219566   6.870   8.438   3.071
 6442WAT      O19567   2.555   8.706   1.727
 6442WAT     H119568   2.525   8.796   1.760
 6442WAT     H219569   2.586   8.715   1.632
 6443WAT      O19570   2.578   2.296   3.973
 6443WAT     H119571   2.657   2.270   3.917
 6443WAT     H219572   2.606   2.308   4.068
 6444WAT      O19573   8.504   2.932   8.376
 6444WAT     H119574   8.509   2.983   8.290
 6444WAT     H219575   8.595   2.926   8.417
 6445WAT      O19576   0.824   0.231   7.397
 6445WAT     H119577   0.920   0.251   7.378
 6445WAT     H219578   0.788   0.299   7.461
 6446WAT      O19579   4.457   3.760   8.974
 6446WAT     H119580   4.362   3.738   8.995
 6446WAT     H219581   4.460   3.828   8.901
 6447WAT      O19582   9.447   0.272   8.900
 6447WAT     H119583   9.450   0.370   8.882
 6447WAT     H219584   9.518   0.248   8.967
 6448WAT      O19585   9.051   6.296   9.677
 6448WAT     H119586   9.048   6.196   9.677
 6448WAT     H219587   9.143   6.327   9.656
 6449WAT      O19588   4.748   8.883   0.455
 6449WAT     H119589   4.834   8.842   0.426
 6449WAT     H219590   4.714   8.835   0.536
 6450WAT      O19591   4.529   6.037   9.819
 6450WAT     H119592   4.551   6.046   9.722
 6450WAT     H219593   4.514   6.128   9.857
 6451WAT      O19594   9.376   2.637   0.722
 6451WAT     H119595   9.321   2.699   0.665
 6451WAT     H219596   9.399   2.683   0.808
 6452WAT      O19597   2.878   6.304   8.864
 6452WAT     H119598   2.930   6.283   8.948
 6452WAT     H219599   2.782   6.318   8.887
 6453WAT      O19600   7.875   0.236   6.383
 6453WAT     H119601   7.787   0.188   6.379
 6453WAT     H219602   7.859   0.332   6.408
 6454WAT      O19603   6.740   3.338   8.695
 6454WAT     H119604   6.762   3.323   8.599
 6454WAT     H219605   6.807   3.400   8.736
 6455WAT      O19606   5.302   3.578   0.734
 6455WAT     H119607   5.234   3.646   0.708
 6455WAT     H219608   5.375   3.575   0.666
 6456WAT      O19609   8.758   8.246   1.810
 6456WAT     H119610   8.660   8.243   1.794
 6456WAT     H219611   8.802   8.304   1.740
 6457WAT      O19612   3.572   6.770   5.129
 6457WAT     H119613   3.573   6.870   5.133
 6457WAT     H219614   3.548   6.741   5.036
 6458WAT      O19615   6.062   0.997   5.414
 6458WAT     H119616   5.966   0.974   5.399
 6458WAT     H219617   6.069   1.067   5.485
 6459WAT      O19618   7.732   4.930   3.417
 6459WAT     H119619   7.814   4.982   3.394
 6459WAT     H219620   7.723   4.853   3.353
 6460WAT      O19621   1.007   9.604   2.186
 6460WAT     H119622   0.953   9.589   2.268
 6460WAT     H219623   1.098   9.562   2.198
 6461WAT      O19624   1.018   1.528   9.138
 6461WAT     H119625   0.992   1.454   9.200
 6461WAT     H219626   0.961   1.608   9.155
 6462WAT      O19627   9.605   5.056   1.490
 6462WAT     H119628   9.540   4.995   1.537
 6462WAT     H219629   9.698   5.024   1.505
 6463WAT      O19630   4.580   2.160   5.013
 6463WAT     H119631   4.486   2.130   5.027
 6463WAT     H219632   4.581   2.238   4.949
 6464WAT      O19633   0.491   7.510   1.102
 6464WAT     H119634   0.455   7.421   1.076
 6464WAT     H219635   0.563   7.537   1.038
 6465WAT      O19636   7.991   3.963   8.582
 6465WAT     H119637   7.902   4.009   8.576
 6465WAT     H219638   7.978   3.869   8.613
 6466WAT      O19639   7.251   2.098   9.031
 6466WAT     H119640   7.182   2.048   8.978
 6466WAT     H219641   7.337   2.046   9.031
 6467WAT      O19642   1.206   3.876   5.940
 6467WAT     H119643   1.139   3.845   6.007
 6467WAT     H219644   1.176   3.851   5.848
 6468WAT      O19645   1.492   7.451   3.711
 6468WAT     H119646   1.550   7.523   3.672
 6468WAT     H219647   1.404   7.491   3.737
 6469WAT      O19648   5.700   6.339   9.185
 6469WAT     H119649   5.791   6.302   9.163
 6469WAT     H219650   5.665   6.389   9.106
 6470WAT      O19651   7.021   2.997   0.615
 6470WAT     H119652   6.980   2.941   0.686
 6470WAT     H219653   7.120   3.001   0.628
 6471WAT      O19654   4.797   4.852   9.147
 6471WAT     H119655   4.806   4.857   9.047
 6471WAT     H219656   4.713   4.897   9.175
 6472WAT      O19657   5.008   6.338   7.520
 6472WAT     H119658   4.920   6.363   7.478
 6472WAT     H219659   5.031   6.243   7.495
 6473WAT      O19660   8.726   3.704   2.794
 6473WAT     H119661   8.736   3.661   2.704
 6473WAT     H219662   8.629   3.707   2.819
 6474WAT      O19663   4.211   1.069   7.944
 6474WAT     H119664   4.285   1.135   7.958
 6474WAT     H219665   4.153   1.065   8.025
 6475WAT      O19666   0.954   3.040   8.870
 6475WAT     H119667   0.985   2.999   8.784
 6475WAT     H219668   1.003   3.125   8.886
 6476WAT      O19669   8.077   6.414   6.152
 6476WAT     H119670   8.058   6.316   6.155
 6476WAT     H219671   7.991   6.465   6.155
 6477WAT      O19672   5.066   8.400   6.262
 6477WAT     H119673   5.080   8.446   6.349
 6477WAT     H219674   5.155   8.368   6.227
 6478WAT      O19675   6.053   0.526   1.878
 6478WAT     H119676   6.018   0.436   1.850
 6478WAT     H219677   6.093   0.518   1.969
 6479WAT      O19678   1.181   7.144   3.841
 6479WAT     H119679   1.183   7.130   3.742
 6479WAT     H219680   1.095   7.189   3.865
 6480WAT      O19681   4.493   4.000   1.800
 6480WAT     H119682   4.553   4.023   1.723
 6480WAT     H219683   4.425   4.073   1.811
 6481WAT      O19684   9.833   9.551   5.084
 6481WAT     H119685   9.802   9.483   5.017
 6481WAT     H219686   9.876   9.503   5.161
 6482WAT      O19687   6.688   1.329   9.774
 6482WAT     H119688   6.670   1.233   9.754
 6482WAT     H219689   6.761   1.363   9.715
 6483WAT      O19690   7.434   2.457   5.161
 6483WAT     H119691   7.372   2.392   5.205
 6483WAT     H219692   7.384   2.541   5.139
 6484WAT      O19693   8.842   4.191   5.294
 6484WAT     H119694   8.753   4.234   5.306
 6484WAT     H219695   8.846   4.107   5.348
 6485WAT      O19696   4.410   4.828   3.153
 6485WAT     H119697   4.373   4.736   3.171
 6485WAT     H219698   4.433   4.835   3.056
 6486WAT      O19699   3.264   2.889   7.153
 6486WAT     H119700   3.183   2.947   7.150
 6486WAT     H219701   3.346   2.945   7.137
 6487WAT      O19702   6.077   7.052   1.873
 6487WAT     H119703   6.032   7.033   1.785
 6487WAT     H219704   6.011   7.093   1.936
 6488WAT      O19705   5.475   7.415   8.427
 6488WAT     H119706   5.472   7.448   8.521
 6488WAT     H219707   5.565   7.376   8.408
 6489WAT      O19708   9.154   8.603   2.434
 6489WAT     H119709   9.195   8.628   2.522
 6489WAT     H219710   9.226   8.576   2.370
 6490WAT      O19711   5.084   9.332   7.349
 6490WAT     H119712   5.058   9.263   7.416
 6490WAT     H219713   5.128   9.288   7.271
 6491WAT      O19714   4.276   9.640   0.190
 6491WAT     H119715   4.275   9.723   0.246
 6491WAT     H219716   4.310   9.564   0.244
 6492WAT      O19717   2.309   4.790   8.325
 6492WAT     H119718   2.369   4.867   8.306
 6492WAT     H219719   2.355   4.724   8.385
 6493WAT      O19720   2.484   0.750   8.134
 6493WAT     H119721   2.580   0.724   8.143
 6493WAT     H219722   2.450   0.720   8.046
 6494WAT      O19723   5.804   2.769   7.941
 6494WAT     H119724   5.802   2.803   8.035
 6494WAT     H219725   5.772   2.674   7.940
 6495WAT      O19726   0.382   8.978   5.710
 6495WAT     H119727   0.454   8.972   5.640
 6495WAT     H219728   0.308   8.914   5.687
 6496WAT      O19729   7.880   0.876   9.106
 6496WAT     H119730   7.833   0.791   9.080
 6496WAT     H219731   7.876   0.941   9.030
 6497WAT      O19732   2.607   2.728   0.415
 6497WAT     H119733   2.567   2.819   0.420
 6497WAT     H219734   2.534   2.659   0.421
 6498WAT      O19735   9.133   1.596   1.125
 6498WAT     H119736   9.198   1.641   1.185
 6498WAT     H219737   9.078   1.664   1.077
 6499WAT      O19738   2.943   6.103   8.276
 6499WAT     H119739   2.948   6.070   8.181
 6499WAT     H219740   2.927   6.026   8.337
 6500WAT      O19741   7.366   7.374   5.920
 6500WAT     H119742   7.455   7.375   5.965
 6500WAT     H219743   7.372   7.321   5.836
 6501WAT      O19744   1.514   7.315   8.813
 6501WAT     H119745   1.495   7.374   8.734
 6501WAT     H219746   1.582   7.359   8.871
 6502WAT      O19747   9.193   9.182   6.050
 6502WAT     H119748   9.213   9.219   6.141
 6502WAT     H219749   9.104   9.137   6.051
 6503WAT      O19750   0.799   5.736   4.229
 6503WAT     H119751   0.860   5.810   4.201
 6503WAT     H219752   0.774   5.680   4.150
 6504WAT      O19753   3.782   3.332   0.838
 6504WAT     H119754   3.858   3.287   0.790
 6504WAT     H219755   3.780   3.429   0.813
 6505WAT      O19756   5.355   4.385   7.130
 6505WAT     H119757   5.277   4.444   7.146
 6505WAT     H219758   5.385   4.394   7.035
 6506WAT      O19759   3.365   4.381   4.989
 6506WAT     H119760   3.333   4.402   5.082
 6506WAT     H219761   3.304   4.314   4.947
 6507WAT      O19762   2.665   8.587   0.258
 6507WAT     H119763   2.641   8.501   0.212
 6507WAT     H219764   2.584   8.643   0.267
 6508WAT      O19765   4.779   1.908   1.934
 6508WAT     H119766   4.706   1.889   1.869
 6508WAT     H219767   4.808   1.822   1.977
 6509WAT      O19768   7.778   4.597   3.767
 6509WAT     H119769   7.719   4.521   3.794
 6509WAT     H219770   7.840   4.620   3.842
 6510WAT      O19771   5.889   7.732   7.919
 6510WAT     H119772   5.975   7.752   7.965
 6510WAT     H219773   5.873   7.799   7.847
 6511WAT      O19774   3.659   2.168   3.552
 6511WAT     H119775   3.650   2.258   3.593
 6511WAT     H219776   3.707   2.177   3.464
 6512WAT      O19777   4.451   5.617   0.141
 6512WAT     H119778   4.516   5.654   0.207
 6512WAT     H219779   4.394   5.548   0.185
 6513WAT      O19780   5.942   0.214   2.022
 6513WAT     H119781   5.855   0.258   2.004
 6513WAT     H219782   6.010   0.246   1.956
 6514WAT      O19783   5.729   8.464   6.538
 6514WAT     H119784   5.721   8.384   6.478
 6514WAT     H219785   5.638   8.502   6.555
 6515WAT      O19786   6.059   6.614   5.563
 6515WAT     H119787   6.147   6.571   5.541
 6515WAT     H219788   5.986   6.570   5.511
 6516WAT      O19789   8.056   2.830   5.289
 6516WAT     H119790   8.057   2.883   5.373
 6516WAT     H219791   8.112   2.876   5.220
 6517WAT      O19792   3.898   8.862   6.244
 6517WAT     H119793   3.863   8.954   6.228
 6517WAT     H219794   3.977   8.846   6.185
 6518WAT      O19795   2.656   5.092   0.517
 6518WAT     H119796   2.631   5.115   0.423
 6518WAT     H219797   2.578   5.106   0.577
 6519WAT      O19798   3.345   4.290   1.288
 6519WAT     H119799   3.281   4.324   1.356
 6519WAT     H219800   3.295   4.264   1.205
 6520WAT      O19801   2.126   4.923   7.312
 6520WAT     H119802   2.098   5.007   7.359
 6520WAT     H219803   2.076   4.915   7.226
 6521WAT      O19804   7.475   5.505   4.244
 6521WAT     H119805   7.543   5.458   4.188
 6521WAT     H219806   7.402   5.442   4.269
 6522WAT      O19807   6.077   2.003   7.100
 6522WAT     H119808   6.082   2.093   7.055
 6522WAT     H219809   6.035   2.014   7.190
 6523WAT      O19810   8.725   8.961   4.833
 6523WAT     H119811   8.702   8.947   4.929
 6523WAT     H219812   8.673   8.897   4.776
 6524WAT      O19813   2.929   8.356   3.954
 6524WAT     H119814   3.020   8.317   3.941
 6524WAT     H219815   2.936   8.454   3.970
 6525WAT      O19816   8.929   1.730   9.407
 6525WAT     H119817   9.012   1.703   9.457
 6525WAT     H219818   8.937   1.826   9.381
 6526WAT      O19819   9.826   0.741   6.218
 6526WAT     H119820   9.847   0.827   6.171
 6526WAT     H219821   9.784   0.677   6.153
 6527WAT      O19822   4.860   7.189   0.747
 6527WAT     H119823   4.916   7.235   0.679
 6527WAT     H219824   4.763   7.201   0.724
 6528WAT      O19825   7.891   6.403   6.454
 6528WAT     H119826   7.978   6.433   6.491
 6528WAT     H219827   7.885   6.430   6.358
 6529WAT      O19828   6.504   0.610   8.327
 6529WAT     H119829   6.484   0.592   8.423
 6529WAT     H219830   6.576   0.548   8.296
 6530WAT      O19831   0.729   4.688   3.567
 6530WAT     H119832   0.782   4.772   3.572
 6530WAT     H219833   0.653   4.700   3.503
 6531WAT      O19834   9.129   7.058   4.619
 6531WAT     H119835   9.092   6.983   4.674
 6531WAT     H219836   9.169   7.022   4.535
 6532WAT      O19837   6.964   0.183   1.111
 6532WAT     H119838   6.929   0.191   1.204
 6532WAT     H219839   6.973   0.087   1.087
 6533WAT      O19840   0.462   3.199   9.543
 6533WAT     H119841   0.484   3.173   9.638
 6533WAT     H219842   0.498   3.129   9.481
 6534WAT      O19843   8.817   0.886   4.869
 6534WAT     H119844   8.808   0.832   4.785
 6534WAT     H219845   8.907   0.929   4.872
 6535WAT      O19846   7.465   6.999   5.056
 6535WAT     H119847   7.475   6.904   5.026
 6535WAT     H219848   7.530   7.056   5.007
 6536WAT      O19849   8.553   0.984   5.109
 6536WAT     H119850   8.517   1.019   5.196
 6536WAT     H219851   8.486   1.003   5.037
 6537WAT      O19852   4.913   3.931   8.298
 6537WAT     H119853   4.938   3.891   8.210
 6537WAT     H219854   4.839   3.997   8.284
 6538WAT      O19855   0.973   0.497   6.039
 6538WAT     H119856   1.016   0.415   6.003
 6538WAT     H219857   0.874   0.485   6.040
 6539WAT      O19858   2.326   2.372   4.054
 6539WAT     H119859   2.418   2.372   4.017
 6539WAT     H219860   2.291   2.466   4.055
 6540WAT      O19861   9.134   6.058   9.337
 6540WAT     H119862   9.052   6.038   9.283
 6540WAT     H219863   9.186   6.131   9.291
 6541WAT      O19864   7.598   3.851   2.103
 6541WAT     H119865   7.602   3.895   2.193
 6541WAT     H219866   7.614   3.920   2.032
 6542WAT      O19867   1.644   2.730   4.613
 6542WAT     H119868   1.592   2.762   4.692
 6542WAT     H219869   1.726   2.682   4.644
 6543WAT      O19870   5.658   5.141   1.070
 6543WAT     H119871   5.696   5.184   1.152
 6543WAT     H219872   5.617   5.211   1.012
 6544WAT      O19873   6.720   0.804   4.067
 6544WAT     H119874   6.800   0.753   4.037
 6544WAT     H219875   6.687   0.766   4.154
 6545WAT      O19876   7.382   7.609   0.255
 6545WAT     H119877   7.386   7.543   0.181
 6545WAT     H219878   7.305   7.671   0.241
 6546WAT      O19879   3.121   3.944   9.796
 6546WAT     H119880   3.119   3.849   9.766
 6546WAT     H219881   3.034   3.967   9.839
 6547WAT      O19882   5.181   0.554   3.431
 6547WAT     H119883   5.147   0.479   3.374
 6547WAT     H219884   5.104   0.598   3.477
 6548WAT      O19885   5.462   2.926   2.360
 6548WAT     H119886   5.494   2.832   2.345
 6548WAT     H219887   5.467   2.977   2.275
 6549WAT      O19888   3.566   5.074   1.524
 6549WAT     H119889   3.645   5.055   1.582
 6549WAT     H219890   3.539   5.169   1.534
 6550WAT      O19891   9.563   7.466   3.449
 6550WAT     H119892   9.593   7.559   3.471
 6550WAT     H219893   9.635   7.401   3.472
 6551WAT      O19894   3.301   7.286   9.513
 6551WAT     H119895   3.212   7.294   9.469
 6551WAT     H219896   3.293   7.230   9.596
 6552WAT      O19897   8.254   1.748   7.741
 6552WAT     H119898   8.324   1.765   7.672
 6552WAT     H219899   8.210   1.660   7.724
 6553WAT      O19900   6.890   2.976   9.356
 6553WAT     H119901   6.903   2.910   9.430
 6553WAT     H219902   6.854   2.930   9.276
 6554WAT      O19903   7.429   1.781   7.215
 6554WAT     H119904   7.383   1.859   7.171
 6554WAT     H219905   7.484   1.814   7.292
 6555WAT      O19906   9.073   6.867   9.219
 6555WAT     H119907   9.066   6.776   9.180
 6555WAT     H219908   9.141   6.920   9.168
 6556WAT      O19909   7.787   3.693   0.676
 6556WAT     H119910   7.845   3.616   0.649
 6556WAT     H219911   7.806   3.771   0.615
 6557WAT      O19912   1.334   1.289   7.982
 6557WAT     H119913   1.398   1.213   7.996
 6557WAT     H219914   1.259   1.259   7.923
 6558WAT      O19915   7.973   9.640   4.670
 6558WAT     H119916   8.016   9.624   4.581
 6558WAT     H219917   7.881   9.676   4.657
 6559WAT      O19918   0.859   3.708   9.032
 6559WAT     H119919   0.936   3.758   9.072
 6559WAT     H219920   0.773   3.750   9.061
 6560WAT      O19921   0.882   6.846   3.448
 6560WAT     H119922   0.854   6.868   3.355
 6560WAT     H219923   0.974   6.807   3.447
 6561WAT      O19924   8.800   2.836   2.169
 6561WAT     H119925   8.768   2.923   2.131
 6561WAT     H219926   8.853   2.854   2.252
 6562WAT      O19927   6.381   7.219   6.264
 6562WAT     H119928   6.426   7.274   6.335
 6562WAT     H219929   6.443   7.208   6.186
 6563WAT      O19930   9.761   0.879   4.905
 6563WAT     H119931   9.838   0.821   4.934
 6563WAT     H219932   9.685   0.821   4.875
 6564WAT      O19933   2.303   0.525   3.443
 6564WAT     H119934   2.208   0.551   3.431
 6564WAT     H219935   2.314   0.427   3.430
 6565WAT      O19936   2.181   7.544   7.310
 6565WAT     H119937   2.205   7.474   7.376
 6565WAT     H219938   2.232   7.530   7.225
 6566WAT      O19939   2.121   1.693   2.580
 6566WAT     H119940   2.079   1.770   2.531
 6566WAT     H219941   2.178   1.728   2.654
 6567WAT      O19942   0.408   1.041   5.034
 6567WAT     H119943   0.482   1.108   5.025
 6567WAT     H219944   0.413   0.975   4.959
 6568WAT      O19945   1.180   5.931   5.502
 6568WAT     H119946   1.274   5.911   5.528
 6568WAT     H219947   1.154   5.876   5.423
 6569WAT      O19948   6.027   9.467   5.571
 6569WAT     H119949   5.988   9.382   5.535
 6569WAT     H219950   6.111   9.446   5.621
 6570WAT      O19951   2.473   3.839   8.692
 6570WAT     H119952   2.443   3.925   8.733
 6570WAT     H219953   2.440   3.762   8.747
 6571WAT      O19954   1.569   1.090   8.909
 6571WAT     H119955   1.505   1.145   8.963
 6571WAT     H219956   1.607   1.145   8.835
 6572WAT      O19957   5.814   6.075   8.976
 6572WAT     H119958   5.855   5.984   8.984
 6572WAT     H219959   5.868   6.141   9.028
 6573WAT      O19960   7.104   4.661   5.839
 6573WAT     H119961   7.033   4.618   5.785
 6573WAT     H219962   7.122   4.753   5.805
 6574WAT      O19963   1.640   8.375   1.611
 6574WAT     H119964   1.607   8.325   1.691
 6574WAT     H219965   1.571   8.372   1.539
 6575WAT      O19966   9.729   8.277   2.612
 6575WAT     H119967   9.654   8.342   2.624
 6575WAT     H219968   9.704   8.210   2.543
 6576WAT      O19969   5.269   6.239   5.797
 6576WAT     H119970   5.369   6.247   5.796
 6576WAT     H219971   5.231   6.280   5.714
 6577WAT      O19972   5.794   0.709   8.578
 6577WAT     H119973   5.757   0.630   8.625
 6577WAT     H219974   5.857   0.679   8.506
 6578WAT      O19975   1.345   7.327   5.124
 6578WAT     H119976   1.436   7.343   5.164
 6578WAT     H219977   1.338   7.376   5.038
 6579WAT      O19978   1.716   0.567   4.536
 6579WAT     H119979   1.813   0.593   4.534
 6579WAT     H219980   1.662   0.638   4.490
 6580WAT      O19981   5.034   4.578   1.082
 6580WAT     H119982   5.012   4.669   1.047
 6580WAT     H219983   5.005   4.509   1.016
 6581WAT      O19984   9.721   2.571   7.776
 6581WAT     H119985   9.735   2.603   7.870
 6581WAT     H219986   9.648   2.503   7.774
 6582WAT      O19987   3.123   4.232   4.944
 6582WAT     H119988   3.067   4.311   4.918
 6582WAT     H219989   3.097   4.202   5.036
 6583WAT      O19990   8.680   0.190   0.084
 6583WAT     H119991   8.686   0.256   0.010
 6583WAT     H219992   8.764   0.135   0.086
 6584WAT      O19993   7.964   5.822   5.655
 6584WAT     H119994   7.941   5.885   5.581
 6584WAT     H219995   8.003   5.739   5.616
 6585WAT      O19996   7.952   6.652   8.745
 6585WAT     H119997   7.961   6.694   8.835
 6585WAT     H219998   8.019   6.693   8.683
 6586WAT      O19999   2.461   6.679   0.674
 6586WAT     H120000   2.388   6.701   0.739
 6586WAT     H220001   2.443   6.726   0.587
 6587WAT      O20002   6.883   8.903   9.557
 6587WAT     H120003   6.935   8.980   9.595
 6587WAT     H220004   6.793   8.898   9.600
 6588WAT      O20005   0.794   3.273   0.223
 6588WAT     H120006   0.736   3.247   0.146
 6588WAT     H220007   0.889   3.253   0.200
 6589WAT      O20008   7.330   3.266   1.770
 6589WAT     H120009   7.403   3.197   1.774
 6589WAT     H220010   7.366   3.350   1.729
 6590WAT      O20011   9.714   1.191   0.687
 6590WAT     H120012   9.639   1.253   0.711
 6590WAT     H220013   9.732   1.198   0.588
 6591WAT      O20014   7.849   7.721   6.515
 6591WAT     H120015   7.789   7.799   6.530
 6591WAT     H220016   7.869   7.713   6.417
 6592WAT      O20017   1.241   0.472   0.691
 6592WAT     H120018   1.187   0.417   0.628
 6592WAT     H220019   1.279   0.551   0.642
 6593WAT      O20020   9.098   7.502   0.291
 6593WAT     H120021   9.091   7.405   0.266
 6593WAT     H220022   9.019   7.551   0.254
 6594WAT      O20023   9.591   5.760   9.376
 6594WAT     H120024   9.676   5.796   9.414
 6594WAT     H220025   9.549   5.828   9.317
 6595WAT      O20026   7.071   5.765   2.811
 6595WAT     H120027   7.006   5.825   2.764
 6595WAT     H220028   7.081   5.680   2.759
 6596WAT      O20029   4.541   1.253   4.317
 6596WAT     H120030   4.633   1.264   4.279
 6596WAT     H220031   4.529   1.316   4.393
 6597WAT      O20032   2.350   9.739   9.073
 6597WAT     H120033   2.324   9.647   9.043
 6597WAT     H220034   2.329   9.805   9.001
 6598WAT      O20035   2.155   6.688   9.326
 6598WAT     H120036   2.194   6.610   9.375
 6598WAT     H220037   2.200   6.697   9.237
 6599WAT      O20038   8.931   4.715   5.029
 6599WAT     H120039   8.853   4.658   5.055
 6599WAT     H220040   9.015   4.661   5.037
 6600WAT      O20041   7.878   4.683   5.889
 6600WAT     H120042   7.940   4.653   5.817
 6600WAT     H220043   7.792   4.715   5.848
 6601WAT      O20044   9.635   2.622   9.022
 6601WAT     H120045   9.585   2.545   9.062
 6601WAT     H220046   9.579   2.705   9.028
 6602WAT      O20047   7.228   3.186   3.527
 6602WAT     H120048   7.173   3.254   3.478
 6602WAT     H220049   7.317   3.226   3.551
 6603WAT      O20050   0.600   4.820   7.938
 6603WAT     H120051   0.627   4.860   7.850
 6603WAT     H220052   0.639   4.874   8.012
 6604WAT      O20053   3.955   4.743   3.124
 6604WAT     H120054   3.862   4.766   3.150
 6604WAT     H220055   4.019   4.796   3.180
 6605WAT      O20056   0.331   1.237   0.146
 6605WAT     H120057   0.357   1.186   0.228
 6605WAT     H220058   0.360   1.332   0.155
 6606WAT      O20059   8.994   6.267   8.617
 6606WAT     H120060   8.927   6.272   8.543
 6606WAT     H220061   9.083   6.300   8.583
 6607WAT      O20062   4.028   2.588   4.234
 6607WAT     H120063   4.040   2.643   4.317
 6607WAT     H220064   3.932   2.560   4.226
 6608WAT      O20065   1.838   0.982   1.498
 6608WAT     H120066   1.790   0.894   1.509
 6608WAT     H220067   1.915   0.985   1.563
 6609WAT      O20068   9.881   6.608   9.236
 6609WAT     H120069   9.815   6.585   9.307
 6609WAT     H220070   9.969   6.565   9.258
 6610WAT      O20071   9.655   5.038   2.690
 6610WAT     H120072   9.568   5.082   2.669
 6610WAT     H220073   9.728   5.082   2.637
 6611WAT      O20074   9.038   0.883   6.102
 6611WAT     H120075   9.101   0.907   6.029
 6611WAT     H220076   9.089   0.869   6.187
 6612WAT      O20077   6.749   8.203   7.536
 6612WAT     H120078   6.650   8.189   7.545
 6612WAT     H220079   6.796   8.163   7.614
 6613WAT      O20080   3.359   8.807   0.405
 6613WAT     H120081   3.456   8.785   0.410
 6613WAT     H220082   3.347   8.906   0.403
 6614WAT      O20083   1.653   0.981   4.699
 6614WAT     H120084   1.632   1.025   4.786
 6614WAT     H220085   1.659   0.882   4.712
 6615WAT      O20086   3.136   3.255   8.946
 6615WAT     H120087   3.215   3.254   9.008
 6615WAT     H220088   3.052   3.248   8.998
 6616WAT      O20089   7.748   8.626   9.499
 6616WAT     H120090   7.692   8.599   9.421
 6616WAT     H220091   7.802   8.706   9.474
 6617WAT      O20092   4.668   4.790   5.283
 6617WAT     H120093   4.602   4.762   5.213
 6617WAT     H220094   4.643   4.750   5.371
 6618WAT      O20095   7.658   9.218   9.488
 6618WAT     H120096   7.666   9.124   9.454
 6618WAT     H220097   7.583   9.264   9.441
 6619WAT      O20098   1.909   6.970   8.783
 6619WAT     H120099   1.892   6.921   8.697
 6619WAT     H220100   1.987   7.032   8.771
 6620WAT      O20101   7.726   4.590   1.225
 6620WAT     H120102   7.752   4.676   1.267
 6620WAT     H220103   7.676   4.534   1.290
 6621WAT      O20104   5.096   0.111   9.180
 6621WAT     H120105   5.155   0.102   9.261
 6621WAT     H220106   5.126   0.046   9.110
 6622WAT      O20107   5.349   7.307   1.247
 6622WAT     H120108   5.307   7.336   1.333
 6622WAT     H220109   5.291   7.335   1.171
 6623WAT      O20110   1.336   7.461   1.150
 6623WAT     H120111   1.282   7.387   1.190
 6623WAT     H220112   1.353   7.442   1.053
 6624WAT      O20113   3.610   2.271   0.792
 6624WAT     H120114   3.624   2.257   0.694
 6624WAT     H220115   3.685   2.327   0.828
 6625WAT      O20116   1.124   2.148   0.864
 6625WAT     H120117   1.177   2.232   0.853
 6625WAT     H220118   1.037   2.169   0.908
 6626WAT      O20119   0.167   9.104   8.750
 6626WAT     H120120   0.110   9.022   8.750
 6626WAT     H220121   0.172   9.141   8.843
 6627WAT      O20122   9.312   0.204   3.965
 6627WAT     H120123   9.275   0.246   3.883
 6627WAT     H220124   9.393   0.254   3.995
 6628WAT      O20125   1.148   1.220   7.757
 6628WAT     H120126   1.197   1.245   7.673
 6628WAT     H220127   1.093   1.139   7.740
 6629WAT      O20128   2.105   1.429   2.911
 6629WAT     H120129   2.088   1.338   2.949
 6629WAT     H220130   2.017   1.472   2.887
 6630WAT      O20131   4.425   6.373   5.947
 6630WAT     H120132   4.496   6.381   5.878
 6630WAT     H220133   4.452   6.423   6.030
 6631WAT      O20134   5.779   4.596   8.887
 6631WAT     H120135   5.794   4.559   8.795
 6631WAT     H220136   5.849   4.664   8.906
 6632WAT      O20137   7.965   8.281   5.111
 6632WAT     H120138   8.063   8.277   5.093
 6632WAT     H220139   7.923   8.194   5.086
 6633WAT      O20140   1.875   5.024   8.099
 6633WAT     H120141   1.890   5.065   8.009
 6633WAT     H220142   1.860   5.096   8.167
 6634WAT      O20143   1.640   3.179   7.106
 6634WAT     H120144   1.605   3.239   7.035
 6634WAT     H220145   1.623   3.083   7.081
 6635WAT      O20146   3.030   5.835   1.698
 6635WAT     H120147   3.116   5.881   1.722
 6635WAT     H220148   3.019   5.834   1.599
 6636WAT      O20149   3.480   0.785   0.722
 6636WAT     H120150   3.424   0.815   0.799
 6636WAT     H220151   3.577   0.799   0.744
 6637WAT      O20152   9.506   7.215   6.341
 6637WAT     H120153   9.530   7.300   6.387
 6637WAT     H220154   9.588   7.173   6.302
 6638WAT      O20155   8.176   8.638   8.240
 6638WAT     H120156   8.130   8.557   8.206
 6638WAT     H220157   8.213   8.691   8.164
 6639WAT      O20158   1.076   6.345   9.092
 6639WAT     H120159   1.094   6.254   9.055
 6639WAT     H220160   0.985   6.376   9.064
 6640WAT      O20161   0.465   1.955   0.086
 6640WAT     H120162   0.471   2.042   0.036
 6640WAT     H220163   0.447   1.974   0.183
 6641WAT      O20164   0.433   7.750   9.385
 6641WAT     H120165   0.485   7.828   9.418
 6641WAT     H220166   0.491   7.692   9.328
 6642WAT      O20167   1.675   6.640   1.696
 6642WAT     H120168   1.589   6.598   1.665
 6642WAT     H220169   1.661   6.684   1.785
 6643WAT      O20170   4.883   3.790   4.800
 6643WAT     H120171   4.957   3.849   4.832
 6643WAT     H220172   4.922   3.711   4.752
 6644WAT      O20173   6.913   3.954   8.965
 6644WAT     H120174   6.849   3.878   8.951
 6644WAT     H220175   6.988   3.924   9.024
 6645WAT      O20176   5.460   4.361   4.944
 6645WAT     H120177   5.554   4.335   4.923
 6645WAT     H220178   5.407   4.364   4.859
 6646WAT      O20179   1.732   2.468   3.650
 6646WAT     H120180   1.721   2.416   3.565
 6646WAT     H220181   1.800   2.540   3.636
 6647WAT      O20182   6.314   4.004   6.848
 6647WAT     H120183   6.396   4.048   6.883
 6647WAT     H220184   6.337   3.954   6.764
 6648WAT      O20185   5.921   0.975   3.308
 6648WAT     H120186   5.829   0.935   3.311
 6648WAT     H220187   5.956   0.970   3.214
 6649WAT      O20188   4.968   6.620   5.708
 6649WAT     H120189   5.039   6.681   5.673
 6649WAT     H220190   4.882   6.637   5.659
 6650WAT      O20191   1.999   4.637   6.899
 6650WAT     H120192   2.024   4.590   6.814
 6650WAT     H220193   1.900   4.634   6.911
 6651WAT      O20194   1.749   3.541   8.448
 6651WAT     H120195   1.657   3.555   8.483
 6651WAT     H220196   1.780   3.448   8.471
 6652WAT      O20197   5.925   6.071   1.995
 6652WAT     H120198   5.947   6.146   1.933
 6652WAT     H220199   5.956   5.984   1.956
 6653WAT      O20200   8.979   5.755   3.631
 6653WAT     H120201   8.914   5.801   3.692
 6653WAT     H220202   8.942   5.665   3.606
 6654WAT      O20203   1.028   9.702   6.675
 6654WAT     H120204   0.978   9.633   6.726
 6654WAT     H220205   1.125   9.679   6.672
 6655WAT      O20206   9.348   7.012   3.348
 6655WAT     H120207   9.268   7.063   3.317
 6655WAT     H220208   9.325   6.961   3.430
 6656WAT      O20209   3.490   7.317   4.192
 6656WAT     H120210   3.575   7.366   4.171
 6656WAT     H220211   3.507   7.219   4.193
 6657WAT      O20212   1.230   5.671   7.769
 6657WAT     H120213   1.290   5.666   7.689
 6657WAT     H220214   1.143   5.626   7.749
 6658WAT      O20215   7.901   9.392   7.657
 6658WAT     H120216   7.824   9.328   7.658
 6658WAT     H220217   7.978   9.353   7.707
 6659WAT      O20218   6.837   5.575   9.395
 6659WAT     H120219   6.765   5.544   9.333
 6659WAT     H220220   6.821   5.671   9.418
 6660WAT      O20221   2.213   3.586   3.495
 6660WAT     H120222   2.276   3.545   3.562
 6660WAT     H220223   2.229   3.546   3.405
 6661WAT      O20224   8.574   2.786   0.901
 6661WAT     H120225   8.557   2.763   0.806
 6661WAT     H220226   8.669   2.767   0.924
 6662WAT      O20227   0.654   4.815   4.728
 6662WAT     H120228   0.693   4.841   4.640
 6662WAT     H220229   0.715   4.752   4.776
 6663WAT      O20230   1.735   4.730   2.421
 6663WAT     H120231   1.672   4.768   2.353
 6663WAT     H220232   1.795   4.802   2.455
 6664WAT      O20233   5.359   8.195   8.778
 6664WAT     H120234   5.383   8.130   8.706
 6664WAT     H220235   5.400   8.166   8.864
 6665WAT      O20236   5.872   1.367   7.063
 6665WAT     H120237   5.777   1.337   7.071
 6665WAT     H220238   5.925   1.329   7.139
 6666WAT      O20239   3.924   1.030   8.824
 6666WAT     H120240   3.846   1.036   8.761
 6666WAT     H220241   3.961   1.122   8.839
 6667WAT      O20242   8.314   3.390   7.658
 6667WAT     H120243   8.413   3.404   7.668
 6667WAT     H220244   8.289   3.300   7.694
 6668WAT      O20245   7.601   2.957   7.074
 6668WAT     H120246   7.657   2.889   7.123
 6668WAT     H220247   7.626   2.957   6.977
 6669WAT      O20248   6.695   1.487   2.180
 6669WAT     H120249   6.710   1.389   2.164
 6669WAT     H220250   6.783   1.533   2.188
 6670WAT      O20251   1.451   2.227   8.106
 6670WAT     H120252   1.387   2.293   8.144
 6670WAT     H220253   1.416   2.192   8.020
 6671WAT      O20254   6.011   8.282   8.931
 6671WAT     H120255   5.922   8.325   8.914
 6671WAT     H220256   6.015   8.250   9.025
 6672WAT      O20257   1.072   6.214   5.668
 6672WAT     H120258   1.055   6.116   5.679
 6672WAT     H220259   0.996   6.256   5.620
 6673WAT      O20260   5.637   3.197   8.426
 6673WAT     H120261   5.679   3.211   8.337
 6673WAT     H220262   5.692   3.131   8.479
 6674WAT      O20263   8.618   9.122   7.019
 6674WAT     H120264   8.688   9.054   7.041
 6674WAT     H220265   8.541   9.076   6.974
 6675WAT      O20266   7.024   6.943   0.546
 6675WAT     H120267   6.957   6.957   0.473
 6675WAT     H220268   7.049   7.031   0.586
 6676WAT      O20269   8.415   0.828   4.225
 6676WAT     H120270   8.353   0.815   4.303
 6676WAT     H220271   8.462   0.915   4.234
 6677WAT      O20272   6.303   6.338   2.380
 6677WAT     H120273   6.259   6.345   2.290
 6677WAT     H220274   6.296   6.426   2.427
 6678WAT      O20275   5.974   5.050   9.774
 6678WAT     H120276   5.941   5.140   9.803
 6678WAT     H220277   6.072   5.042   9.794
 6679WAT      O20278   3.887   5.621   6.388
 6679WAT     H120279   3.939   5.704   6.371
 6679WAT     H220280   3.815   5.639   6.455
 6680WAT      O20281   4.762   0.369   6.779
 6680WAT     H120282   4.736   0.371   6.875
 6680WAT     H220283   4.756   0.461   6.740
 6681WAT      O20284   5.555   4.791   0.554
 6681WAT     H120285   5.632   4.836   0.600
 6681WAT     H220286   5.514   4.724   0.616
 6682WAT      O20287   3.835   8.297   4.811
 6682WAT     H120288   3.799   8.221   4.865
 6682WAT     H220289   3.772   8.374   4.818
 6683WAT      O20290   7.552   1.177   5.150
 6683WAT     H120291   7.551   1.131   5.239
 6683WAT     H220292   7.536   1.275   5.162
 6684WAT      O20293   8.978   4.743   6.989
 6684WAT     H120294   8.944   4.691   6.910
 6684WAT     H220295   9.041   4.686   7.042
 6685WAT      O20296   1.360   3.720   5.629
 6685WAT     H120297   1.370   3.622   5.646
 6685WAT     H220298   1.263   3.743   5.621
 6686WAT      O20299   8.229   2.203   2.349
 6686WAT     H120300   8.321   2.236   2.373
 6686WAT     H220301   8.173   2.280   2.318
 6687WAT      O20302   6.069   0.669   3.284
 6687WAT     H120303   5.971   0.672   3.305
 6687WAT     H220304   6.116   0.742   3.334
 6688WAT      O20305   7.661   1.760   7.858
 6688WAT     H120306   7.624   1.707   7.782
 6688WAT     H220307   7.588   1.816   7.898
 6689WAT      O20308   0.247   5.826   6.812
 6689WAT     H120309   0.215   5.885   6.738
 6689WAT     H220310   0.334   5.784   6.786
 6690WAT      O20311   5.075   8.825   7.029
 6690WAT     H120312   5.175   8.817   7.039
 6690WAT     H220313   5.055   8.900   6.966
 6691WAT      O20314   5.075   7.447   5.154
 6691WAT     H120315   5.109   7.519   5.093
 6691WAT     H220316   5.037   7.372   5.100
 6692WAT      O20317   4.679   2.915   0.785
 6692WAT     H120318   4.589   2.872   0.789
 6692WAT     H220319   4.748   2.846   0.764
 6693WAT      O20320   6.595   2.785   7.887
 6693WAT     H120321   6.504   2.745   7.876
 6693WAT     H220322   6.595   2.878   7.849
 6694WAT      O20323   6.158   0.638   0.228
 6694WAT     H120324   6.201   0.704   0.166
 6694WAT     H220325   6.073   0.606   0.188
 6695WAT      O20326   6.591   1.642   8.337
 6695WAT     H120327   6.492   1.659   8.341
 6695WAT     H220328   6.610   1.569   8.272
 6696WAT      O20329   1.507   8.897   5.129
 6696WAT     H120330   1.507   8.997   5.129
 6696WAT     H220331   1.601   8.863   5.121
 6697WAT      O20332   7.729   5.533   7.178
 6697WAT     H120333   7.639   5.503   7.210
 6697WAT     H220334   7.746   5.499   7.086
 6698WAT      O20335   6.975   6.907   5.658
 6698WAT     H120336   7.006   6.886   5.565
 6698WAT     H220337   7.042   6.966   5.703
 6699WAT      O20338   7.437   3.525   3.208
 6699WAT     H120339   7.494   3.495   3.132
 6699WAT     H220340   7.486   3.595   3.261
 6700WAT      O20341   6.980   2.438   7.314
 6700WAT     H120342   7.002   2.342   7.301
 6700WAT     H220343   6.990   2.487   7.228
 6701WAT      O20344   6.345   1.064   9.363
 6701WAT     H120345   6.366   1.044   9.459
 6701WAT     H220346   6.422   1.038   9.306
 6702WAT      O20347   3.165   8.255   7.758
 6702WAT     H120348   3.233   8.201   7.708
 6702WAT     H220349   3.093   8.284   7.695
 6703WAT      O20350   0.024   8.869   8.743
 6703WAT     H120351  -0.062   8.916   8.723
 6703WAT     H220352   0.009   8.770   8.746
 6704WAT      O20353   9.154   6.116   3.587
 6704WAT     H120354   9.168   6.033   3.640
 6704WAT     H220355   9.059   6.145   3.594
 6705WAT      O20356   1.188   8.590   7.843
 6705WAT     H120357   1.239   8.505   7.861
 6705WAT     H220358   1.229   8.665   7.896
 6706WAT      O20359   8.316   0.146   9.701
 6706WAT     H120360   8.346   0.157   9.796
 6706WAT     H220361   8.224   0.184   9.691
 6707WAT      O20362   3.682   7.551   9.387
 6707WAT     H120363   3.719   7.488   9.456
 6707WAT     H220364   3.666   7.502   9.302
 6708WAT      O20365   4.461   6.926   8.017
 6708WAT     H120366   4.495   6.975   8.097
 6708WAT     H220367   4.423   6.837   8.045
 6709WAT      O20368   4.479   4.205   8.689
 6709WAT     H120369   4.555   4.219   8.626
 6709WAT     H220370   4.425   4.289   8.695
 6710WAT      O20371   7.928   4.154   8.779
 6710WAT     H120372   8.022   4.177   8.755
 6710WAT     H220373   7.924   4.122   8.874
 6711WAT      O20374   2.702   3.286   1.185
 6711WAT     H120375   2.656   3.197   1.181
 6711WAT     H220376   2.689   3.334   1.099
 6712WAT      O20377   4.388   6.343   9.688
 6712WAT     H120378   4.314   6.302   9.742
 6712WAT     H220379   4.367   6.334   9.591
 6713WAT      O20380   8.608   2.466   0.198
 6713WAT     H120381   8.637   2.538   0.135
 6713WAT     H220382   8.571   2.390   0.146
 6714WAT      O20383   9.870   1.917   0.749
 6714WAT     H120384   9.786   1.942   0.700
 6714WAT     H220385   9.921   1.850   0.696
 6715WAT      O20386   4.795   6.042   1.148
 6715WAT     H120387   4.735   6.119   1.123
 6715WAT     H220388   4.756   5.957   1.113
 6716WAT      O20389   5.102   2.686   3.515
 6716WAT     H120390   5.135   2.597   3.545
 6716WAT     H220391   5.047   2.728   3.587
 6717WAT      O20392   6.260   3.200   7.492
 6717WAT     H120393   6.235   3.147   7.573
 6717WAT     H220394   6.240   3.146   7.410
 6718WAT      O20395   7.910   9.818   1.992
 6718WAT     H120396   7.912   9.913   2.022
 6718WAT     H220397   8.003   9.781   1.992
 6719WAT      O20398   3.662   5.485   9.689
 6719WAT     H120399   3.668   5.399   9.638
 6719WAT     H220400   3.596   5.474   9.764
 6720WAT      O20401   4.362   8.927   2.415
 6720WAT     H120402   4.404   8.932   2.324
 6720WAT     H220403   4.294   8.999   2.424
 6721WAT      O20404   3.569   3.867   2.076
 6721WAT     H120405   3.570   3.860   1.976
 6721WAT     H220406   3.489   3.820   2.112
 6722WAT      O20407   8.671   1.609   5.876
 6722WAT     H120408   8.608   1.677   5.912
 6722WAT     H220409   8.765   1.637   5.896
 6723WAT      O20410   9.509   0.797   2.380
 6723WAT     H120411   9.457   0.845   2.451
 6723WAT     H220412   9.548   0.714   2.419
 6724WAT      O20413   4.518   9.088   8.683
 6724WAT     H120414   4.489   9.127   8.770
 6724WAT     H220415   4.553   9.160   8.624
 6725WAT      O20416   7.311   0.623   9.164
 6725WAT     H120417   7.279   0.604   9.256
 6725WAT     H220418   7.255   0.573   9.098
 6726WAT      O20419   3.859   3.842   9.420
 6726WAT     H120420   3.894   3.751   9.443
 6726WAT     H220421   3.766   3.851   9.455
 6727WAT      O20422   2.543   6.233   7.692
 6727WAT     H120423   2.629   6.192   7.663
 6727WAT     H220424   2.558   6.295   7.768
 6728WAT      O20425   7.736   3.999   1.429
 6728WAT     H120426   7.670   3.938   1.472
 6728WAT     H220427   7.739   3.981   1.331
 6729WAT      O20428   6.573   8.167   0.986
 6729WAT     H120429   6.617   8.093   0.935
 6729WAT     H220430   6.475   8.169   0.965
 6730WAT      O20431   5.126   6.390   5.958
 6730WAT     H120432   5.191   6.323   5.922
 6730WAT     H220433   5.171   6.480   5.961
 6731WAT      O20434   1.275   6.436   4.124
 6731WAT     H120435   1.280   6.510   4.192
 6731WAT     H220436   1.213   6.365   4.158
 6732WAT      O20437   7.829   6.725   1.455
 6732WAT     H120438   7.847   6.692   1.547
 6732WAT     H220439   7.763   6.664   1.410
 6733WAT      O20440   7.993   9.393   2.541
 6733WAT     H120441   7.915   9.455   2.542
 6733WAT     H220442   8.077   9.445   2.528
 6734WAT      O20443   9.796   3.266   1.166
 6734WAT     H120444   9.786   3.294   1.261
 6734WAT     H220445   9.838   3.175   1.163
 6735WAT      O20446   6.984   5.261   5.063
 6735WAT     H120447   7.055   5.198   5.093
 6735WAT     H220448   6.956   5.319   5.140
 6736WAT      O20449   8.488   7.895   2.142
 6736WAT     H120450   8.505   7.948   2.225
 6736WAT     H220451   8.576   7.873   2.099
 6737WAT      O20452   7.440   7.075   6.562
 6737WAT     H120453   7.505   7.151   6.563
 6737WAT     H220454   7.482   6.995   6.606
 6738WAT      O20455   1.913   3.538   9.002
 6738WAT     H120456   1.992   3.511   9.057
 6738WAT     H220457   1.869   3.618   9.042
 6739WAT      O20458   1.212   3.498   6.145
 6739WAT     H120459   1.120   3.511   6.182
 6739WAT     H220460   1.213   3.416   6.088
 6740WAT      O20461   5.711   5.483   3.128
 6740WAT     H120462   5.767   5.456   3.050
 6740WAT     H220463   5.626   5.431   3.127
 6741WAT      O20464   1.848   4.226   3.627
 6741WAT     H120465   1.926   4.281   3.657
 6741WAT     H220466   1.874   4.171   3.547
 6742WAT      O20467   7.933   1.613   7.684
 6742WAT     H120468   7.865   1.540   7.691
 6742WAT     H220469   7.889   1.701   7.706
 6743WAT      O20470   8.511   2.882   4.523
 6743WAT     H120471   8.592   2.939   4.515
 6743WAT     H220472   8.515   2.809   4.455
 6744WAT      O20473   6.838   7.193   1.034
 6744WAT     H120474   6.928   7.194   0.989
 6744WAT     H220475   6.791   7.279   1.014
 6745WAT      O20476   6.519   3.652   1.621
 6745WAT     H120477   6.514   3.613   1.529
 6745WAT     H220478   6.526   3.752   1.614
 6746WAT      O20479   7.650   1.531   5.621
 6746WAT     H120480   7.590   1.463   5.579
 6746WAT     H220481   7.676   1.600   5.553
 6747WAT      O20482   6.013   2.304   7.424
 6747WAT     H120483   5.925   2.325   7.466
 6747WAT     H220484   6.075   2.382   7.433
 6748WAT      O20485   1.522   7.662   8.402
 6748WAT     H120486   1.615   7.628   8.417
 6748WAT     H220487   1.480   7.681   8.490
 6749WAT      O20488   4.446   0.715   3.875
 6749WAT     H120489   4.348   0.734   3.878
 6749WAT     H220490   4.463   0.637   3.815
 6750WAT      O20491   0.378   8.852   4.913
 6750WAT     H120492   0.324   8.796   4.851
 6750WAT     H220493   0.322   8.927   4.949
 6751WAT      O20494   6.629   6.574   3.377
 6751WAT     H120495   6.693   6.626   3.434
 6751WAT     H220496   6.634   6.608   3.283
 6752WAT      O20497   0.930   2.807   5.796
 6752WAT     H120498   0.871   2.858   5.734
 6752WAT     H220499   0.947   2.715   5.760
 6753WAT      O20500   8.878   4.831   3.288
 6753WAT     H120501   8.909   4.738   3.309
 6753WAT     H220502   8.946   4.897   3.322
 6754WAT      O20503   8.038   8.198   0.239
 6754WAT     H120504   7.947   8.239   0.252
 6754WAT     H220505   8.107   8.257   0.280
 6755WAT      O20506   8.616   4.232   9.846
 6755WAT     H120507   8.546   4.169   9.813
 6755WAT     H220508   8.573   4.310   9.891
 6756WAT      O20509   3.911   9.127   2.089
 6756WAT     H120510   3.952   9.106   2.000
 6756WAT     H220511   3.823   9.079   2.096
 6757WAT      O20512   0.147   6.986   7.304
 6757WAT     H120513   0.100   7.023   7.383
 6757WAT     H220514   0.084   6.931   7.249
 6758WAT      O20515   3.667   9.333   6.618
 6758WAT     H120516   3.748   9.376   6.657
 6758WAT     H220517   3.597   9.323   6.689
 6759WAT      O20518   5.224   2.804   6.676
 6759WAT     H120519   5.193   2.888   6.632
 6759WAT     H220520   5.278   2.750   6.612
 6760WAT      O20521   7.739   0.913   4.461
 6760WAT     H120522   7.689   0.834   4.425
 6760WAT     H220523   7.685   0.955   4.535
 6761WAT      O20524   0.862   5.385   8.439
 6761WAT     H120525   0.803   5.466   8.440
 6761WAT     H220526   0.916   5.384   8.355
 6762WAT      O20527   7.812   7.360   4.393
 6762WAT     H120528   7.734   7.343   4.453
 6762WAT     H220529   7.805   7.305   4.311
 6763WAT      O20530   8.380   1.496   8.589
 6763WAT     H120531   8.306   1.558   8.614
 6763WAT     H220532   8.463   1.521   8.640
 6764WAT      O20533   9.060   9.743   7.154
 6764WAT     H120534   9.058   9.687   7.071
 6764WAT     H220535   9.121   9.821   7.139
 6765WAT      O20536   3.592   6.023   6.948
 6765WAT     H120537   3.592   5.961   7.027
 6765WAT     H220538   3.512   6.084   6.954
 6766WAT      O20539   4.348   8.328   2.700
 6766WAT     H120540   4.404   8.395   2.749
 6766WAT     H220541   4.255   8.330   2.736
 6767WAT      O20542   2.602   7.256   1.698
 6767WAT     H120543   2.690   7.302   1.691
 6767WAT     H220544   2.545   7.280   1.620
 6768WAT      O20545   9.448   6.495   7.594
 6768WAT     H120546   9.383   6.560   7.633
 6768WAT     H220547   9.539   6.537   7.590
 6769WAT      O20548   2.289   4.874   0.584
 6769WAT     H120549   2.373   4.890   0.635
 6769WAT     H220550   2.310   4.864   0.487
 6770WAT      O20551   7.216   0.567   5.702
 6770WAT     H120552   7.290   0.522   5.752
 6770WAT     H220553   7.252   0.610   5.620
 6771WAT      O20554   7.869   2.141   3.003
 6771WAT     H120555   7.782   2.179   2.972
 6771WAT     H220556   7.877   2.152   3.102
 6772WAT      O20557   9.263   5.206   8.345
 6772WAT     H120558   9.330   5.247   8.407
 6772WAT     H220559   9.308   5.177   8.261
 6773WAT      O20560   3.043   9.152   8.320
 6773WAT     H120561   3.120   9.205   8.356
 6773WAT     H220562   2.968   9.214   8.298
 6774WAT      O20563   9.152   5.017   1.662
 6774WAT     H120564   9.166   5.087   1.732
 6774WAT     H220565   9.077   5.044   1.602
 6775WAT      O20566   0.995   0.447   1.269
 6775WAT     H120567   0.904   0.461   1.232
 6775WAT     H220568   1.016   0.518   1.335
 6776WAT      O20569   2.049   3.736   7.194
 6776WAT     H120570   1.995   3.666   7.240
 6776WAT     H220571   2.010   3.755   7.104
 6777WAT      O20572   3.504   8.563   8.321
 6777WAT     H120573   3.572   8.501   8.281
 6777WAT     H220574   3.547   8.651   8.342
 6778WAT      O20575   9.747   0.844   8.047
 6778WAT     H120576   9.826   0.898   8.073
 6778WAT     H220577   9.692   0.894   7.980
 6779WAT      O20578   9.194   7.443   2.492
 6779WAT     H120579   9.114   7.389   2.465
 6779WAT     H220580   9.266   7.433   2.422
 6780WAT      O20581   7.120   1.923   5.585
 6780WAT     H120582   7.177   1.872   5.520
 6780WAT     H220583   7.083   1.859   5.653
 6781WAT      O20584   9.799   3.858   6.780
 6781WAT     H120585   9.775   3.942   6.732
 6781WAT     H220586   9.733   3.842   6.854
 6782WAT      O20587   8.615   2.048   5.966
 6782WAT     H120588   8.609   2.109   5.887
 6782WAT     H220589   8.698   2.068   6.017
 6783WAT      O20590   5.952   1.768   8.306
 6783WAT     H120591   5.962   1.779   8.207
 6783WAT     H220592   5.855   1.760   8.329
 6784WAT      O20593   7.928   4.643   8.104
 6784WAT     H120594   7.900   4.594   8.186
 6784WAT     H220595   8.028   4.643   8.098
 6785WAT      O20596   4.776   0.869   7.888
 6785WAT     H120597   4.860   0.921   7.869
 6785WAT     H220598   4.787   0.818   7.973
 6786WAT      O20599   5.243   4.663   2.096
 6786WAT     H120600   5.254   4.590   2.163
 6786WAT     H220601   5.333   4.700   2.072
 6787WAT      O20602   4.440   3.940   6.699
 6787WAT     H120603   4.416   4.012   6.763
 6787WAT     H220604   4.377   3.863   6.711
 6788WAT      O20605   9.795   2.257   7.111
 6788WAT     H120606   9.890   2.278   7.135
 6788WAT     H220607   9.793   2.199   7.029
 6789WAT      O20608   8.069   6.155   6.229
 6789WAT     H120609   8.109   6.083   6.172
 6789WAT     H220610   8.103   6.146   6.322
 6790WAT      O20611   6.231   8.503   8.754
 6790WAT     H120612   6.180   8.570   8.700
 6790WAT     H220613   6.192   8.412   8.740
 6791WAT      O20614   0.053   3.037   8.789
 6791WAT     H120615   0.011   3.055   8.877
 6791WAT     H220616  -0.017   3.012   8.722
 6792WAT      O20617   6.543   4.136   0.034
 6792WAT     H120618   6.504   4.101   0.119
 6792WAT     H220619   6.612   4.206   0.055
 6793WAT      O20620   1.812   0.674   6.394
 6793WAT     H120621   1.740   0.732   6.354
 6793WAT     H220622   1.774   0.625   6.472
 6794WAT      O20623   2.962   8.333   4.932
 6794WAT     H120624   2.907   8.369   5.007
 6794WAT     H220625   2.951   8.233   4.928
 6795WAT      O20626   3.869   3.045   4.524
 6795WAT     H120627   3.847   2.949   4.541
 6795WAT     H220628   3.784   3.096   4.509
 6796WAT      O20629   5.394   1.220   5.000
 6796WAT     H120630   5.474   1.246   5.055
 6796WAT     H220631   5.417   1.230   4.903
 6797WAT      O20632   8.483   0.507   3.285
 6797WAT     H120633   8.458   0.479   3.377
 6797WAT     H220634   8.403   0.501   3.225
 6798WAT      O20635   2.662   9.266   9.421
 6798WAT     H120636   2.567   9.296   9.417
 6798WAT     H220637   2.720   9.342   9.451
 6799WAT      O20638   7.367   7.661   9.710
 6799WAT     H120639   7.277   7.704   9.704
 6799WAT     H220640   7.400   7.639   9.618
 6800WAT      O20641   8.628   7.026   3.000
 6800WAT     H120642   8.690   6.992   3.071
 6800WAT     H220643   8.537   6.987   3.014
 6801WAT      O20644   6.281   8.685   5.266
 6801WAT     H120645   6.298   8.717   5.359
 6801WAT     H220646   6.238   8.757   5.213
 6802WAT      O20647   7.217   1.154   3.770
 6802WAT     H120648   7.140   1.213   3.745
 6802WAT     H220649   7.182   1.064   3.798
 6803WAT      O20650   4.295   3.558   9.372
 6803WAT     H120651   4.220   3.513   9.324
 6803WAT     H220652   4.379   3.550   9.318
 6804WAT      O20653   7.494   4.416   9.757
 6804WAT     H120654   7.510   4.318   9.771
 6804WAT     H220655   7.566   4.468   9.803
 6805WAT      O20656   0.502   0.216   5.016
 6805WAT     H120657   0.519   0.130   4.968
 6805WAT     H220658   0.567   0.226   5.091
 6806WAT      O20659   6.681   2.485   6.409
 6806WAT     H120660   6.764   2.528   6.372
 6806WAT     H220661   6.701   2.446   6.498
 6807WAT      O20662   4.995   6.071   2.382
 6807WAT     H120663   4.903   6.081   2.345
 6807WAT     H220664   4.991   6.075   2.482
 6808WAT      O20665   3.580   6.920   3.721
 6808WAT     H120666   3.651   6.887   3.784
 6808WAT     H220667   3.583   6.866   3.637
 6809WAT      O20668   8.864   8.062   4.787
 6809WAT     H120669   8.847   8.064   4.886
 6809WAT     H220670   8.949   8.013   4.769
 6810WAT      O20671   3.162   2.232   1.503
 6810WAT     H120672   3.114   2.172   1.568
 6810WAT     H220673   3.218   2.176   1.442
 6811WAT      O20674   2.122   4.847   4.274
 6811WAT     H120675   2.105   4.774   4.208
 6811WAT     H220676   2.130   4.809   4.366
 6812WAT      O20677   5.632   8.897   6.563
 6812WAT     H120678   5.597   8.804   6.555
 6812WAT     H220679   5.619   8.929   6.657
 6813WAT      O20680   2.580   4.052   8.240
 6813WAT     H120681   2.587   4.028   8.337
 6813WAT     H220682   2.487   4.081   8.219
 6814WAT      O20683   4.412   4.455   2.727
 6814WAT     H120684   4.333   4.478   2.670
 6814WAT     H220685   4.381   4.404   2.807
 6815WAT      O20686   4.501   6.763   0.903
 6815WAT     H120687   4.515   6.778   1.001
 6815WAT     H220688   4.560   6.690   0.871
 6816WAT      O20689   8.179   3.208   3.540
 6816WAT     H120690   8.085   3.173   3.542
 6816WAT     H220691   8.191   3.275   3.614
 6817WAT      O20692   2.497   1.936   4.501
 6817WAT     H120693   2.489   1.907   4.405
 6817WAT     H220694   2.409   1.926   4.546
 6818WAT      O20695   0.388   4.561   7.910
 6818WAT     H120696   0.344   4.635   7.859
 6818WAT     H220697   0.332   4.536   7.989
 6819WAT      O20698   0.838   7.907   4.201
 6819WAT     H120699   0.824   7.980   4.134
 6819WAT     H220700   0.936   7.893   4.215
 6820WAT      O20701   6.689   2.880   3.412
 6820WAT     H120702   6.656   2.792   3.377
 6820WAT     H220703   6.636   2.954   3.371
 6821WAT      O20704   5.937   6.854   6.389
 6821WAT     H120705   5.930   6.756   6.369
 6821WAT     H220706   6.030   6.886   6.370
 6822WAT      O20707   9.112   3.778   0.932
 6822WAT     H120708   9.059   3.773   0.847
 6822WAT     H220709   9.209   3.774   0.911
 6823WAT      O20710   3.078   1.309   6.290
 6823WAT     H120711   3.164   1.259   6.298
 6823WAT     H220712   3.087   1.398   6.335
 6824WAT      O20713   4.705   6.684   1.920
 6824WAT     H120714   4.728   6.687   2.017
 6824WAT     H220715   4.707   6.777   1.882
 6825WAT      O20716   5.791   0.713   0.833
 6825WAT     H120717   5.877   0.763   0.843
 6825WAT     H220718   5.779   0.686   0.737
 6826WAT      O20719   3.631   4.115   6.531
 6826WAT     H120720   3.627   4.039   6.596
 6826WAT     H220721   3.716   4.166   6.544
 6827WAT      O20722   2.650   4.025   0.945
 6827WAT     H120723   2.702   4.050   0.864
 6827WAT     H220724   2.711   4.017   1.024
 6828WAT      O20725   8.522   5.004   6.572
 6828WAT     H120726   8.528   4.905   6.560
 6828WAT     H220727   8.493   5.025   6.666
 6829WAT      O20728   4.467   8.168   8.336
 6829WAT     H120729   4.425   8.182   8.246
 6829WAT     H220730   4.398   8.178   8.407
 6830WAT      O20731   2.186   3.617   4.894
 6830WAT     H120732   2.160   3.571   4.810
 6830WAT     H220733   2.105   3.634   4.950
 6831WAT      O20734   1.155   4.719   8.342
 6831WAT     H120735   1.067   4.690   8.305
 6831WAT     H220736   1.158   4.819   8.346
 6832WAT      O20737   4.551   5.697   8.684
 6832WAT     H120738   4.593   5.673   8.771
 6832WAT     H220739   4.608   5.663   8.609
 6833WAT      O20740   7.273   5.165   5.187
 6833WAT     H120741   7.205   5.110   5.236
 6833WAT     H220742   7.360   5.114   5.184
 6834WAT      O20743   3.023   0.584   9.411
 6834WAT     H120744   3.037   0.653   9.482
 6834WAT     H220745   3.032   0.627   9.321
 6835WAT      O20746   3.115   9.386   6.689
 6835WAT     H120747   3.192   9.412   6.749
 6835WAT     H220748   3.091   9.291   6.706
 6836WAT      O20749   0.834   8.663   8.640
 6836WAT     H120750   0.901   8.602   8.682
 6836WAT     H220751   0.880   8.728   8.580
 6837WAT      O20752   9.592   8.402   1.638
 6837WAT     H120753   9.665   8.435   1.579
 6837WAT     H220754   9.504   8.427   1.599
 6838WAT      O20755   1.230   5.584   4.890
 6838WAT     H120756   1.217   5.678   4.922
 6838WAT     H220757   1.257   5.585   4.794
 6839WAT      O20758   6.449   4.622   9.265
 6839WAT     H120759   6.475   4.621   9.168
 6839WAT     H220760   6.414   4.532   9.291
 6840WAT      O20761   8.203   9.611   5.910
 6840WAT     H120762   8.149   9.529   5.893
 6840WAT     H220763   8.235   9.612   6.004
 6841WAT      O20764   7.392   7.380   6.656
 6841WAT     H120765   7.346   7.462   6.690
 6841WAT     H220766   7.363   7.301   6.711
 6842WAT      O20767   5.207   1.875   0.355
 6842WAT     H120768   5.296   1.921   0.349
 6842WAT     H220769   5.220   1.784   0.395
 6843WAT      O20770   3.268   3.513   2.733
 6843WAT     H120771   3.234   3.429   2.777
 6843WAT     H220772   3.192   3.577   2.720
 6844WAT      O20773   9.498   1.811   6.660
 6844WAT     H120774   9.474   1.744   6.589
 6844WAT     H220775   9.430   1.884   6.661
 6845WAT      O20776   7.123   8.921   3.185
 6845WAT     H120777   7.205   8.874   3.152
 6845WAT     H220778   7.094   8.880   3.271
 6846WAT      O20779   3.391   7.809   2.285
 6846WAT     H120780   3.430   7.731   2.334
 6846WAT     H220781   3.324   7.855   2.344
 6847WAT      O20782   1.814   5.145   5.676
 6847WAT     H120783   1.865   5.067   5.712
 6847WAT     H220784   1.728   5.114   5.637
 6848WAT      O20785   4.375   1.149   8.210
 6848WAT     H120786   4.372   1.188   8.302
 6848WAT     H220787   4.462   1.100   8.198
 6849WAT      O20788   0.995   7.013   6.996
 6849WAT     H120789   1.074   7.065   6.962
 6849WAT     H220790   0.982   7.032   7.093
 6850WAT      O20791   7.390   8.979   5.986
 6850WAT     H120792   7.337   8.909   6.032
 6850WAT     H220793   7.352   8.996   5.895
 6851WAT      O20794   3.085   4.919   4.857
 6851WAT     H120795   3.080   4.952   4.763
 6851WAT     H220796   2.994   4.919   4.897
 6852WAT      O20797   0.346   5.782   2.802
 6852WAT     H120798   0.246   5.785   2.793
 6852WAT     H220799   0.370   5.732   2.885
 6853WAT      O20800   6.755   6.321   9.424
 6853WAT     H120801   6.804   6.271   9.352
 6853WAT     H220802   6.701   6.395   9.383
 6854WAT      O20803   5.407   2.432   4.082
 6854WAT     H120804   5.384   2.427   3.985
 6854WAT     H220805   5.421   2.339   4.118
 6855WAT      O20806   1.732   7.868   4.822
 6855WAT     H120807   1.719   7.775   4.858
 6855WAT     H220808   1.767   7.926   4.895
 6856WAT      O20809   0.203   1.467   7.278
 6856WAT     H120810   0.299   1.440   7.275
 6856WAT     H220811   0.149   1.396   7.323
 6857WAT      O20812   8.595   8.338   9.728
 6857WAT     H120813   8.617   8.426   9.686
 6857WAT     H220814   8.665   8.271   9.705
 6858WAT      O20815   5.030   6.629   6.969
 6858WAT     H120816   5.031   6.699   6.898
 6858WAT     H220817   5.012   6.539   6.928
 6859WAT      O20818   2.028   0.331   3.995
 6859WAT     H120819   2.101   0.265   4.013
 6859WAT     H220820   1.960   0.290   3.934
 6860WAT      O20821   7.553   4.838   2.892
 6860WAT     H120822   7.461   4.846   2.852
 6860WAT     H220823   7.592   4.749   2.867
 6861WAT      O20824   4.906   5.127   2.738
 6861WAT     H120825   4.830   5.100   2.797
 6861WAT     H220826   4.872   5.145   2.645
 6862WAT      O20827   3.791   9.200   7.698
 6862WAT     H120828   3.846   9.254   7.762
 6862WAT     H220829   3.694   9.214   7.718
 6863WAT      O20830   6.912   4.383   1.584
 6863WAT     H120831   6.892   4.472   1.625
 6863WAT     H220832   6.865   4.311   1.634
 6864WAT      O20833   3.066   0.096   7.719
 6864WAT     H120834   3.039   0.152   7.797
 6864WAT     H220835   3.138   0.032   7.747
 6865WAT      O20836   2.654   6.577   9.866
 6865WAT     H120837   2.745   6.554   9.830
 6865WAT     H220838   2.624   6.664   9.828
 6866WAT      O20839   9.297   2.909   6.108
 6866WAT     H120840   9.339   2.974   6.045
 6866WAT     H220841   9.338   2.919   6.199
 6867WAT      O20842   7.976   0.260   4.655
 6867WAT     H120843   8.070   0.251   4.687
 6867WAT     H220844   7.967   0.345   4.602
 6868WAT      O20845   7.590   9.822   8.194
 6868WAT     H120846   7.541   9.752   8.143
 6868WAT     H220847   7.526   9.869   8.255
 6869WAT      O20848   1.541   6.180   7.149
 6869WAT     H120849   1.527   6.188   7.051
 6869WAT     H220850   1.476   6.239   7.197
 6870WAT      O20851   6.125   6.211   6.484
 6870WAT     H120852   6.039   6.215   6.434
 6870WAT     H220853   6.146   6.117   6.510
 6871WAT      O20854   0.309   0.768   6.328
 6871WAT     H120855   0.227   0.756   6.384
 6871WAT     H220856   0.390   0.766   6.386
 6872WAT      O20857   4.286   0.454   4.087
 6872WAT     H120858   4.229   0.373   4.099
 6872WAT     H220859   4.287   0.480   3.990
 6873WAT      O20860   7.446   5.141   5.488
 6873WAT     H120861   7.468   5.118   5.393
 6873WAT     H220862   7.469   5.237   5.504
 6874WAT      O20863   5.882   0.336   1.684
 6874WAT     H120864   5.814   0.263   1.695
 6874WAT     H220865   5.842   0.410   1.630
 6875WAT      O20866   7.665   8.856   9.789
 6875WAT     H120867   7.661   8.943   9.838
 6875WAT     H220868   7.759   8.838   9.761
 6876WAT      O20869   4.428   6.803   3.164
 6876WAT     H120870   4.399   6.885   3.115
 6876WAT     H220871   4.518   6.819   3.206
 6877WAT      O20872   8.462   0.317   7.661
 6877WAT     H120873   8.424   0.340   7.750
 6877WAT     H220874   8.433   0.225   7.634
 6878WAT      O20875   6.885   6.527   8.555
 6878WAT     H120876   6.882   6.433   8.522
 6878WAT     H220877   6.980   6.554   8.572
 6879WAT      O20878   8.412   4.104   9.743
 6879WAT     H120879   8.433   4.113   9.646
 6879WAT     H220880   8.313   4.110   9.756
 6880WAT      O20881   8.682   2.454   5.748
 6880WAT     H120882   8.667   2.357   5.734
 6880WAT     H220883   8.623   2.506   5.686
 6881WAT      O20884   6.607   3.708   3.284
 6881WAT     H120885   6.554   3.634   3.325
 6881WAT     H220886   6.702   3.679   3.272
 6882WAT      O20887   3.786   4.920   8.500
 6882WAT     H120888   3.831   4.985   8.438
 6882WAT     H220889   3.688   4.917   8.479
 6883WAT      O20890   3.414   0.937   5.570
 6883WAT     H120891   3.425   0.872   5.494
 6883WAT     H220892   3.478   1.013   5.558
 6884WAT      O20893   3.672   2.271   6.462
 6884WAT     H120894   3.632   2.348   6.412
 6884WAT     H220895   3.689   2.196   6.398
 6885WAT      O20896   9.510   1.991   9.807
 6885WAT     H120897   9.514   1.948   9.717
 6885WAT     H220898   9.508   1.920   9.878
 6886WAT      O20899   3.112   0.705   4.205
 6886WAT     H120900   3.102   0.635   4.276
 6886WAT     H220901   3.166   0.781   4.240
 6887WAT      O20902   1.919   5.301   2.696
 6887WAT     H120903   1.922   5.337   2.603
 6887WAT     H220904   1.973   5.359   2.757
 6888WAT      O20905   9.650   2.824   1.528
 6888WAT     H120906   9.609   2.914   1.546
 6888WAT     H220907   9.579   2.759   1.503
 6889WAT      O20908   2.142   4.502   8.880
 6889WAT     H120909   2.093   4.557   8.813
 6889WAT     H220910   2.153   4.555   8.964
 6890WAT      O20911   2.983   4.029   1.532
 6890WAT     H120912   3.064   4.079   1.562
 6890WAT     H220913   3.007   3.966   1.459
 6891WAT      O20914   1.318   7.121   4.919
 6891WAT     H120915   1.285   7.133   5.013
 6891WAT     H220916   1.283   7.196   4.862
 6892WAT      O20917   8.601   6.066   3.202
 6892WAT     H120918   8.680   6.005   3.193
 6892WAT     H220919   8.518   6.011   3.203
 6893WAT      O20920   8.589   8.726   3.471
 6893WAT     H120921   8.568   8.668   3.550
 6893WAT     H220922   8.683   8.709   3.441
 6894WAT      O20923   3.938   6.973   5.807
 6894WAT     H120924   3.998   6.955   5.729
 6894WAT     H220925   3.862   7.031   5.778
 6895WAT      O20926   9.249   0.507   7.489
 6895WAT     H120927   9.267   0.598   7.527
 6895WAT     H220928   9.151   0.487   7.493
 6896WAT      O20929   6.915   6.187   9.598
 6896WAT     H120930   6.844   6.128   9.636
 6896WAT     H220931   6.872   6.263   9.549
 6897WAT      O20932   1.097   9.468   3.996
 6897WAT     H120933   1.152   9.551   3.982
 6897WAT     H220934   1.010   9.492   4.039
 6898WAT      O20935   3.666   6.914   8.623
 6898WAT     H120936   3.738   6.859   8.580
 6898WAT     H220937   3.708   6.985   8.680
 6899WAT      O20938   5.409   1.528   0.585
 6899WAT     H120939   5.403   1.473   0.669
 6899WAT     H220940   5.318   1.537   0.545
 6900WAT      O20941   2.184   9.161   4.649
 6900WAT     H120942   2.274   9.164   4.693
 6900WAT     H220943   2.168   9.247   4.600
 6901WAT      O20944   8.288   4.944   9.646
 6901WAT     H120945   8.278   4.952   9.547
 6901WAT     H220946   8.314   5.033   9.685
 6902WAT      O20947   0.177   4.080   5.494
 6902WAT     H120948   0.144   4.086   5.399
 6902WAT     H220949   0.242   4.004   5.502
 6903WAT      O20950   4.229   4.234   1.687
 6903WAT     H120951   4.302   4.260   1.749
 6903WAT     H220952   4.141   4.242   1.734
 6904WAT      O20953   2.306   0.621   2.952
 6904WAT     H120954   2.337   0.592   2.861
 6904WAT     H220955   2.343   0.712   2.971
 6905WAT      O20956   9.145   4.554   6.767
 6905WAT     H120957   9.058   4.592   6.738
 6905WAT     H220958   9.212   4.564   6.693
 6906WAT      O20959   2.074   2.807   1.172
 6906WAT     H120960   2.027   2.858   1.100
 6906WAT     H220961   2.011   2.792   1.248
 6907WAT      O20962   0.350   9.711   6.571
 6907WAT     H120963   0.306   9.714   6.660
 6907WAT     H220964   0.285   9.677   6.503
 6908WAT      O20965   4.841   9.650   2.827
 6908WAT     H120966   4.871   9.732   2.778
 6908WAT     H220967   4.863   9.569   2.773
 6909WAT      O20968   0.703   7.748   7.851
 6909WAT     H120969   0.731   7.654   7.869
 6909WAT     H220970   0.607   7.759   7.875
 6910WAT      O20971   2.042   9.286   6.059
 6910WAT     H120972   2.091   9.285   6.146
 6910WAT     H220973   1.949   9.251   6.072
 6911WAT      O20974   2.058   6.995   3.721
 6911WAT     H120975   2.141   7.042   3.751
 6911WAT     H220976   2.079   6.942   3.639
 6912WAT      O20977   9.846   6.606   1.225
 6912WAT     H120978   9.848   6.607   1.325
 6912WAT     H220979   9.779   6.674   1.193
 6913WAT      O20980   3.804   9.194   0.569
 6913WAT     H120981   3.903   9.211   0.565
 6913WAT     H220982   3.755   9.279   0.552
 6914WAT      O20983   2.404   9.195   4.792
 6914WAT     H120984   2.439   9.153   4.875
 6914WAT     H220985   2.380   9.291   4.811
 6915WAT      O20986   3.690   5.681   5.157
 6915WAT     H120987   3.759   5.753   5.162
 6915WAT     H220988   3.734   5.592   5.166
 6916WAT      O20989   7.586   0.158   6.333
 6916WAT     H120990   7.595   0.075   6.388
 6916WAT     H220991   7.599   0.135   6.237
 6917WAT      O20992   8.184   0.934   7.898
 6917WAT     H120993   8.253   0.920   7.969
 6917WAT     H220994   8.229   0.954   7.811
 6918WAT      O20995   5.297   9.438   7.024
 6918WAT     H120996   5.266   9.434   6.929
 6918WAT     H220997   5.311   9.533   7.050
 6919WAT      O20998   2.711   2.368   6.291
 6919WAT     H120999   2.679   2.440   6.352
 6919WAT     H221000   2.723   2.404   6.199
 6920WAT      O21001   2.104   9.597   4.594
 6920WAT     H121002   2.125   9.619   4.690
 6920WAT     H221003   2.006   9.606   4.578
 6921WAT      O21004   7.898   5.479   7.971
 6921WAT     H121005   7.895   5.380   7.984
 6921WAT     H221006   7.805   5.514   7.957
 6922WAT      O21007   5.069   6.087   7.203
 6922WAT     H121008   5.010   6.007   7.204
 6922WAT     H221009   5.148   6.070   7.144
 6923WAT      O21010   3.575   4.435   7.076
 6923WAT     H121011   3.673   4.439   7.055
 6923WAT     H221012   3.523   4.459   6.994
 6924WAT      O21013   5.792   5.383   0.778
 6924WAT     H121014   5.830   5.413   0.865
 6924WAT     H221015   5.734   5.455   0.740
 6925WAT      O21016   2.745   6.635   1.669
 6925WAT     H121017   2.797   6.688   1.736
 6925WAT     H221018   2.649   6.662   1.672
 6926WAT      O21019   2.067   3.984   1.854
 6926WAT     H121020   1.994   3.972   1.787
 6926WAT     H221021   2.140   4.041   1.815
 6927WAT      O21022   4.699   1.630   5.908
 6927WAT     H121023   4.798   1.637   5.919
 6927WAT     H221024   4.677   1.557   5.843
 6928WAT      O21025   8.864   4.091   1.526
 6928WAT     H121026   8.937   4.080   1.594
 6928WAT     H221027   8.830   4.002   1.499
 6929WAT      O21028   9.667   1.828   1.553
 6929WAT     H121029   9.724   1.761   1.505
 6929WAT     H221030   9.645   1.793   1.644
 6930WAT      O21031   1.437   2.473   6.007
 6930WAT     H121032   1.349   2.498   5.966
 6930WAT     H221033   1.463   2.543   6.073
 6931WAT      O21034   8.256   7.295   9.624
 6931WAT     H121035   8.349   7.259   9.624
 6931WAT     H221036   8.192   7.222   9.649
 6932WAT      O21037   4.420   1.429   8.732
 6932WAT     H121038   4.402   1.352   8.792
 6932WAT     H221039   4.518   1.451   8.735
 6933WAT      O21040   2.259   5.621   0.613
 6933WAT     H121041   2.303   5.561   0.680
 6933WAT     H221042   2.224   5.567   0.537
 6934WAT      O21043   5.952   7.162   2.077
 6934WAT     H121044   5.859   7.132   2.098
 6934WAT     H221045   6.007   7.160   2.160
 6935WAT      O21046   8.463   6.713   9.324
 6935WAT     H121047   8.387   6.654   9.351
 6935WAT     H221048   8.465   6.793   9.383
 6936WAT      O21049   0.376   7.794   0.829
 6936WAT     H121050   0.472   7.821   0.829
 6936WAT     H221051   0.322   7.864   0.876
 6937WAT      O21052   1.836   8.183   0.560
 6937WAT     H121053   1.847   8.189   0.461
 6937WAT     H221054   1.908   8.238   0.604
 6938WAT      O21055   6.813   5.214   6.522
 6938WAT     H121056   6.743   5.242   6.587
 6938WAT     H221057   6.903   5.245   6.554
 6939WAT      O21058   3.085   1.101   5.049
 6939WAT     H121059   2.992   1.069   5.033
 6939WAT     H221060   3.121   1.061   5.133
 6940WAT      O21061   2.255   4.882   5.075
 6940WAT     H121062   2.348   4.855   5.050
 6940WAT     H221063   2.259   4.957   5.141
 6941WAT      O21064   2.274   2.398   1.077
 6941WAT     H121065   2.180   2.387   1.043
 6941WAT     H221066   2.283   2.487   1.122
 6942WAT      O21067   6.013   4.650   7.997
 6942WAT     H121068   5.988   4.575   7.936
 6942WAT     H221069   6.112   4.664   7.994
 6943WAT      O21070   0.129   0.427   1.060
 6943WAT     H121071   0.044   0.428   1.008
 6943WAT     H221072   0.184   0.348   1.032
 6944WAT      O21073   7.099   5.467   3.917
 6944WAT     H121074   7.024   5.506   3.970
 6944WAT     H221075   7.106   5.516   3.830
 6945WAT      O21076   9.404   8.855   9.782
 6945WAT     H121077   9.426   8.949   9.808
 6945WAT     H221078   9.308   8.837   9.802
 6946WAT      O21079   8.648   0.279   3.911
 6946WAT     H121080   8.621   0.183   3.906
 6946WAT     H221081   8.624   0.316   4.000
 6947WAT      O21082   8.585   5.262   4.945
 6947WAT     H121083   8.606   5.348   4.991
 6947WAT     H221084   8.608   5.186   5.005
 6948WAT      O21085   4.006   5.276   2.685
 6948WAT     H121086   4.012   5.297   2.587
 6948WAT     H221087   4.098   5.273   2.724
 6949WAT      O21088   6.172   9.641   8.911
 6949WAT     H121089   6.197   9.714   8.847
 6949WAT     H221090   6.242   9.636   8.983
 6950WAT      O21091   4.580   1.678   7.619
 6950WAT     H121092   4.527   1.615   7.675
 6950WAT     H221093   4.544   1.679   7.526
 6951WAT      O21094   2.132   8.380   3.949
 6951WAT     H121095   2.217   8.367   3.898
 6951WAT     H221096   2.071   8.303   3.932
 6952WAT      O21097   6.786   2.052   2.492
 6952WAT     H121098   6.837   2.056   2.406
 6952WAT     H221099   6.735   2.136   2.504
 6953WAT      O21100   3.675   4.692   6.610
 6953WAT     H121101   3.628   4.637   6.541
 6953WAT     H221102   3.771   4.664   6.614
 6954WAT      O21103   1.709   2.074   9.246
 6954WAT     H121104   1.668   2.138   9.311
 6954WAT     H221105   1.723   2.120   9.158
 6955WAT      O21106   4.959   1.924   5.971
 6955WAT     H121107   4.969   1.934   6.070
 6955WAT     H221108   5.043   1.954   5.926
 6956WAT      O21109   7.100   8.364   9.744
 6956WAT     H121110   7.059   8.328   9.828
 6956WAT     H221111   7.177   8.306   9.717
 6957WAT      O21112   1.470   4.749   1.236
 6957WAT     H121113   1.478   4.683   1.311
 6957WAT     H221114   1.451   4.700   1.150
 6958WAT      O21115   2.636   4.441   3.715
 6958WAT     H121116   2.575   4.409   3.643
 6958WAT     H221117   2.730   4.419   3.692
 6959WAT      O21118   3.307   6.439   2.250
 6959WAT     H121119   3.312   6.402   2.158
 6959WAT     H221120   3.258   6.526   2.249
 6960WAT      O21121   4.986   8.788   2.832
 6960WAT     H121122   4.907   8.847   2.816
 6960WAT     H221123   5.069   8.833   2.798
 6961WAT      O21124   7.419   6.490   2.276
 6961WAT     H121125   7.489   6.560   2.263
 6961WAT     H221126   7.461   6.406   2.312
 6962WAT      O21127   3.104   7.250   1.632
 6962WAT     H121128   3.175   7.215   1.571
 6962WAT     H221129   3.145   7.314   1.697
 6963WAT      O21130   3.599   4.409   0.947
 6963WAT     H121131   3.684   4.376   0.988
 6963WAT     H221132   3.584   4.362   0.860
 6964WAT      O21133   4.448   2.269   0.189
 6964WAT     H121134   4.437   2.174   0.158
 6964WAT     H221135   4.361   2.317   0.180
 6965WAT      O21136   6.933   0.948   0.209
 6965WAT     H121137   6.968   0.860   0.243
 6965WAT     H221138   6.877   0.991   0.279
 6966WAT      O21139   0.956   4.838   2.391
 6966WAT     H121140   1.025   4.847   2.463
 6966WAT     H221141   0.965   4.914   2.327
 6967WAT      O21142   4.272   2.279   8.684
 6967WAT     H121143   4.305   2.369   8.711
 6967WAT     H221144   4.172   2.278   8.687
 6968WAT      O21145   3.475   4.473   5.301
 6968WAT     H121146   3.433   4.558   5.333
 6968WAT     H221147   3.559   4.494   5.252
 6969WAT      O21148   1.197   8.611   1.362
 6969WAT     H121149   1.130   8.681   1.339
 6969WAT     H221150   1.158   8.521   1.346
 6970WAT      O21151   6.147   2.921   0.551
 6970WAT     H121152   6.201   2.859   0.609
 6970WAT     H221153   6.098   2.986   0.609
 6971WAT      O21154   6.323   2.521   0.567
 6971WAT     H121155   6.254   2.463   0.523
 6971WAT     H221156   6.278   2.599   0.610
 6972WAT      O21157   4.441   2.124   9.115
 6972WAT     H121158   4.494   2.202   9.147
 6972WAT     H221159   4.498   2.041   9.119
 6973WAT      O21160   9.772   5.532   1.505
 6973WAT     H121161   9.844   5.493   1.447
 6973WAT     H221162   9.685   5.487   1.485
 6974WAT      O21163   0.448   4.494   1.823
 6974WAT     H121164   0.547   4.507   1.819
 6974WAT     H221165   0.408   4.562   1.886
 6975WAT      O21166   7.888   2.339   3.253
 6975WAT     H121167   7.866   2.394   3.333
 6975WAT     H221168   7.946   2.262   3.281
 6976WAT      O21169   0.559   0.188   6.265
 6976WAT     H121170   0.547   0.089   6.270
 6976WAT     H221171   0.499   0.225   6.194
 6977WAT      O21172   1.062   9.773   9.874
 6977WAT     H121173   1.160   9.760   9.856
 6977WAT     H221174   1.025   9.839   9.810
 6978WAT      O21175   6.405   9.812   8.442
 6978WAT     H121176   6.306   9.827   8.436
 6978WAT     H221177   6.437   9.836   8.534
 6979WAT      O21178   8.625   0.762   9.600
 6979WAT     H121179   8.660   0.846   9.641
 6979WAT     H221180   8.701   0.710   9.561
 6980WAT      O21181   1.707   3.084   2.702
 6980WAT     H121182   1.610   3.062   2.700
 6980WAT     H221183   1.757   3.012   2.749
 6981WAT      O21184   1.206   8.974   9.068
 6981WAT     H121185   1.298   8.946   9.096
 6981WAT     H221186   1.151   8.892   9.050
 6982WAT      O21187   0.695   1.678   1.751
 6982WAT     H121188   0.789   1.672   1.717
 6982WAT     H221189   0.677   1.602   1.813
 6983WAT      O21190   1.711   6.037   4.145
 6983WAT     H121191   1.804   6.014   4.116
 6983WAT     H221192   1.647   6.017   4.070
 6984WAT      O21193   2.021   0.683   2.649
 6984WAT     H121194   2.056   0.683   2.743
 6984WAT     H221195   2.071   0.616   2.595
 6985WAT      O21196   7.372   6.428   8.728
 6985WAT     H121197   7.413   6.485   8.657
 6985WAT     H221198   7.305   6.366   8.687
 6986WAT      O21199   4.142   7.629   9.751
 6986WAT     H121200   4.076   7.672   9.813
 6986WAT     H221201   4.099   7.613   9.662
 6987WAT      O21202   5.714   5.722   9.668
 6987WAT     H121203   5.767   5.714   9.583
 6987WAT     H221204   5.711   5.633   9.713
 6988WAT      O21205   3.954   3.715   5.149
 6988WAT     H121206   3.926   3.713   5.245
 6988WAT     H221207   3.911   3.792   5.103
 6989WAT      O21208   7.771   4.032   7.190
 6989WAT     H121209   7.828   4.087   7.129
 6989WAT     H221210   7.735   3.954   7.141
 6990WAT      O21211   8.145   3.286   5.445
 6990WAT     H121212   8.244   3.288   5.429
 6990WAT     H221213   8.115   3.191   5.454
 6991WAT      O21214   6.151   3.662   4.958
 6991WAT     H121215   6.204   3.667   5.043
 6991WAT     H221216   6.078   3.730   4.960
 6992WAT      O21217   5.354   6.526   6.765
 6992WAT     H121218   5.409   6.456   6.718
 6992WAT     H221219   5.340   6.499   6.860
 6993WAT      O21220   3.646   1.652   6.321
 6993WAT     H121221   3.584   1.726   6.346
 6993WAT     H221222   3.595   1.583   6.269
 6994WAT      O21223   7.188   0.352   3.961
 6994WAT     H121224   7.259   0.294   4.001
 6994WAT     H221225   7.117   0.295   3.921
 6995WAT      O21226   8.091   1.255   3.695
 6995WAT     H121227   8.142   1.283   3.776
 6995WAT     H221228   8.127   1.303   3.615
 6996WAT      O21229   9.212   2.457   5.647
 6996WAT     H121230   9.114   2.473   5.658
 6996WAT     H221231   9.263   2.521   5.705
 6997WAT      O21232   9.284   0.724   1.897
 6997WAT     H121233   9.194   0.705   1.859
 6997WAT     H221234   9.277   0.736   1.996
 6998WAT      O21235   1.117   5.756   9.553
 6998WAT     H121236   1.049   5.747   9.480
 6998WAT     H221237   1.099   5.687   9.623
 6999WAT      O21238   1.060   4.183   5.123
 6999WAT     H121239   1.009   4.127   5.058
 6999WAT     H221240   1.157   4.158   5.119
 7000WAT      O21241   4.631   9.617   3.367
 7000WAT     H121242   4.717   9.566   3.369
 7000WAT     H221243   4.643   9.704   3.414
 7001WAT      O21244   5.510   7.966   3.503
 7001WAT     H121245   5.589   8.023   3.482
 7001WAT     H221246   5.540   7.883   3.551
 7002WAT      O21247   2.953   5.073   3.311
 7002WAT     H121248   2.956   5.124   3.225
 7002WAT     H221249   3.010   5.119   3.379
 7003WAT      O21250   0.967   0.665   4.294
 7003WAT     H121251   0.992   0.761   4.279
 7003WAT     H221252   0.918   0.630   4.215
 7004WAT      O21253   8.291   0.411   4.608
 7004WAT     H121254   8.288   0.330   4.666
 7004WAT     H221255   8.198   0.435   4.580
 7005WAT      O21256   9.799   4.085   6.353
 7005WAT     H121257   9.745   4.024   6.295
 7005WAT     H221258   9.811   4.173   6.306
 7006WAT      O21259   8.304   5.810   1.431
 7006WAT     H121260   8.383   5.854   1.473
 7006WAT     H221261   8.326   5.783   1.338
 7007WAT      O21262   5.327   6.857   9.247
 7007WAT     H121263   5.382   6.839   9.166
 7007WAT     H221264   5.288   6.771   9.281
 7008WAT      O21265   3.148   5.839   9.471
 7008WAT     H121266   3.244   5.843   9.444
 7008WAT     H221267   3.123   5.922   9.520
 7009WAT      O21268   9.857   6.122   0.096
 7009WAT     H121269   9.786   6.135   0.027
 7009WAT     H221270   9.944   6.102   0.050
 7010WAT      O21271   9.147   8.299   3.924
 7010WAT     H121272   9.104   8.209   3.921
 7010WAT     H221273   9.156   8.329   4.019
 7011WAT      O21274   2.786   2.082   7.952
 7011WAT     H121275   2.733   2.013   8.002
 7011WAT     H221276   2.880   2.083   7.987
 7012WAT      O21277   4.053   3.442   5.603
 7012WAT     H121278   3.959   3.471   5.589
 7012WAT     H221279   4.100   3.439   5.514
 7013WAT      O21280   7.990   3.298   1.679
 7013WAT     H121281   8.013   3.390   1.645
 7013WAT     H221282   8.057   3.232   1.645
 7014WAT      O21283   8.687   0.192   1.077
 7014WAT     H121284   8.673   0.093   1.083
 7014WAT     H221285   8.702   0.218   0.982
 7015WAT      O21286   8.172   2.391   0.118
 7015WAT     H121287   8.164   2.491   0.122
 7015WAT     H221288   8.082   2.351   0.101
 7016WAT      O21289   5.204   0.839   3.031
 7016WAT     H121290   5.135   0.806   2.967
 7016WAT     H221291   5.159   0.888   3.106
 7017WAT      O21292   4.348   1.328   3.346
 7017WAT     H121293   4.297   1.400   3.300
 7017WAT     H221294   4.446   1.345   3.335
 7018WAT      O21295   8.818   4.343   7.008
 7018WAT     H121296   8.913   4.312   7.000
 7018WAT     H221297   8.782   4.319   7.098
 7019WAT      O21298   6.437   4.816   4.723
 7019WAT     H121299   6.346   4.776   4.714
 7019WAT     H221300   6.504   4.743   4.732
 7020WAT      O21301   3.532   3.278   4.345
 7020WAT     H121302   3.627   3.310   4.346
 7020WAT     H221303   3.523   3.198   4.405
 7021WAT      O21304   2.513   9.530   2.942
 7021WAT     H121305   2.501   9.613   2.997
 7021WAT     H221306   2.433   9.517   2.884
 7022WAT      O21307   0.623   3.220   8.895
 7022WAT     H121308   0.598   3.273   8.976
 7022WAT     H221309   0.705   3.259   8.853
 7023WAT      O21310   5.580   8.618   2.994
 7023WAT     H121311   5.575   8.519   3.007
 7023WAT     H221312   5.643   8.639   2.919
 7024WAT      O21313   5.103   4.073   6.781
 7024WAT     H121314   5.163   4.106   6.854
 7024WAT     H221315   5.046   3.999   6.817
 7025WAT      O21316   2.479   1.888   4.237
 7025WAT     H121317   2.419   1.964   4.213
 7025WAT     H221318   2.463   1.812   4.174
 7026WAT      O21319   9.263   3.720   1.277
 7026WAT     H121320   9.311   3.636   1.251
 7026WAT     H221321   9.249   3.777   1.197
 7027WAT      O21322   1.360   5.569   3.947
 7027WAT     H121323   1.451   5.605   3.971
 7027WAT     H221324   1.352   5.563   3.848
 7028WAT      O21325   9.448   3.331   2.936
 7028WAT     H121326   9.503   3.299   2.859
 7028WAT     H221327   9.443   3.431   2.935
 7029WAT      O21328   6.002   3.554   7.653
 7029WAT     H121329   6.011   3.475   7.592
 7029WAT     H221330   6.061   3.628   7.620
 7030WAT      O21331   3.224   4.241   8.653
 7030WAT     H121332   3.187   4.203   8.569
 7030WAT     H221333   3.254   4.167   8.713
 7031WAT      O21334   6.726   4.347   1.226
 7031WAT     H121335   6.722   4.395   1.138
 7031WAT     H221336   6.812   4.296   1.232
 7032WAT      O21337   6.199   2.880   7.078
 7032WAT     H121338   6.161   2.885   6.985
 7032WAT     H221339   6.298   2.868   7.073
 7033WAT      O21340   4.048   2.984   6.664
 7033WAT     H121341   3.961   2.934   6.656
 7033WAT     H221342   4.110   2.933   6.724
 7034WAT      O21343   8.901   6.996   3.545
 7034WAT     H121344   8.863   6.908   3.514
 7034WAT     H221345   8.851   7.071   3.502
 7035WAT      O21346   9.438   1.097   5.485
 7035WAT     H121347   9.400   1.178   5.440
 7035WAT     H221348   9.524   1.122   5.530
 7036WAT      O21349   8.670   3.057   0.576
 7036WAT     H121350   8.583   3.009   0.563
 7036WAT     H221351   8.724   3.010   0.647
 7037WAT      O21352   4.412   0.719   7.748
 7037WAT     H121353   4.499   0.672   7.760
 7037WAT     H221354   4.338   0.663   7.784
 7038WAT      O21355   0.553   3.586   8.664
 7038WAT     H121356   0.506   3.553   8.583
 7038WAT     H221357   0.500   3.564   8.746
 7039WAT      O21358   9.088   0.813   6.570
 7039WAT     H121359   9.010   0.851   6.620
 7039WAT     H221360   9.101   0.717   6.596
 7040WAT      O21361   3.994   9.430   5.633
 7040WAT     H121362   4.063   9.487   5.589
 7040WAT     H221363   4.038   9.358   5.685
 7041WAT      O21364   6.617   4.710   2.682
 7041WAT     H121365   6.646   4.727   2.776
 7041WAT     H221366   6.519   4.729   2.673
 7042WAT      O21367   8.053   4.486   9.253
 7042WAT     H121368   7.991   4.444   9.186
 7042WAT     H221369   8.113   4.551   9.207
 7043WAT      O21370   3.743   8.279   8.270
 7043WAT     H121371   3.833   8.292   8.230
 7043WAT     H221372   3.686   8.224   8.209
 7044WAT      O21373   8.841   6.893   6.381
 7044WAT     H121374   8.776   6.966   6.399
 7044WAT     H221375   8.910   6.891   6.454
 7045WAT      O21376   4.429   2.104   7.829
 7045WAT     H121377   4.503   2.169   7.847
 7045WAT     H221378   4.444   2.061   7.740
 7046WAT      O21379   8.331   8.134   7.786
 7046WAT     H121380   8.298   8.217   7.741
 7046WAT     H221381   8.410   8.098   7.738
 7047WAT      O21382   2.169   5.245   7.010
 7047WAT     H121383   2.150   5.185   6.932
 7047WAT     H221384   2.199   5.334   6.976
 7048WAT      O21385   2.015   0.099   3.146
 7048WAT     H121386   2.038   0.058   3.233
 7048WAT     H221387   2.089   0.159   3.116
 7049WAT      O21388   5.353   8.369   8.089
 7049WAT     H121389   5.390   8.353   8.180
 7049WAT     H221390   5.261   8.329   8.082
 7050WAT      O21391   6.462   8.576   8.470
 7050WAT     H121392   6.406   8.652   8.438
 7050WAT     H221393   6.553   8.609   8.495
 7051WAT      O21394   1.471   9.088   9.827
 7051WAT     H121395   1.465   9.134   9.739
 7051WAT     H221396   1.405   9.130   9.891
 7052WAT      O21397   6.290   4.670   3.310
 7052WAT     H121398   6.292   4.571   3.300
 7052WAT     H221399   6.341   4.697   3.391
 7053WAT      O21400   3.121   2.267   0.918
 7053WAT     H121401   3.130   2.348   0.975
 7053WAT     H221402   3.201   2.260   0.858
 7054WAT      O21403   3.830   7.930   1.149
 7054WAT     H121404   3.797   7.919   1.243
 7054WAT     H221405   3.920   7.973   1.149
 7055WAT      O21406   5.831   8.590   7.117
 7055WAT     H121407   5.763   8.654   7.082
 7055WAT     H221408   5.881   8.632   7.193
 7056WAT      O21409   8.999   7.122   0.404
 7056WAT     H121410   8.951   7.196   0.452
 7056WAT     H221411   9.041   7.158   0.321
 7057WAT      O21412   0.837   4.145   7.905
 7057WAT     H121413   0.925   4.148   7.856
 7057WAT     H221414   0.844   4.083   7.983
 7058WAT      O21415   1.978   6.476   9.049
 7058WAT     H121416   2.014   6.556   9.001
 7058WAT     H221417   1.920   6.424   8.987
 7059WAT      O21418   5.399   5.908   4.941
 7059WAT     H121419   5.321   5.966   4.965
 7059WAT     H221420   5.432   5.931   4.849
 7060WAT      O21421   8.303   4.775   0.567
 7060WAT     H121422   8.223   4.833   0.585
 7060WAT     H221423   8.360   4.816   0.496
 7061WAT      O21424   5.303   9.770   7.947
 7061WAT     H121425   5.328   9.781   7.851
 7061WAT     H221426   5.236   9.839   7.972
 7062WAT      O21427   1.040   4.123   1.604
 7062WAT     H121428   1.092   4.085   1.528
 7062WAT     H221429   1.034   4.055   1.677
 7063WAT      O21430   4.528   3.792   9.368
 7063WAT     H121431   4.587   3.840   9.304
 7063WAT     H221432   4.505   3.702   9.331
 7064WAT      O21433   6.451   5.728   9.510
 7064WAT     H121434   6.408   5.813   9.541
 7064WAT     H221435   6.457   5.664   9.587
 7065WAT      O21436   8.649   3.133   6.315
 7065WAT     H121437   8.706   3.211   6.287
 7065WAT     H221438   8.554   3.162   6.317
 7066WAT      O21439   3.985   7.681   7.498
 7066WAT     H121440   3.982   7.778   7.474
 7066WAT     H221441   3.906   7.658   7.554
 7067WAT      O21442   0.817   2.525   1.104
 7067WAT     H121443   0.775   2.474   1.179
 7067WAT     H221444   0.747   2.549   1.037
 7068WAT      O21445   9.009   0.880   0.551
 7068WAT     H121446   8.934   0.934   0.590
 7068WAT     H221447   9.013   0.894   0.452
 7069WAT      O21448   8.505   2.683   2.588
 7069WAT     H121449   8.458   2.606   2.631
 7069WAT     H221450   8.548   2.740   2.658
 7070WAT      O21451   9.097   1.813   8.210
 7070WAT     H121452   9.178   1.760   8.237
 7070WAT     H221453   9.065   1.866   8.289
 7071WAT      O21454   0.284   2.367   6.480
 7071WAT     H121455   0.230   2.292   6.518
 7071WAT     H221456   0.360   2.330   6.426
 7072WAT      O21457   8.436   9.760   0.667
 7072WAT     H121458   8.404   9.853   0.684
 7072WAT     H221459   8.375   9.695   0.712
 7073WAT      O21460   2.023   8.348   8.975
 7073WAT     H121461   2.065   8.435   8.953
 7073WAT     H221462   1.924   8.356   8.967
 7074WAT      O21463   1.185   8.408   9.127
 7074WAT     H121464   1.168   8.504   9.148
 7074WAT     H221465   1.150   8.351   9.202
 7075WAT      O21466   7.007   6.174   8.880
 7075WAT     H121467   7.072   6.245   8.906
 7075WAT     H221468   7.042   6.084   8.909
 7076WAT      O21469   0.950   9.542   6.865
 7076WAT     H121470   0.974   9.446   6.848
 7076WAT     H221471   0.938   9.556   6.963
 7077WAT      O21472   3.634   7.926   1.639
 7077WAT     H121473   3.632   8.020   1.672
 7077WAT     H221474   3.556   7.875   1.675
 7078WAT      O21475   7.956   6.771   3.470
 7078WAT     H121476   7.875   6.713   3.456
 7078WAT     H221477   7.944   6.857   3.420
 7079WAT      O21478   4.755   1.114   5.864
 7079WAT     H121479   4.661   1.131   5.895
 7079WAT     H221480   4.754   1.086   5.768
 7080WAT      O21481   0.794   8.512   0.098
 7080WAT     H121482   0.711   8.546   0.142
 7080WAT     H221483   0.787   8.413   0.086
 7081WAT      O21484   0.967   7.504   5.561
 7081WAT     H121485   0.903   7.578   5.582
 7081WAT     H221486   1.025   7.486   5.641
 7082WAT      O21487   4.302   8.607   6.218
 7082WAT     H121488   4.311   8.622   6.317
 7082WAT     H221489   4.230   8.666   6.182
 7083WAT      O21490   3.753   0.115   9.331
 7083WAT     H121491   3.844   0.099   9.368
 7083WAT     H221492   3.753   0.095   9.233
 7084WAT      O21493   9.097   5.755   3.105
 7084WAT     H121494   9.028   5.749   3.177
 7084WAT     H221495   9.153   5.673   3.106
 7085WAT      O21496   5.680   0.702   2.935
 7085WAT     H121497   5.606   0.711   3.001
 7085WAT     H221498   5.714   0.793   2.909
 7086WAT      O21499   5.082   5.322   1.289
 7086WAT     H121500   5.124   5.242   1.332
 7086WAT     H221501   5.107   5.324   1.192
 7087WAT      O21502   3.354   1.707   3.486
 7087WAT     H121503   3.410   1.789   3.488
 7087WAT     H221504   3.384   1.644   3.558
 7088WAT      O21505   5.987   7.921   7.444
 7088WAT     H121506   5.981   8.004   7.389
 7088WAT     H221507   5.899   7.873   7.441
 7089WAT      O21508   1.456   3.562   9.836
 7089WAT     H121509   1.469   3.515   9.748
 7089WAT     H221510   1.516   3.642   9.839
 7090WAT      O21511   6.074   5.788   5.025
 7090WAT     H121512   6.066   5.731   4.943
 7090WAT     H221513   6.108   5.733   5.101
 7091WAT      O21514   5.962   6.252   9.203
 7091WAT     H121515   6.055   6.254   9.165
 7091WAT     H221516   5.958   6.186   9.278
 7092WAT      O21517   5.948   2.930   8.395
 7092WAT     H121518   5.892   2.981   8.460
 7092WAT     H221519   6.043   2.964   8.399
 7093WAT      O21520   5.308   5.105   9.705
 7093WAT     H121521   5.380   5.163   9.742
 7093WAT     H221522   5.219   5.149   9.718
 7094WAT      O21523   9.546   3.436   5.812
 7094WAT     H121524   9.513   3.359   5.868
 7094WAT     H221525   9.477   3.457   5.743
 7095WAT      O21526   3.070   7.270   2.901
 7095WAT     H121527   3.011   7.243   2.825
 7095WAT     H221528   3.013   7.293   2.980
 7096WAT      O21529   8.819   8.196   0.933
 7096WAT     H121530   8.724   8.227   0.926
 7096WAT     H221531   8.845   8.148   0.849
 7097WAT      O21532   9.016   1.015   5.003
 7097WAT     H121533   9.102   1.027   5.053
 7097WAT     H221534   8.945   0.982   5.064
 7098WAT      O21535   5.347   1.255   6.789
 7098WAT     H121536   5.289   1.175   6.777
 7098WAT     H221537   5.298   1.325   6.841
 7099WAT      O21538   1.700   9.831   0.395
 7099WAT     H121539   1.644   9.830   0.478
 7099WAT     H221540   1.672   9.756   0.335
 7100WAT      O21541   8.149   8.801   1.168
 7100WAT     H121542   8.109   8.709   1.162
 7100WAT     H221543   8.207   8.806   1.249
 7101WAT      O21544   2.086   9.818   8.751
 7101WAT     H121545   2.028   9.756   8.804
 7101WAT     H221546   2.157   9.856   8.810
 7102WAT      O21547   7.365   0.927   6.564
 7102WAT     H121548   7.311   0.984   6.503
 7102WAT     H221549   7.447   0.895   6.517
 7103WAT      O21550   3.006   1.194   7.300
 7103WAT     H121551   3.046   1.103   7.290
 7103WAT     H221552   2.967   1.204   7.391
 7104WAT      O21553   4.504   3.095   4.466
 7104WAT     H121554   4.531   3.098   4.563
 7104WAT     H221555   4.511   3.187   4.428
 7105WAT      O21556   2.026   6.923   0.067
 7105WAT     H121557   2.050   6.978  -0.013
 7105WAT     H221558   2.033   6.978   0.150
 7106WAT      O21559   7.529   6.566   6.043
 7106WAT     H121560   7.551   6.591   5.949
 7106WAT     H221561   7.430   6.553   6.052
 7107WAT      O21562   4.323   8.296   6.893
 7107WAT     H121563   4.366   8.234   6.958
 7107WAT     H221564   4.393   8.346   6.843
 7108WAT      O21565   1.934   0.810   9.427
 7108WAT     H121566   1.837   0.789   9.437
 7108WAT     H221567   1.984   0.727   9.401
 7109WAT      O21568   1.470   0.683   0.053
 7109WAT     H121569   1.520   0.628   0.120
 7109WAT     H221570   1.372   0.672   0.066
 7110WAT      O21571   0.557   6.224   2.369
 7110WAT     H121572   0.509   6.162   2.307
 7110WAT     H221573   0.602   6.170   2.441
 7111WAT      O21574   1.469   0.775   6.835
 7111WAT     H121575   1.399   0.744   6.771
 7111WAT     H221576   1.544   0.818   6.785
 7112WAT      O21577   1.658   7.380   8.170
 7112WAT     H121578   1.572   7.334   8.146
 7112WAT     H221579   1.705   7.409   8.086
 7113WAT      O21580   4.906   0.940   6.726
 7113WAT     H121581   4.975   0.874   6.698
 7113WAT     H221582   4.951   1.027   6.749
 7114WAT      O21583   8.119   7.457   6.518
 7114WAT     H121584   8.158   7.378   6.565
 7114WAT     H221585   8.171   7.539   6.541
 7115WAT      O21586   9.023   8.451   0.718
 7115WAT     H121587   9.063   8.359   0.723
 7115WAT     H221588   9.019   8.490   0.809
 7116WAT      O21589   5.732   9.419   5.330
 7116WAT     H121590   5.750   9.496   5.391
 7116WAT     H221591   5.649   9.371   5.360
 7117WAT      O21592   7.577   5.824   3.756
 7117WAT     H121593   7.590   5.744   3.814
 7117WAT     H221594   7.497   5.809   3.696
 7118WAT      O21595   7.304   1.283   0.956
 7118WAT     H121596   7.310   1.204   0.894
 7118WAT     H221597   7.221   1.277   1.010
 7119WAT      O21598   7.624   4.950   0.552
 7119WAT     H121599   7.594   4.855   0.556
 7119WAT     H221600   7.642   4.975   0.457
 7120WAT      O21601   5.568   3.355   9.190
 7120WAT     H121602   5.599   3.449   9.175
 7120WAT     H221603   5.538   3.344   9.284
 7121WAT      O21604   1.556   9.031   7.786
 7121WAT     H121605   1.552   9.049   7.885
 7121WAT     H221606   1.583   8.936   7.771
 7122WAT      O21607   4.615   0.759   2.184
 7122WAT     H121608   4.527   0.743   2.228
 7122WAT     H221609   4.651   0.848   2.212
 7123WAT      O21610   7.972   5.110   2.178
 7123WAT     H121611   7.888   5.060   2.156
 7123WAT     H221612   7.965   5.204   2.145
 7124WAT      O21613   9.324   5.808   2.729
 7124WAT     H121614   9.282   5.813   2.638
 7124WAT     H221615   9.377   5.724   2.737
 7125WAT      O21616   1.972   2.892   5.648
 7125WAT     H121617   2.029   2.880   5.729
 7125WAT     H221618   2.028   2.920   5.570
 7126WAT      O21619   5.189   6.706   0.627
 7126WAT     H121620   5.284   6.675   0.616
 7126WAT     H221621   5.183   6.762   0.710
 7127WAT      O21622   9.491   1.603   2.842
 7127WAT     H121623   9.517   1.607   2.745
 7127WAT     H221624   9.475   1.696   2.876
 7128WAT      O21625   6.137   7.536   0.594
 7128WAT     H121626   6.085   7.598   0.653
 7128WAT     H221627   6.077   7.461   0.564
 7129WAT      O21628   1.457   7.464   2.002
 7129WAT     H121629   1.549   7.463   1.963
 7129WAT     H221630   1.458   7.511   2.090
 7130WAT      O21631   7.699   9.209   3.564
 7130WAT     H121632   7.692   9.110   3.573
 7130WAT     H221633   7.610   9.251   3.584
 7131WAT      O21634   5.510   6.687   7.766
 7131WAT     H121635   5.429   6.743   7.745
 7131WAT     H221636   5.590   6.747   7.775
 7132WAT      O21637   4.451   0.501   4.280
 7132WAT     H121638   4.396   0.478   4.200
 7132WAT     H221639   4.502   0.585   4.263
 7133WAT      O21640   7.792   8.683   6.122
 7133WAT     H121641   7.781   8.603   6.180
 7133WAT     H221642   7.833   8.757   6.175
 7134WAT      O21643   8.618   4.563   7.084
 7134WAT     H121644   8.671   4.570   7.000
 7134WAT     H221645   8.548   4.492   7.074
 7135WAT      O21646   6.842   8.050   4.601
 7135WAT     H121647   6.748   8.078   4.582
 7135WAT     H221648   6.845   7.951   4.615
 7136WAT      O21649   2.854   7.339   7.549
 7136WAT     H121650   2.821   7.262   7.495
 7136WAT     H221651   2.952   7.327   7.567
 7137WAT      O21652   1.546   3.992   2.271
 7137WAT     H121653   1.475   3.976   2.202
 7137WAT     H221654   1.525   3.939   2.353
 7138WAT      O21655   1.833   8.396   5.086
 7138WAT     H121656   1.849   8.326   5.155
 7138WAT     H221657   1.769   8.362   5.017
 7139WAT      O21658   4.186   9.582   7.806
 7139WAT     H121659   4.158   9.550   7.897
 7139WAT     H221660   4.114   9.639   7.767
 7140WAT      O21661   4.455   5.506   3.283
 7140WAT     H121662   4.422   5.598   3.304
 7140WAT     H221663   4.553   5.501   3.302
 7141WAT      O21664   8.258   1.905   4.181
 7141WAT     H121665   8.237   1.912   4.083
 7141WAT     H221666   8.196   1.964   4.232
 7142WAT      O21667   2.932   3.406   0.635
 7142WAT     H121668   3.022   3.449   0.627
 7142WAT     H221669   2.935   3.336   0.707
 7143WAT      O21670   9.828   0.157   5.761
 7143WAT     H121671   9.741   0.126   5.799
 7143WAT     H221672   9.890   0.180   5.835
 7144WAT      O21673   3.031   8.087   3.703
 7144WAT     H121674   2.977   8.003   3.706
 7144WAT     H221675   2.982   8.157   3.650
 7145WAT      O21676   8.288   8.249   1.057
 7145WAT     H121677   8.314   8.308   1.134
 7145WAT     H221678   8.363   8.245   0.991
 7146WAT      O21679   8.695   6.188   2.088
 7146WAT     H121680   8.599   6.192   2.117
 7146WAT     H221681   8.751   6.153   2.163
 7147WAT      O21682   7.956   8.851   9.818
 7147WAT     H121683   7.953   8.876   9.915
 7147WAT     H221684   7.966   8.934   9.763
 7148WAT      O21685   7.819   3.936   0.263
 7148WAT     H121686   7.769   3.860   0.222
 7148WAT     H221687   7.873   3.982   0.192
 7149WAT      O21688   3.959   4.405   2.454
 7149WAT     H121689   3.925   4.487   2.409
 7149WAT     H221690   4.057   4.416   2.474
 7150WAT      O21691   1.839   8.698   6.157
 7150WAT     H121692   1.860   8.601   6.169
 7150WAT     H221693   1.818   8.716   6.061
 7151WAT      O21694   3.033   0.026   1.328
 7151WAT     H121695   2.935   0.023   1.347
 7151WAT     H221696   3.079  -0.045   1.382
 7152WAT      O21697   5.254   9.206   2.874
 7152WAT     H121698   5.342   9.251   2.886
 7152WAT     H221699   5.253   9.157   2.786
 7153WAT      O21700   4.586   4.092   2.745
 7153WAT     H121701   4.518   4.165   2.742
 7153WAT     H221702   4.678   4.131   2.748
 7154WAT      O21703   4.903   7.485   7.416
 7154WAT     H121704   4.997   7.451   7.423
 7154WAT     H221705   4.840   7.414   7.448
 7155WAT      O21706   3.387   2.442   2.908
 7155WAT     H121707   3.437   2.527   2.923
 7155WAT     H221708   3.451   2.365   2.909
 7156WAT      O21709   1.668   0.470   1.345
 7156WAT     H121710   1.574   0.497   1.325
 7156WAT     H221711   1.677   0.452   1.443
 7157WAT      O21712   5.450   8.313   4.112
 7157WAT     H121713   5.428   8.285   4.206
 7157WAT     H221714   5.506   8.242   4.069
 7158WAT      O21715   7.572   2.060   2.454
 7158WAT     H121716   7.493   2.015   2.412
 7158WAT     H221717   7.633   2.094   2.381
 7159WAT      O21718   9.536   0.741   0.048
 7159WAT     H121719   9.465   0.681   0.085
 7159WAT     H221720   9.505   0.780  -0.039
 7160WAT      O21721   1.832   4.822   4.539
 7160WAT     H121722   1.868   4.773   4.618
 7160WAT     H221723   1.892   4.900   4.518
 7161WAT      O21724   8.256   8.187   6.726
 7161WAT     H121725   8.179   8.169   6.787
 7161WAT     H221726   8.301   8.272   6.754
 7162WAT      O21727   1.298   2.391   5.032
 7162WAT     H121728   1.322   2.295   5.045
 7162WAT     H221729   1.381   2.447   5.033
 7163WAT      O21730   2.226   3.018   3.478
 7163WAT     H121731   2.169   2.956   3.425
 7163WAT     H221732   2.193   3.112   3.469
 7164WAT      O21733   2.252   7.704   4.829
 7164WAT     H121734   2.206   7.622   4.796
 7164WAT     H221735   2.199   7.785   4.801
 7165WAT      O21736   2.590   4.592   0.702
 7165WAT     H121737   2.547   4.530   0.636
 7165WAT     H221738   2.678   4.554   0.732
 7166WAT      O21739   7.910   8.489   1.350
 7166WAT     H121740   7.873   8.547   1.422
 7166WAT     H221741   7.953   8.408   1.390
 7167WAT      O21742   1.505   9.816   1.172
 7167WAT     H121743   1.494   9.721   1.143
 7167WAT     H221744   1.464   9.876   1.104
 7168WAT      O21745   3.635   1.242   4.040
 7168WAT     H121746   3.560   1.206   3.985
 7168WAT     H221747   3.599   1.300   4.112
 7169WAT      O21748   2.928   0.066   7.448
 7169WAT     H121749   2.963   0.031   7.535
 7169WAT     H221750   2.953   0.162   7.438
 7170WAT      O21751   3.783   0.611   0.426
 7170WAT     H121752   3.811   0.585   0.334
 7170WAT     H221753   3.830   0.553   0.493
 7171WAT      O21754   6.117   3.012   9.303
 7171WAT     H121755   6.024   2.988   9.329
 7171WAT     H221756   6.182   2.967   9.365
 7172WAT      O21757   7.326   7.159   7.294
 7172WAT     H121758   7.246   7.214   7.273
 7172WAT     H221759   7.405   7.219   7.308
 7173WAT      O21760   1.909   4.515   7.511
 7173WAT     H121761   1.937   4.587   7.448
 7173WAT     H221762   1.982   4.446   7.517
 7174WAT      O21763   4.094   7.095   6.005
 7174WAT     H121764   4.026   7.066   5.938
 7174WAT     H221765   4.051   7.105   6.094
 7175WAT      O21766   7.215   2.517   9.247
 7175WAT     H121767   7.161   2.434   9.242
 7175WAT     H221768   7.309   2.498   9.219
 7176WAT      O21769   8.013   0.083   0.023
 7176WAT     H121770   8.058   0.012   0.077
 7176WAT     H221771   8.015   0.169   0.074
 7177WAT      O21772   4.806   9.070   5.937
 7177WAT     H121773   4.870   9.117   5.876
 7177WAT     H221774   4.846   8.983   5.966
 7178WAT      O21775   0.280   5.753   2.301
 7178WAT     H121776   0.374   5.742   2.332
 7178WAT     H221777   0.274   5.735   2.203
 7179WAT      O21778   7.369   4.343   6.079
 7179WAT     H121779   7.433   4.388   6.017
 7179WAT     H221780   7.340   4.408   6.150
 7180WAT      O21781   3.695   2.236   6.886
 7180WAT     H121782   3.759   2.254   6.961
 7180WAT     H221783   3.737   2.262   6.799
 7181WAT      O21784   6.507   2.361   1.938
 7181WAT     H121785   6.540   2.288   1.997
 7181WAT     H221786   6.446   2.421   1.990
 7182WAT      O21787   1.815   2.273   8.740
 7182WAT     H121788   1.900   2.326   8.738
 7182WAT     H221789   1.738   2.334   8.762
 7183WAT      O21790   8.986   6.228   2.692
 7183WAT     H121791   8.977   6.137   2.651
 7183WAT     H221792   9.060   6.277   2.647
 7184WAT      O21793   8.890   3.836   7.090
 7184WAT     H121794   8.872   3.841   7.188
 7184WAT     H221795   8.963   3.901   7.066
 7185WAT      O21796   8.836   8.034   0.067
 7185WAT     H121797   8.904   8.023   0.139
 7185WAT     H221798   8.771   8.105   0.094
 7186WAT      O21799   5.136   3.528   8.734
 7186WAT     H121800   5.055   3.498   8.783
 7186WAT     H221801   5.168   3.455   8.674
 7187WAT      O21802   4.066   2.519   2.978
 7187WAT     H121803   4.164   2.522   2.960
 7187WAT     H221804   4.017   2.505   2.893
 7188WAT      O21805   3.613   1.228   8.202
 7188WAT     H121806   3.520   1.261   8.188
 7188WAT     H221807   3.641   1.174   8.123
 7189WAT      O21808   6.649   5.401   2.839
 7189WAT     H121809   6.679   5.421   2.746
 7189WAT     H221810   6.602   5.313   2.842
 7190WAT      O21811   3.121   7.656   8.721
 7190WAT     H121812   3.195   7.598   8.687
 7190WAT     H221813   3.069   7.607   8.791
 7191WAT      O21814   5.285   9.267   5.230
 7191WAT     H121815   5.276   9.361   5.199
 7191WAT     H221816   5.211   9.246   5.294
 7192WAT      O21817   2.139   6.598   5.210
 7192WAT     H121818   2.132   6.509   5.165
 7192WAT     H221819   2.189   6.661   5.150
 7193WAT      O21820   2.372   5.159   0.242
 7193WAT     H121821   2.454   5.110   0.213
 7193WAT     H221822   2.398   5.235   0.302
 7194WAT      O21823   5.676   3.742   3.612
 7194WAT     H121824   5.696   3.696   3.699
 7194WAT     H221825   5.730   3.827   3.607
 7195WAT      O21826   8.392   3.688   3.725
 7195WAT     H121827   8.415   3.591   3.713
 7195WAT     H221828   8.332   3.699   3.804
 7196WAT      O21829   3.171   6.049   7.600
 7196WAT     H121830   3.246   6.018   7.542
 7196WAT     H221831   3.087   6.001   7.575
 7197WAT      O21832   0.097   7.439   6.840
 7197WAT     H121833   0.044   7.444   6.756
 7197WAT     H221834   0.194   7.446   6.818
 7198WAT      O21835   0.881   0.509   5.535
 7198WAT     H121836   0.812   0.527   5.605
 7198WAT     H221837   0.961   0.567   5.551
 7199WAT      O21838   1.142   5.089   8.680
 7199WAT     H121839   1.174   5.142   8.602
 7199WAT     H221840   1.221   5.054   8.731
 7200WAT      O21841   4.239   2.287   4.762
 7200WAT     H121842   4.186   2.266   4.680
 7200WAT     H221843   4.329   2.245   4.756
 7201WAT      O21844   6.139   0.616   4.382
 7201WAT     H121845   6.210   0.548   4.402
 7201WAT     H221846   6.056   0.569   4.352
 7202WAT      O21847   5.386   4.900   0.804
 7202WAT     H121848   5.403   4.818   0.750
 7202WAT     H221849   5.458   4.912   0.871
 7203WAT      O21850   9.492   8.913   2.451
 7203WAT     H121851   9.540   8.968   2.520
 7203WAT     H221852   9.427   8.971   2.402
 7204WAT      O21853   5.553   7.317   4.135
 7204WAT     H121854   5.463   7.279   4.157
 7204WAT     H221855   5.555   7.346   4.039
 7205WAT      O21856   1.998   7.242   2.446
 7205WAT     H121857   1.941   7.183   2.388
 7205WAT     H221858   2.087   7.255   2.403
 7206WAT      O21859   7.706   6.036   9.259
 7206WAT     H121860   7.781   5.990   9.210
 7206WAT     H221861   7.671   6.111   9.204
 7207WAT      O21862   8.584   2.652   5.582
 7207WAT     H121863   8.588   2.620   5.487
 7207WAT     H221864   8.644   2.731   5.593
 7208WAT      O21865   6.673   0.305   6.975
 7208WAT     H121866   6.696   0.336   6.883
 7208WAT     H221867   6.599   0.238   6.970
 7209WAT      O21868   5.326   2.572   3.211
 7209WAT     H121869   5.353   2.633   3.286
 7209WAT     H221870   5.234   2.537   3.228
 7210WAT      O21871   8.020   3.476   5.605
 7210WAT     H121872   8.068   3.403   5.557
 7210WAT     H221873   8.068   3.562   5.591
 7211WAT      O21874   7.625   4.778   9.498
 7211WAT     H121875   7.613   4.876   9.511
 7211WAT     H221876   7.708   4.761   9.445
 7212WAT      O21877   3.410   0.768   8.188
 7212WAT     H121878   3.395   0.701   8.115
 7212WAT     H221879   3.502   0.756   8.225
 7213WAT      O21880   2.721   2.940   9.359
 7213WAT     H121881   2.780   2.862   9.337
 7213WAT     H221882   2.778   3.019   9.382
 7214WAT      O21883   3.169   8.046   6.313
 7214WAT     H121884   3.114   8.129   6.298
 7214WAT     H221885   3.160   8.018   6.408
 7215WAT      O21886   1.782   1.000   0.187
 7215WAT     H121887   1.769   0.907   0.221
 7215WAT     H221888   1.745   1.008   0.094
 7216WAT      O21889   0.904   1.893   6.694
 7216WAT     H121890   0.888   1.866   6.599
 7216WAT     H221891   0.912   1.812   6.751
 7217WAT      O21892   6.390   4.951   0.919
 7217WAT     H121893   6.395   5.037   0.971
 7217WAT     H221894   6.482   4.923   0.894
 7218WAT      O21895   6.121   8.515   4.631
 7218WAT     H121896   6.080   8.549   4.716
 7218WAT     H221897   6.068   8.548   4.553
 7219WAT      O21898   9.511   2.977   9.267
 7219WAT     H121899   9.548   3.068   9.250
 7219WAT     H221900   9.511   2.959   9.366
 7220WAT      O21901   3.977   6.226   1.161
 7220WAT     H121902   3.967   6.229   1.061
 7220WAT     H221903   3.958   6.134   1.193
 7221WAT      O21904   9.143   8.945   3.665
 7221WAT     H121905   9.140   9.040   3.635
 7221WAT     H221906   9.211   8.935   3.737
 7222WAT      O21907   2.239   9.223   0.817
 7222WAT     H121908   2.146   9.260   0.820
 7222WAT     H221909   2.268   9.217   0.721
 7223WAT      O21910   1.913   0.643   0.501
 7223WAT     H121911   1.836   0.705   0.515
 7223WAT     H221912   1.927   0.628   0.403
 7224WAT      O21913   0.530   4.080   5.835
 7224WAT     H121914   0.616   4.112   5.874
 7224WAT     H221915   0.541   4.064   5.737
 7225WAT      O21916   2.275   7.510   2.084
 7225WAT     H121917   2.262   7.420   2.043
 7225WAT     H221918   2.199   7.530   2.146
 7226WAT      O21919   4.638   7.819   2.586
 7226WAT     H121920   4.709   7.860   2.644
 7226WAT     H221921   4.612   7.883   2.514
 7227WAT      O21922   9.873   6.674   5.650
 7227WAT     H121923   9.907   6.739   5.718
 7227WAT     H221924   9.931   6.592   5.650
 7228WAT      O21925   1.320   1.984   4.321
 7228WAT     H121926   1.274   2.073   4.327
 7228WAT     H221927   1.288   1.925   4.395
 7229WAT      O21928   5.427   7.580   6.773
 7229WAT     H121929   5.361   7.505   6.778
 7229WAT     H221930   5.458   7.604   6.865
 7230WAT      O21931   4.099   4.215   4.289
 7230WAT     H121932   4.085   4.280   4.364
 7230WAT     H221933   4.179   4.158   4.309
 7231WAT      O21934   0.634   5.648   0.798
 7231WAT     H121935   0.593   5.717   0.858
 7231WAT     H221936   0.713   5.686   0.752
 7232WAT      O21937   9.145   9.731   7.837
 7232WAT     H121938   9.179   9.793   7.767
 7232WAT     H221939   9.047   9.747   7.850
 7233WAT      O21940   9.654   6.938   9.012
 7233WAT     H121941   9.691   6.852   8.978
 7233WAT     H221942   9.554   6.939   9.001
 7234WAT      O21943   7.745   4.875   4.226
 7234WAT     H121944   7.844   4.884   4.230
 7234WAT     H221945   7.705   4.964   4.204
 7235WAT      O21946   7.242   6.510   6.106
 7235WAT     H121947   7.169   6.579   6.111
 7235WAT     H221948   7.226   6.451   6.027
 7236WAT      O21949   2.735   4.109   3.230
 7236WAT     H121950   2.690   4.176   3.171
 7236WAT     H221951   2.759   4.151   3.317
 7237WAT      O21952   1.163   3.082   8.307
 7237WAT     H121953   1.090   3.132   8.354
 7237WAT     H221954   1.189   3.131   8.224
 7238WAT      O21955   5.078   9.536   8.455
 7238WAT     H121956   5.155   9.489   8.412
 7238WAT     H221957   5.003   9.545   8.390
 7239WAT      O21958   3.885   7.284   4.327
 7239WAT     H121959   3.922   7.370   4.292
 7239WAT     H221960   3.859   7.225   4.250
 7240WAT      O21961   0.143   8.523   0.743
 7240WAT     H121962   0.092   8.451   0.696
 7240WAT     H221963   0.227   8.545   0.692
 7241WAT      O21964   1.652   6.333   0.441
 7241WAT     H121965   1.616   6.240   0.442
 7241WAT     H221966   1.741   6.335   0.487
 7242WAT      O21967   6.982   6.867   3.872
 7242WAT     H121968   6.895   6.820   3.884
 7242WAT     H221969   7.053   6.821   3.925
 7243WAT      O21970   2.845   8.159   5.264
 7243WAT     H121971   2.768   8.121   5.315
 7243WAT     H221972   2.814   8.240   5.213
 7244WAT      O21973   4.034   9.660   6.600
 7244WAT     H121974   3.986   9.628   6.682
 7244WAT     H221975   3.970   9.662   6.523
 7245WAT      O21976   6.745   4.802   4.548
 7245WAT     H121977   6.823   4.829   4.605
 7245WAT     H221978   6.699   4.724   4.589
 7246WAT      O21979   6.664   0.423   8.206
 7246WAT     H121980   6.686   0.393   8.113
 7246WAT     H221981   6.603   0.357   8.249
 7247WAT      O21982   7.763   6.917   1.277
 7247WAT     H121983   7.706   6.894   1.197
 7247WAT     H221984   7.794   6.833   1.321
 7248WAT      O21985   1.526   9.795   5.952
 7248WAT     H121986   1.567   9.708   5.926
 7248WAT     H221987   1.539   9.809   6.051
 7249WAT      O21988   9.354   7.273   8.256
 7249WAT     H121989   9.331   7.190   8.306
 7249WAT     H221990   9.351   7.351   8.318
 7250WAT      O21991   3.469   5.367   4.098
 7250WAT     H121992   3.381   5.371   4.050
 7250WAT     H221993   3.457   5.402   4.191
 7251WAT      O21994   1.527   8.130   5.170
 7251WAT     H121995   1.578   8.167   5.093
 7251WAT     H221996   1.446   8.186   5.188
 7252WAT      O21997   9.870   8.489   3.066
 7252WAT     H121998   9.887   8.548   3.145
 7252WAT     H221999   9.836   8.545   2.990
 7253WAT      O22000   9.708   6.111   2.916
 7253WAT     H122001   9.630   6.071   2.866
 7253WAT     H222002   9.784   6.123   2.853
 7254WAT      O22003   6.737   2.475   1.827
 7254WAT     H122004   6.791   2.396   1.799
 7254WAT     H222005   6.653   2.445   1.872
 7255WAT      O22006   4.218   6.957   9.514
 7255WAT     H122007   4.166   6.918   9.591
 7255WAT     H222008   4.173   7.041   9.483
 7256WAT      O22009   6.460   3.233   5.326
 7256WAT     H122010   6.525   3.307   5.308
 7256WAT     H222011   6.405   3.257   5.406
 7257WAT      O22012   3.782   0.820   1.416
 7257WAT     H122013   3.716   0.892   1.438
 7257WAT     H222014   3.766   0.787   1.324
 7258WAT      O22015   6.210   5.812   1.995
 7258WAT     H122016   6.222   5.904   1.959
 7258WAT     H222017   6.133   5.768   1.949
 7259WAT      O22018   3.691   6.253   7.177
 7259WAT     H122019   3.595   6.263   7.153
 7259WAT     H222020   3.738   6.341   7.164
 7260WAT      O22021   3.645   9.216   9.688
 7260WAT     H122022   3.722   9.165   9.650
 7260WAT     H222023   3.588   9.155   9.743
 7261WAT      O22024   0.058   5.711   6.967
 7261WAT     H122025   0.136   5.756   6.923
 7261WAT     H222026  -0.020   5.773   6.968
 7262WAT      O22027   4.688   1.559   8.831
 7262WAT     H122028   4.677   1.541   8.734
 7262WAT     H222029   4.626   1.633   8.858
 7263WAT      O22030   0.505   8.448   8.594
 7263WAT     H122031   0.484   8.368   8.538
 7263WAT     H222032   0.561   8.420   8.672
 7264WAT      O22033   8.835   9.822   6.656
 7264WAT     H122034   8.880   9.857   6.574
 7264WAT     H222035   8.852   9.884   6.733
 7265WAT      O22036   6.850   0.709   5.639
 7265WAT     H122037   6.788   0.674   5.570
 7265WAT     H222038   6.915   0.772   5.597
 7266WAT      O22039   7.284   7.472   6.351
 7266WAT     H122040   7.312   7.398   6.290
 7266WAT     H222041   7.348   7.477   6.428
 7267WAT      O22042   4.676   2.543   5.992
 7267WAT     H122043   4.719   2.530   6.082
 7267WAT     H222044   4.580   2.516   5.997
 7268WAT      O22045   7.770   4.501   0.356
 7268WAT     H122046   7.837   4.526   0.425
 7268WAT     H222047   7.736   4.584   0.311
 7269WAT      O22048   0.237   3.387   5.395
 7269WAT     H122049   0.318   3.377   5.452
 7269WAT     H222050   0.214   3.299   5.353
 7270WAT      O22051   7.213   2.412   4.323
 7270WAT     H122052   7.277   2.489   4.322
 7270WAT     H222053   7.261   2.328   4.299
 7271WAT      O22054   5.803   8.108   2.149
 7271WAT     H122055   5.846   8.064   2.228
 7271WAT     H222056   5.751   8.039   2.098
 7272WAT      O22057   2.303   8.750   3.621
 7272WAT     H122058   2.222   8.809   3.628
 7272WAT     H222059   2.374   8.798   3.570
 7273WAT      O22060   3.828   4.874   9.532
 7273WAT     H122061   3.841   4.923   9.445
 7273WAT     H222062   3.755   4.918   9.584
 7274WAT      O22063   9.662   8.303   0.876
 7274WAT     H122064   9.708   8.264   0.956
 7274WAT     H222065   9.634   8.230   0.814
 7275WAT      O22066   1.335   0.848   7.384
 7275WAT     H122067   1.319   0.821   7.289
 7275WAT     H222068   1.423   0.812   7.414
 7276WAT      O22069   6.140   6.490   1.882
 7276WAT     H122070   6.220   6.470   1.825
 7276WAT     H222071   6.095   6.573   1.847
 7277WAT      O22072   9.029   4.774   2.299
 7277WAT     H122073   9.115   4.777   2.250
 7277WAT     H222074   8.956   4.812   2.242
 7278WAT      O22075   8.342   7.279   6.836
 7278WAT     H122076   8.374   7.191   6.871
 7278WAT     H222077   8.307   7.268   6.743
 7279WAT      O22078   2.952   4.744   5.345
 7279WAT     H122079   3.006   4.666   5.377
 7279WAT     H222080   3.012   4.822   5.327
 7280WAT      O22081   7.655   5.741   9.015
 7280WAT     H122082   7.662   5.840   9.003
 7280WAT     H222083   7.664   5.695   8.927
 7281WAT      O22084   6.867   1.859   6.445
 7281WAT     H122085   6.942   1.912   6.406
 7281WAT     H222086   6.864   1.768   6.403
 7282WAT      O22087   3.404   4.032   0.834
 7282WAT     H122088   3.463   4.102   0.794
 7282WAT     H222089   3.426   4.019   0.931
 7283WAT      O22090   7.176   0.890   7.489
 7283WAT     H122091   7.179   0.842   7.401
 7283WAT     H222092   7.110   0.965   7.483
 7284WAT      O22093   8.393   1.124   4.553
 7284WAT     H122094   8.316   1.066   4.579
 7284WAT     H222095   8.365   1.220   4.558
 7285WAT      O22096   1.904   9.541   6.020
 7285WAT     H122097   1.959   9.458   6.021
 7285WAT     H222098   1.926   9.596   6.101
 7286WAT      O22099   5.621   3.024   3.795
 7286WAT     H122100   5.539   3.007   3.851
 7286WAT     H222101   5.603   3.100   3.733
 7287WAT      O22102   4.512   0.870   8.963
 7287WAT     H122103   4.426   0.902   8.921
 7287WAT     H222104   4.548   0.793   8.910
 7288WAT      O22105   3.806   6.265   6.837
 7288WAT     H122106   3.782   6.169   6.851
 7288WAT     H222107   3.789   6.316   6.921
 7289WAT      O22108   9.408   6.679   0.126
 7289WAT     H122109   9.465   6.758   0.149
 7289WAT     H222110   9.400   6.672   0.027
 7290WAT      O22111   0.037   0.681   3.836
 7290WAT     H122112  -0.041   0.625   3.809
 7290WAT     H222113   0.007   0.754   3.898
 7291WAT      O22114   2.294   1.159   3.728
 7291WAT     H122115   2.335   1.136   3.817
 7291WAT     H222116   2.200   1.189   3.741
 7292WAT      O22117   2.122   1.322   5.771
 7292WAT     H122118   2.116   1.242   5.832
 7292WAT     H222119   2.215   1.358   5.772
 7293WAT      O22120   3.574   9.558   8.385
 7293WAT     H122121   3.490   9.613   8.379
 7293WAT     H222122   3.550   9.461   8.381
 7294WAT      O22123   6.714   6.692   1.208
 7294WAT     H122124   6.700   6.615   1.270
 7294WAT     H222125   6.771   6.663   1.131
 7295WAT      O22126   8.750   5.159   6.533
 7295WAT     H122127   8.680   5.101   6.490
 7295WAT     H222128   8.825   5.102   6.567
 7296WAT      O22129   9.349   1.519   6.693
 7296WAT     H122130   9.313   1.593   6.751
 7296WAT     H222131   9.362   1.553   6.600
 7297WAT      O22132   5.615   9.799   3.011
 7297WAT     H122133   5.602   9.855   2.930
 7297WAT     H222134   5.527   9.782   3.055
 7298WAT      O22135   8.455   5.529   1.382
 7298WAT     H122136   8.455   5.629   1.386
 7298WAT     H222137   8.539   5.493   1.422
 7299WAT      O22138   3.100   8.116   5.310
 7299WAT     H122139   3.013   8.145   5.271
 7299WAT     H222140   3.085   8.071   5.398
 7300WAT      O22141   8.679   3.490   1.506
 7300WAT     H122142   8.647   3.403   1.541
 7300WAT     H222143   8.707   3.479   1.410
 7301WAT      O22144   2.556   9.647   8.127
 7301WAT     H122145   2.480   9.606   8.177
 7301WAT     H222146   2.587   9.730   8.174
 7302WAT      O22147   2.580   9.225   3.572
 7302WAT     H122148   2.564   9.290   3.498
 7302WAT     H222149   2.509   9.155   3.570
 7303WAT      O22150   9.253   4.361   1.832
 7303WAT     H122151   9.218   4.426   1.900
 7303WAT     H222152   9.225   4.390   1.741
 7304WAT      O22153   5.998   5.845   8.365
 7304WAT     H122154   5.995   5.749   8.339
 7304WAT     H222155   5.914   5.869   8.413
 7305WAT      O22156   7.328   7.726   2.090
 7305WAT     H122157   7.251   7.675   2.051
 7305WAT     H222158   7.384   7.665   2.145
 7306WAT      O22159   7.716   3.226   4.114
 7306WAT     H122160   7.686   3.320   4.104
 7306WAT     H222161   7.713   3.180   4.025
 7307WAT      O22162   9.509   8.941   4.367
 7307WAT     H122163   9.442   8.867   4.374
 7307WAT     H222164   9.515   8.972   4.272
 7308WAT      O22165   9.673   7.636   7.672
 7308WAT     H122166   9.741   7.676   7.610
 7308WAT     H222167   9.581   7.665   7.644
 7309WAT      O22168   5.823   8.035   4.182
 7309WAT     H122169   5.897   8.048   4.116
 7309WAT     H222170   5.817   7.939   4.208
 7310WAT      O22171   5.856   5.834   5.983
 7310WAT     H122172   5.924   5.870   5.919
 7310WAT     H222173   5.903   5.785   6.056
 7311WAT      O22174   5.101   9.249   6.600
 7311WAT     H122175   5.120   9.168   6.544
 7311WAT     H222176   5.015   9.235   6.650
 7312WAT      O22177   4.174   4.706   5.200
 7312WAT     H122178   4.120   4.655   5.134
 7312WAT     H222179   4.259   4.657   5.219
 7313WAT      O22180   1.310   7.840   7.678
 7313WAT     H122181   1.228   7.850   7.622
 7313WAT     H222182   1.323   7.743   7.700
 7314WAT      O22183   9.460   2.201   5.179
 7314WAT     H122184   9.484   2.104   5.176
 7314WAT     H222185   9.389   2.220   5.110
 7315WAT      O22186   1.743   4.966   5.066
 7315WAT     H122187   1.673   4.929   5.004
 7315WAT     H222188   1.699   5.015   5.141
 7316WAT      O22189   4.578   6.617   9.770
 7316WAT     H122190   4.638   6.698   9.772
 7316WAT     H222191   4.610   6.554   9.699
 7317WAT      O22192   8.911   2.922   2.407
 7317WAT     H122193   8.890   3.019   2.424
 7317WAT     H222194   8.930   2.877   2.494
 7318WAT      O22195   7.961   1.647   9.156
 7318WAT     H122196   8.058   1.624   9.147
 7318WAT     H222197   7.905   1.572   9.119
 7319WAT      O22198   8.148   3.999   9.422
 7319WAT     H122199   8.130   3.944   9.504
 7319WAT     H222200   8.132   3.944   9.340
 7320WAT      O22201   5.885   4.582   6.098
 7320WAT     H122202   5.803   4.618   6.052
 7320WAT     H222203   5.892   4.622   6.190
 7321WAT      O22204   0.453   0.592   5.598
 7321WAT     H122205   0.465   0.496   5.571
 7321WAT     H222206   0.537   0.626   5.639
 7322WAT      O22207   4.135   2.712   7.090
 7322WAT     H122208   4.221   2.756   7.115
 7322WAT     H222209   4.132   2.620   7.130
 7323WAT      O22210   6.388   6.411   5.173
 7323WAT     H122211   6.310   6.466   5.204
 7323WAT     H222212   6.471   6.440   5.221
 7324WAT      O22213   3.258   6.617   9.759
 7324WAT     H122214   3.268   6.567   9.673
 7324WAT     H222215   3.225   6.554   9.830
 7325WAT      O22216   9.079   1.657   2.810
 7325WAT     H122217   9.119   1.737   2.856
 7325WAT     H222218   9.006   1.619   2.867
 7326WAT      O22219   1.516   6.339   1.426
 7326WAT     H122220   1.610   6.339   1.462
 7326WAT     H222221   1.466   6.417   1.465
 7327WAT      O22222   3.927   9.084   0.049
 7327WAT     H122223   3.890   9.050   0.136
 7327WAT     H222224   3.872   9.049  -0.027
 7328WAT      O22225   3.049   1.564   3.758
 7328WAT     H122226   3.071   1.612   3.674
 7328WAT     H222227   2.949   1.555   3.767
 7329WAT      O22228   3.879   1.086   6.609
 7329WAT     H122229   3.787   1.051   6.625
 7329WAT     H222230   3.873   1.181   6.577
 7330WAT      O22231   0.060   7.208   0.789
 7330WAT     H122232   0.039   7.285   0.849
 7330WAT     H222233   0.157   7.185   0.796
 7331WAT      O22234   2.873   9.475   6.735
 7331WAT     H122235   2.892   9.548   6.800
 7331WAT     H222236   2.959   9.431   6.709
 7332WAT      O22237   5.575   0.749   4.486
 7332WAT     H122238   5.481   0.745   4.519
 7332WAT     H222239   5.589   0.835   4.436
 7333WAT      O22240   6.772   6.168   4.749
 7333WAT     H122241   6.694   6.135   4.801
 7333WAT     H222242   6.740   6.221   4.671
 7334WAT      O22243   2.296   5.730   5.511
 7334WAT     H122244   2.352   5.813   5.509
 7334WAT     H222245   2.311   5.682   5.597
 7335WAT      O22246   0.317   2.471   8.674
 7335WAT     H122247   0.308   2.467   8.774
 7335WAT     H222248   0.396   2.416   8.646
 7336WAT      O22249   0.594   8.174   2.515
 7336WAT     H122250   0.658   8.108   2.554
 7336WAT     H222251   0.540   8.216   2.588
 7337WAT      O22252   3.315   0.244   9.228
 7337WAT     H122253   3.335   0.278   9.320
 7337WAT     H222254   3.381   0.173   9.204
 7338WAT      O22255   6.052   7.733   5.560
 7338WAT     H122256   6.050   7.701   5.466
 7338WAT     H222257   6.000   7.819   5.567
 7339WAT      O22258   4.229   3.249   8.821
 7339WAT     H122259   4.176   3.166   8.807
 7339WAT     H222260   4.327   3.227   8.816
 7340WAT      O22261   2.577   2.134   8.243
 7340WAT     H122262   2.558   2.040   8.214
 7340WAT     H222263   2.534   2.150   8.332
 7341WAT      O22264   9.373   5.429   3.362
 7341WAT     H122265   9.345   5.433   3.266
 7341WAT     H222266   9.299   5.389   3.417
 7342WAT      O22267   0.762   1.580   4.002
 7342WAT     H122268   0.808   1.491   3.998
 7342WAT     H222269   0.674   1.570   4.048
 7343WAT      O22270   1.320   8.541   8.803
 7343WAT     H122271   1.367   8.602   8.738
 7343WAT     H222272   1.374   8.533   8.887
 7344WAT      O22273   0.408   7.723   7.330
 7344WAT     H122274   0.405   7.803   7.270
 7344WAT     H222275   0.458   7.746   7.414
 7345WAT      O22276   5.299   1.067   7.861
 7345WAT     H122277   5.306   0.993   7.794
 7345WAT     H222278   5.304   1.155   7.814
 7346WAT      O22279   3.370   6.358   6.838
 7346WAT     H122280   3.442   6.423   6.865
 7346WAT     H222281   3.320   6.394   6.759
 7347WAT      O22282   5.164   5.882   1.054
 7347WAT     H122283   5.071   5.852   1.032
 7347WAT     H222284   5.229   5.841   0.989
 7348WAT      O22285   9.752   1.346   4.636
 7348WAT     H122286   9.666   1.376   4.677
 7348WAT     H222287   9.779   1.259   4.675
 7349WAT      O22288   8.122   3.653   6.406
 7349WAT     H122289   8.140   3.565   6.451
 7349WAT     H222290   8.205   3.684   6.361
 7350WAT      O22291   2.135   0.666   2.308
 7350WAT     H122292   2.152   0.683   2.211
 7350WAT     H222293   2.174   0.740   2.362
 7351WAT      O22294   2.668   6.143   1.544
 7351WAT     H122295   2.687   6.081   1.468
 7351WAT     H222296   2.574   6.129   1.576
 7352WAT      O22297   4.897   3.173   4.013
 7352WAT     H122298   4.869   3.254   3.961
 7352WAT     H222299   4.830   3.100   3.999
 7353WAT      O22300   5.387   8.777   6.945
 7353WAT     H122301   5.382   8.807   6.849
 7353WAT     H222302   5.431   8.688   6.949
 7354WAT      O22303   0.397   1.078   2.750
 7354WAT     H122304   0.367   1.131   2.671
 7354WAT     H222305   0.329   1.008   2.772
 7355WAT      O22306   8.201   1.326   4.547
 7355WAT     H122307   8.193   1.425   4.554
 7355WAT     H222308   8.113   1.284   4.568
 7356WAT      O22309   1.960   7.213   0.700
 7356WAT     H122310   1.966   7.277   0.624
 7356WAT     H222311   1.984   7.121   0.668
 7357WAT      O22312   4.997   9.106   0.424
 7357WAT     H122313   5.002   9.202   0.399
 7357WAT     H222314   4.902   9.077   0.427
 7358WAT      O22315   0.174   3.591   9.180
 7358WAT     H122316   0.203   3.511   9.127
 7358WAT     H222317   0.093   3.567   9.234
 7359WAT      O22318   5.702   5.243   0.058
 7359WAT     H122319   5.710   5.143   0.059
 7359WAT     H222320   5.770   5.282   0.120
 7360WAT      O22321   7.722   1.174   2.096
 7360WAT     H122322   7.786   1.146   2.169
 7360WAT     H222323   7.768   1.241   2.037
 7361WAT      O22324   3.592   7.078   6.830
 7361WAT     H122325   3.677   7.037   6.797
 7361WAT     H222326   3.606   7.176   6.844
 7362WAT      O22327   4.489   6.983   7.290
 7362WAT     H122328   4.462   7.039   7.212
 7362WAT     H222329   4.576   6.939   7.271
 7363WAT      O22330   8.368   9.578   0.912
 7363WAT     H122331   8.277   9.596   0.876
 7363WAT     H222332   8.404   9.494   0.872
 7364WAT      O22333   6.484   0.867   1.274
 7364WAT     H122334   6.448   0.957   1.297
 7364WAT     H222335   6.580   0.876   1.248
 7365WAT      O22336   8.020   2.907   2.067
 7365WAT     H122337   7.926   2.937   2.083
 7365WAT     H222338   8.083   2.981   2.089
 7366WAT      O22339   2.933   6.761   8.989
 7366WAT     H122340   2.942   6.692   8.917
 7366WAT     H222341   2.838   6.790   8.996
 7367WAT      O22342   1.327   4.369   2.501
 7367WAT     H122343   1.389   4.390   2.578
 7367WAT     H222344   1.375   4.310   2.435
 7368WAT      O22345   9.697   3.418   2.546
 7368WAT     H122346   9.751   3.357   2.487
 7368WAT     H222347   9.620   3.367   2.584
 7369WAT      O22348   2.173   1.107   3.245
 7369WAT     H122349   2.229   1.184   3.277
 7369WAT     H222350   2.199   1.024   3.293
 7370WAT      O22351   0.942   4.043   4.927
 7370WAT     H122352   1.009   4.042   4.853
 7370WAT     H222353   0.940   3.953   4.971
 7371WAT      O22354   5.855   6.469   7.907
 7371WAT     H122355   5.759   6.460   7.933
 7371WAT     H222356   5.913   6.453   7.987
 7372WAT      O22357   6.538   5.263   6.047
 7372WAT     H122358   6.637   5.256   6.063
 7372WAT     H222359   6.497   5.172   6.053
 7373WAT      O22360   8.793   5.889   3.243
 7373WAT     H122361   8.809   5.885   3.145
 7373WAT     H222362   8.880   5.881   3.292
 7374WAT      O22363   5.489   7.070   6.951
 7374WAT     H122364   5.499   6.993   7.014
 7374WAT     H222365   5.503   7.156   7.000
 7375WAT      O22366   1.484   7.891   4.682
 7375WAT     H122367   1.491   7.953   4.604
 7375WAT     H222368   1.575   7.865   4.712
 7376WAT      O22369   0.776   3.003   0.023
 7376WAT     H122370   0.690   3.016   0.073
 7376WAT     H222371   0.782   3.071  -0.050
 7377WAT      O22372   1.436   4.066   4.289
 7377WAT     H122373   1.360   4.126   4.313
 7377WAT     H222374   1.401   3.981   4.250
 7378WAT      O22375   6.606   2.646   8.103
 7378WAT     H122376   6.612   2.726   8.043
 7378WAT     H222377   6.519   2.648   8.153
 7379WAT      O22378   2.878   3.923   5.985
 7379WAT     H122379   2.839   3.978   6.059
 7379WAT     H222380   2.977   3.916   5.997
 7380WAT      O22381   1.191   9.236   3.507
 7380WAT     H122382   1.119   9.299   3.536
 7380WAT     H222383   1.161   9.185   3.426
 7381WAT      O22384   7.481   4.892   2.424
 7381WAT     H122385   7.383   4.892   2.406
 7381WAT     H222386   7.528   4.839   2.354
 7382WAT      O22387   4.983   8.629   2.070
 7382WAT     H122388   4.916   8.578   2.016
 7382WAT     H222389   4.973   8.607   2.167
 7383WAT      O22390   1.133   8.319   0.586
 7383WAT     H122391   1.094   8.230   0.607
 7383WAT     H222392   1.087   8.359   0.507
 7384WAT      O22393   1.267   5.184   8.460
 7384WAT     H122394   1.259   5.284   8.465
 7384WAT     H222395   1.364   5.158   8.456
 7385WAT      O22396   4.177   0.548   3.210
 7385WAT     H122397   4.170   0.643   3.239
 7385WAT     H222398   4.144   0.539   3.116
 7386WAT      O22399   5.756   4.760   1.214
 7386WAT     H122400   5.678   4.811   1.250
 7386WAT     H222401   5.730   4.716   1.128
 7387WAT      O22402   3.548   0.110   9.491
 7387WAT     H122403   3.640   0.109   9.451
 7387WAT     H222404   3.517   0.205   9.502
 7388WAT      O22405   8.773   1.164   3.231
 7388WAT     H122406   8.797   1.149   3.327
 7388WAT     H222407   8.842   1.121   3.173
 7389WAT      O22408   6.864   1.856   0.482
 7389WAT     H122409   6.864   1.777   0.421
 7389WAT     H222410   6.774   1.864   0.526
 7390WAT      O22411   8.216   3.980   0.864
 7390WAT     H122412   8.161   3.919   0.806
 7390WAT     H222413   8.247   3.930   0.945
 7391WAT      O22414   3.814   2.853   5.108
 7391WAT     H122415   3.810   2.770   5.051
 7391WAT     H222416   3.750   2.843   5.184
 7392WAT      O22417   5.445   2.613   2.946
 7392WAT     H122418   5.422   2.602   3.043
 7392WAT     H222419   5.542   2.590   2.933
 7393WAT      O22420   7.271   5.391   4.324
 7393WAT     H122421   7.258   5.294   4.302
 7393WAT     H222422   7.223   5.412   4.409
 7394WAT      O22423   9.341   5.496   8.694
 7394WAT     H122424   9.250   5.502   8.736
 7394WAT     H222425   9.347   5.413   8.640
 7395WAT      O22426   8.685   8.658   6.856
 7395WAT     H122427   8.629   8.675   6.937
 7395WAT     H222428   8.770   8.613   6.883
 7396WAT      O22429   6.433   4.087   0.291
 7396WAT     H122430   6.404   4.007   0.342
 7396WAT     H222431   6.352   4.136   0.258
 7397WAT      O22432   0.841   9.578   6.157
 7397WAT     H122433   0.813   9.665   6.116
 7397WAT     H222434   0.771   9.509   6.140
 7398WAT      O22435   5.865   8.454   3.524
 7398WAT     H122436   5.874   8.495   3.614
 7398WAT     H222437   5.954   8.453   3.478
 7399WAT      O22438   0.768   7.631   3.723
 7399WAT     H122439   0.790   7.644   3.626
 7399WAT     H222440   0.737   7.717   3.762
 7400WAT      O22441   4.766   6.803   7.277
 7400WAT     H122442   4.721   6.724   7.234
 7400WAT     H222443   4.861   6.807   7.247
 7401WAT      O22444   9.102   1.183   7.867
 7401WAT     H122445   9.053   1.101   7.837
 7401WAT     H222446   9.133   1.171   7.961
 7402WAT      O22447   7.819   3.504   6.477
 7402WAT     H122448   7.767   3.590   6.483
 7402WAT     H222449   7.901   3.510   6.534
 7403WAT      O22450   2.355   9.016   1.538
 7403WAT     H122451   2.336   9.106   1.577
 7403WAT     H222452   2.280   8.954   1.561
 7404WAT      O22453   3.190   8.545   1.747
 7404WAT     H122454   3.169   8.637   1.717
 7404WAT     H222455   3.278   8.516   1.708
 7405WAT      O22456   7.878   3.438   4.754
 7405WAT     H122457   7.924   3.508   4.699
 7405WAT     H222458   7.820   3.482   4.822
 7406WAT      O22459   6.940   7.647   9.845
 7406WAT     H122460   6.841   7.637   9.850
 7406WAT     H222461   6.977   7.653   9.938
 7407WAT      O22462   7.082   0.080   8.131
 7407WAT     H122463   7.103   0.061   8.035
 7407WAT     H222464   7.166   0.074   8.185
 7408WAT      O22465   6.691   8.877   8.239
 7408WAT     H122466   6.605   8.917   8.208
 7408WAT     H222467   6.672   8.809   8.310
 7409WAT      O22468   3.957   8.905   8.937
 7409WAT     H122469   4.040   8.953   8.911
 7409WAT     H222470   3.932   8.928   9.031
 7410WAT      O22471   8.710   2.483   9.256
 7410WAT     H122472   8.688   2.429   9.338
 7410WAT     H222473   8.767   2.428   9.195
 7411WAT      O22474   8.837   1.050   0.645
 7411WAT     H122475   8.753   1.065   0.696
 7411WAT     H222476   8.913   1.094   0.692
 7412WAT      O22477   4.728   5.485   3.265
 7412WAT     H122478   4.764   5.565   3.218
 7412WAT     H222479   4.735   5.404   3.206
 7413WAT      O22480   1.353   9.512   0.470
 7413WAT     H122481   1.384   9.441   0.533
 7413WAT     H222482   1.429   9.573   0.447
 7414WAT      O22483   9.049   3.389   2.105
 7414WAT     H122484   9.082   3.315   2.047
 7414WAT     H222485   9.120   3.413   2.171
 7415WAT      O22486   3.592   0.389   5.391
 7415WAT     H122487   3.626   0.296   5.379
 7415WAT     H222488   3.577   0.407   5.488
 7416WAT      O22489   0.028   7.840   6.663
 7416WAT     H122490   0.107   7.893   6.634
 7416WAT     H222491  -0.028   7.817   6.583
 7417WAT      O22492   0.272   2.619   2.746
 7417WAT     H122493   0.322   2.583   2.667
 7417WAT     H222494   0.325   2.693   2.788
 7418WAT      O22495   8.444   3.060   1.884
 7418WAT     H122496   8.476   3.033   1.793
 7418WAT     H222497   8.407   3.153   1.880
 7419WAT      O22498   4.128   8.622   4.158
 7419WAT     H122499   4.173   8.704   4.123
 7419WAT     H222500   4.183   8.582   4.231
 7420WAT      O22501   1.343   3.015   4.565
 7420WAT     H122502   1.313   3.070   4.487
 7420WAT     H222503   1.442   3.022   4.575
 7421WAT      O22504   1.408   7.568   5.835
 7421WAT     H122505   1.397   7.665   5.853
 7421WAT     H222506   1.447   7.556   5.743
 7422WAT      O22507   1.037   9.359   4.753
 7422WAT     H122508   1.091   9.317   4.680
 7422WAT     H222509   1.094   9.425   4.802
 7423WAT      O22510   4.691   2.213   1.622
 7423WAT     H122511   4.700   2.193   1.720
 7423WAT     H222512   4.635   2.142   1.579
 7424WAT      O22513   1.621   5.206   3.881
 7424WAT     H122514   1.692   5.212   3.951
 7424WAT     H222515   1.532   5.200   3.925
 7425WAT      O22516   9.502   0.354   5.761
 7425WAT     H122517   9.476   0.258   5.751
 7425WAT     H222518   9.476   0.387   5.852
 7426WAT      O22519   2.753   6.302   7.989
 7426WAT     H122520   2.801   6.387   8.011
 7426WAT     H222521   2.819   6.232   7.963
 7427WAT      O22522   2.792   3.741   5.165
 7427WAT     H122523   2.803   3.645   5.138
 7427WAT     H222524   2.881   3.788   5.159
 7428WAT      O22525   8.172   4.952   6.106
 7428WAT     H122526   8.150   5.041   6.148
 7428WAT     H222527   8.194   4.886   6.177
 7429WAT      O22528   8.183   6.677   3.282
 7429WAT     H122529   8.246   6.681   3.359
 7429WAT     H222530   8.198   6.591   3.232
 7430WAT      O22531   9.263   5.036   1.302
 7430WAT     H122532   9.175   5.008   1.264
 7430WAT     H222533   9.262   5.134   1.322
 7431WAT      O22534   1.741   5.568   0.446
 7431WAT     H122535   1.641   5.581   0.449
 7431WAT     H222536   1.762   5.482   0.399
 7432WAT      O22537   6.963   8.670   5.455
 7432WAT     H122538   6.903   8.617   5.395
 7432WAT     H222539   7.057   8.640   5.442
 7433WAT      O22540   2.635   2.191   5.631
 7433WAT     H122541   2.721   2.236   5.607
 7433WAT     H222542   2.593   2.238   5.708
 7434WAT      O22543   7.248   6.913   5.441
 7434WAT     H122544   7.265   6.818   5.414
 7434WAT     H222545   7.167   6.947   5.394
 7435WAT      O22546   4.992   1.578   2.257
 7435WAT     H122547   5.012   1.646   2.328
 7435WAT     H222548   5.047   1.496   2.273
 7436WAT      O22549   4.650   5.467   1.814
 7436WAT     H122550   4.569   5.523   1.797
 7436WAT     H222551   4.685   5.430   1.728
 7437WAT      O22552   8.560   3.498   2.050
 7437WAT     H122553   8.502   3.479   2.129
 7437WAT     H222554   8.655   3.473   2.071
 7438WAT      O22555   8.382   8.727   7.279
 7438WAT     H122556   8.438   8.693   7.355
 7438WAT     H222557   8.320   8.798   7.312
 7439WAT      O22558   5.006   0.934   5.326
 7439WAT     H122559   4.944   0.861   5.352
 7439WAT     H222560   5.072   0.900   5.260
 7440WAT      O22561   3.286   7.355   6.825
 7440WAT     H122562   3.275   7.292   6.902
 7440WAT     H222563   3.299   7.448   6.859
 7441WAT      O22564   6.379   6.984   7.555
 7441WAT     H122565   6.476   6.970   7.533
 7441WAT     H222566   6.322   6.936   7.489
 7442WAT      O22567   7.546   2.687   6.839
 7442WAT     H122568   7.619   2.729   6.784
 7442WAT     H222569   7.470   2.752   6.847
 7443WAT      O22570   4.407   7.003   9.051
 7443WAT     H122571   4.411   7.070   9.125
 7443WAT     H222572   4.351   7.040   8.976
 7444WAT      O22573   5.853   7.372   5.490
 7444WAT     H122574   5.921   7.367   5.563
 7444WAT     H222575   5.900   7.369   5.401
 7445WAT      O22576   0.855   9.140   9.455
 7445WAT     H122577   0.837   9.097   9.366
 7445WAT     H222578   0.932   9.095   9.499
 7446WAT      O22579   8.201   6.693   9.861
 7446WAT     H122580   8.103   6.679   9.860
 7446WAT     H222581   8.221   6.790   9.846
 7447WAT      O22582   6.358   5.855   0.859
 7447WAT     H122583   6.392   5.932   0.913
 7447WAT     H222584   6.378   5.769   0.907
 7448WAT      O22585   7.514   2.090   3.624
 7448WAT     H122586   7.568   2.052   3.699
 7448WAT     H222587   7.518   2.028   3.546
 7449WAT      O22588   5.752   7.141   2.549
 7449WAT     H122589   5.746   7.047   2.584
 7449WAT     H222590   5.764   7.138   2.450
 7450WAT      O22591   2.463   1.887   8.924
 7450WAT     H122592   2.393   1.944   8.966
 7450WAT     H222593   2.424   1.798   8.899
 7451WAT      O22594   1.100   5.597   7.381
 7451WAT     H122595   1.029   5.581   7.312
 7451WAT     H222596   1.094   5.526   7.452
 7452WAT      O22597   0.954   1.578   9.503
 7452WAT     H122598   1.004   1.496   9.476
 7452WAT     H222599   0.907   1.616   9.423
 7453WAT      O22600   5.033   0.901   4.404
 7453WAT     H122601   4.988   0.846   4.335
 7453WAT     H222602   5.127   0.922   4.375
 7454WAT      O22603   9.790   4.488   4.455
 7454WAT     H122604   9.727   4.564   4.438
 7454WAT     H222605   9.838   4.504   4.541
 7455WAT      O22606   9.744   7.056   1.524
 7455WAT     H122607   9.826   7.084   1.474
 7455WAT     H222608   9.754   7.079   1.620
 7456WAT      O22609   9.135   2.716   4.344
 7456WAT     H122610   9.073   2.661   4.289
 7456WAT     H222611   9.114   2.813   4.332
 7457WAT      O22612   7.825   0.510   5.239
 7457WAT     H122613   7.772   0.426   5.229
 7457WAT     H222614   7.922   0.486   5.249
 7458WAT      O22615   8.427   1.092   5.334
 7458WAT     H122616   8.463   1.167   5.390
 7458WAT     H222617   8.327   1.095   5.335
 7459WAT      O22618   5.038   5.687   3.475
 7459WAT     H122619   5.080   5.623   3.539
 7459WAT     H222620   5.064   5.663   3.381
 7460WAT      O22621   0.514   6.572   3.056
 7460WAT     H122622   0.554   6.502   2.998
 7460WAT     H222623   0.542   6.556   3.151
 7461WAT      O22624   9.068   0.741   3.257
 7461WAT     H122625   9.061   0.690   3.171
 7461WAT     H222626   9.143   0.807   3.251
 7462WAT      O22627   0.383   4.987   6.186
 7462WAT     H122628   0.474   4.965   6.220
 7462WAT     H222629   0.345   5.064   6.239
 7463WAT      O22630   4.624   2.381   3.248
 7463WAT     H122631   4.704   2.362   3.305
 7463WAT     H222632   4.652   2.384   3.152
 7464WAT      O22633   6.525   9.455   3.218
 7464WAT     H122634   6.509   9.388   3.147
 7464WAT     H222635   6.567   9.537   3.179
 7465WAT      O22636   1.758   9.117   9.785
 7465WAT     H122637   1.662   9.092   9.798
 7465WAT     H222638   1.812   9.084   9.862
 7466WAT      O22639   8.491   8.299   2.393
 7466WAT     H122640   8.490   8.371   2.462
 7466WAT     H222641   8.420   8.317   2.325
 7467WAT      O22642   4.101   2.488   1.286
 7467WAT     H122643   4.139   2.426   1.354
 7467WAT     H222644   4.131   2.581   1.306
 7468WAT      O22645   7.282   1.230   3.490
 7468WAT     H122646   7.209   1.171   3.455
 7468WAT     H222647   7.270   1.244   3.588
 7469WAT      O22648   6.027   2.747   0.902
 7469WAT     H122649   6.044   2.737   1.000
 7469WAT     H222650   5.928   2.742   0.885
 7470WAT      O22651   0.661   2.456   3.670
 7470WAT     H122652   0.654   2.408   3.583
 7470WAT     H222653   0.587   2.522   3.678
 7471WAT      O22654   4.157   5.121   1.338
 7471WAT     H122655   4.254   5.134   1.359
 7471WAT     H222656   4.103   5.124   1.422
 7472WAT      O22657   0.150   2.598   0.830
 7472WAT     H122658   0.222   2.667   0.834
 7472WAT     H222659   0.181   2.514   0.875
 7473WAT      O22660   9.768   9.290   4.350
 7473WAT     H122661   9.716   9.217   4.395
 7473WAT     H222662   9.709   9.370   4.337
 7474WAT      O22663   3.026   7.236   9.473
 7474WAT     H122664   2.968   7.240   9.391
 7474WAT     H222665   2.975   7.273   9.551
 7475WAT      O22666   1.594   8.703   2.443
 7475WAT     H122667   1.579   8.643   2.522
 7475WAT     H222668   1.515   8.698   2.382
 7476WAT      O22669   4.083   8.460   5.581
 7476WAT     H122670   4.052   8.544   5.626
 7476WAT     H222671   4.151   8.482   5.511
 7477WAT      O22672   1.601   8.507   7.313
 7477WAT     H122673   1.526   8.484   7.252
 7477WAT     H222674   1.584   8.597   7.355
 7478WAT      O22675   8.667   7.569   4.433
 7478WAT     H122676   8.707   7.659   4.452
 7478WAT     H222677   8.726   7.498   4.468
 7479WAT      O22678   4.703   4.787   6.740
 7479WAT     H122679   4.631   4.856   6.748
 7479WAT     H222680   4.743   4.791   6.648
 7480WAT      O22681   9.035   3.562   7.115
 7480WAT     H122682   9.132   3.570   7.093
 7480WAT     H222683   8.995   3.654   7.119
 7481WAT      O22684   3.920   0.229   5.303
 7481WAT     H122685   3.894   0.314   5.258
 7481WAT     H222686   3.957   0.165   5.235
 7482WAT      O22687   9.095   0.700   9.522
 7482WAT     H122688   9.137   0.791   9.524
 7482WAT     H222689   9.136   0.645   9.450
 7483WAT      O22690   6.133   8.132   5.610
 7483WAT     H122691   6.214   8.080   5.584
 7483WAT     H222692   6.107   8.108   5.703
 7484WAT      O22693   0.086   0.892   1.884
 7484WAT     H122694   0.133   0.817   1.931
 7484WAT     H222695  -0.006   0.903   1.922
 7485WAT      O22696   3.232   2.993   8.780
 7485WAT     H122697   3.256   3.021   8.687
 7485WAT     H222698   3.299   3.030   8.845
 7486WAT      O22699   0.150   4.794   4.459
 7486WAT     H122700   0.223   4.757   4.516
 7486WAT     H222701   0.187   4.866   4.401
 7487WAT      O22702   5.532   5.839   8.680
 7487WAT     H122703   5.548   5.791   8.766
 7487WAT     H222704   5.434   5.843   8.662
 7488WAT      O22705   5.276   7.558   3.036
 7488WAT     H122706   5.303   7.626   2.967
 7488WAT     H222707   5.357   7.522   3.081
 7489WAT      O22708   6.175   8.424   7.831
 7489WAT     H122709   6.091   8.394   7.876
 7489WAT     H222710   6.244   8.444   7.900
 7490WAT      O22711   0.487   5.075   5.171
 7490WAT     H122712   0.441   4.994   5.134
 7490WAT     H222713   0.508   5.139   5.096
 7491WAT      O22714   8.645   6.874   7.849
 7491WAT     H122715   8.672   6.887   7.944
 7491WAT     H222716   8.716   6.822   7.801
 7492WAT      O22717   0.040   2.718   2.436
 7492WAT     H122718   0.109   2.673   2.493
 7492WAT     H222719   0.011   2.656   2.363
 7493WAT      O22720   0.350   8.950   2.087
 7493WAT     H122721   0.420   9.010   2.048
 7493WAT     H222722   0.291   9.003   2.149
 7494WAT      O22723   4.525   1.899   2.301
 7494WAT     H122724   4.516   1.958   2.381
 7494WAT     H222725   4.611   1.849   2.305
 7495WAT      O22726   4.902   2.764   4.498
 7495WAT     H122727   4.924   2.780   4.402
 7495WAT     H222728   4.861   2.846   4.537
 7496WAT      O22729   0.204   4.500   8.085
 7496WAT     H122730   0.220   4.428   8.152
 7496WAT     H222731   0.134   4.563   8.119
 7497WAT      O22732   1.341   5.746   4.233
 7497WAT     H122733   1.397   5.813   4.281
 7497WAT     H222734   1.390   5.716   4.150
 7498WAT      O22735   8.921   2.362   9.080
 7498WAT     H122736   8.931   2.456   9.048
 7498WAT     H222737   8.985   2.303   9.032
 7499WAT      O22738   4.471   4.895   9.809
 7499WAT     H122739   4.477   4.796   9.817
 7499WAT     H222740   4.534   4.927   9.739
 7500WAT      O22741   6.761   0.031   3.038
 7500WAT     H122742   6.696  -0.040   3.063
 7500WAT     H222743   6.791   0.018   2.944
 7501WAT      O22744   1.297   7.968   7.919
 7501WAT     H122745   1.312   7.948   7.822
 7501WAT     H222746   1.240   8.049   7.928
 7502WAT      O22747   2.010   2.161   9.630
 7502WAT     H122748   2.003   2.124   9.537
 7502WAT     H222749   2.027   2.087   9.695
 7503WAT      O22750   0.908   4.720   1.874
 7503WAT     H122751   0.952   4.791   1.929
 7503WAT     H222752   0.873   4.761   1.790
 7504WAT      O22753   2.561   0.438   5.829
 7504WAT     H122754   2.485   0.386   5.867
 7504WAT     H222755   2.527   0.527   5.797
 7505WAT      O22756   6.336   9.461   5.095
 7505WAT     H122757   6.399   9.386   5.115
 7505WAT     H222758   6.382   9.548   5.113
 7506WAT      O22759   2.096   6.910   2.280
 7506WAT     H122760   2.043   6.911   2.364
 7506WAT     H222761   2.183   6.863   2.296
 7507WAT      O22762   2.193   1.140   9.699
 7507WAT     H122763   2.159   1.050   9.671
 7507WAT     H222764   2.292   1.135   9.713
 7508WAT      O22765   5.301   6.355   8.969
 7508WAT     H122766   5.252   6.330   9.052
 7508WAT     H222767   5.350   6.276   8.933
 7509WAT      O22768   9.567   1.832   0.345
 7509WAT     H122769   9.514   1.916   0.331
 7509WAT     H222770   9.631   1.846   0.420
 7510WAT      O22771   9.228   2.045   7.210
 7510WAT     H122772   9.215   1.951   7.244
 7510WAT     H222773   9.177   2.057   7.125
 7511WAT      O22774   1.832   0.214   4.678
 7511WAT     H122775   1.774   0.244   4.754
 7511WAT     H222776   1.910   0.162   4.713
 7512WAT      O22777   4.444   6.036   5.268
 7512WAT     H122778   4.396   5.953   5.238
 7512WAT     H222779   4.396   6.116   5.233
 7513WAT      O22780   2.470   4.819   5.802
 7513WAT     H122781   2.500   4.736   5.849
 7513WAT     H222782   2.468   4.803   5.703
 7514WAT      O22783   4.159   0.017   1.376
 7514WAT     H122784   4.116   0.017   1.466
 7514WAT     H222785   4.258   0.021   1.386
 7515WAT      O22786   8.719   2.955   6.846
 7515WAT     H122787   8.737   2.999   6.934
 7515WAT     H222788   8.802   2.957   6.790
 7516WAT      O22789   7.965   0.335   3.989
 7516WAT     H122790   7.996   0.419   3.944
 7516WAT     H222791   7.882   0.354   4.042
 7517WAT      O22792   6.607   7.248   7.483
 7517WAT     H122793   6.609   7.344   7.509
 7517WAT     H222794   6.697   7.207   7.499
 7518WAT      O22795   1.833   2.491   4.347
 7518WAT     H122796   1.861   2.404   4.307
 7518WAT     H222797   1.817   2.479   4.445
 7519WAT      O22798   1.903   3.888   4.654
 7519WAT     H122799   1.839   3.930   4.589
 7519WAT     H222800   1.907   3.790   4.637
 7520WAT      O22801   7.309   6.322   0.345
 7520WAT     H122802   7.231   6.315   0.406
 7520WAT     H222803   7.290   6.272   0.260
 7521WAT      O22804   4.843   6.569   4.399
 7521WAT     H122805   4.840   6.473   4.426
 7521WAT     H222806   4.917   6.615   4.447
 7522WAT      O22807   9.734   3.048   7.976
 7522WAT     H122808   9.793   3.043   7.896
 7522WAT     H222809   9.758   2.974   8.040
 7523WAT      O22810   3.046   3.230   8.396
 7523WAT     H122811   3.054   3.237   8.496
 7523WAT     H222812   3.130   3.264   8.354
 7524WAT      O22813   0.499   6.017   2.795
 7524WAT     H122814   0.445   5.935   2.780
 7524WAT     H222815   0.438   6.096   2.806
 7525WAT      O22816   5.589   2.401   8.308
 7525WAT     H122817   5.627   2.453   8.384
 7525WAT     H222818   5.621   2.306   8.314
 7526WAT      O22819   7.468   3.010   8.404
 7526WAT     H122820   7.464   3.044   8.498
 7526WAT     H222821   7.451   2.912   8.404
 7527WAT      O22822   6.849   4.369   6.561
 7527WAT     H122823   6.775   4.312   6.526
 7527WAT     H222824   6.827   4.400   6.653
 7528WAT      O22825   4.201   5.379   8.327
 7528WAT     H122826   4.215   5.343   8.235
 7528WAT     H222827   4.239   5.471   8.333
 7529WAT      O22828   2.861   8.640   6.718
 7529WAT     H122829   2.838   8.647   6.815
 7529WAT     H222830   2.802   8.572   6.675
 7530WAT      O22831   0.043   0.286   6.574
 7530WAT     H122832  -0.009   0.209   6.611
 7530WAT     H222833   0.032   0.289   6.475
 7531WAT      O22834   2.643   5.475   4.884
 7531WAT     H122835   2.682   5.402   4.828
 7531WAT     H222836   2.717   5.531   4.922
 7532WAT      O22837   5.897   3.820   6.265
 7532WAT     H122838   5.977   3.775   6.307
 7532WAT     H222839   5.849   3.754   6.207
 7533WAT      O22840   2.345   2.251   4.694
 7533WAT     H122841   2.440   2.228   4.712
 7533WAT     H222842   2.302   2.286   4.778
 7534WAT      O22843   1.649   9.340   8.610
 7534WAT     H122844   1.553   9.332   8.639
 7534WAT     H222845   1.678   9.253   8.569
 7535WAT      O22846   7.242   0.597   4.072
 7535WAT     H122847   7.223   0.512   4.024
 7535WAT     H222848   7.341   0.613   4.074
 7536WAT      O22849   1.104   5.496   2.628
 7536WAT     H122850   1.085   5.518   2.723
 7536WAT     H222851   1.018   5.478   2.580
 7537WAT      O22852   2.426   7.644   8.965
 7537WAT     H122853   2.374   7.727   8.987
 7537WAT     H222854   2.407   7.617   8.870
 7538WAT      O22855   7.162   4.177   9.369
 7538WAT     H122856   7.112   4.170   9.455
 7538WAT     H222857   7.098   4.175   9.293
 7539WAT      O22858   1.029   4.062   3.754
 7539WAT     H122859   1.020   4.150   3.708
 7539WAT     H222860   0.954   4.002   3.726
 7540WAT      O22861   0.522   8.390   0.208
 7540WAT     H122862   0.530   8.292   0.192
 7540WAT     H222863   0.425   8.417   0.205
 7541WAT      O22864   9.773   7.878   9.197
 7541WAT     H122865   9.816   7.788   9.205
 7541WAT     H222866   9.844   7.948   9.198
 7542WAT      O22867   3.081   0.535   0.896
 7542WAT     H122868   3.143   0.600   0.852
 7542WAT     H222869   2.990   0.576   0.902
 7543WAT      O22870   9.280   7.991   1.072
 7543WAT     H122871   9.198   7.937   1.089
 7543WAT     H222872   9.361   7.932   1.072
 7544WAT      O22873   4.389   3.629   3.572
 7544WAT     H122874   4.398   3.729   3.565
 7544WAT     H222875   4.310   3.606   3.629
 7545WAT      O22876   0.647   2.257   9.636
 7545WAT     H122877   0.695   2.177   9.672
 7545WAT     H222878   0.634   2.246   9.537
 7546WAT      O22879   7.840   1.484   5.251
 7546WAT     H122880   7.871   1.390   5.235
 7546WAT     H222881   7.740   1.485   5.261
 7547WAT      O22882   1.170   7.666   5.155
 7547WAT     H122883   1.236   7.683   5.229
 7547WAT     H222884   1.093   7.614   5.191
 7548WAT      O22885   8.180   6.409   1.084
 7548WAT     H122886   8.260   6.467   1.103
 7548WAT     H222887   8.106   6.433   1.147
 7549WAT      O22888   5.839   5.624   5.211
 7549WAT     H122889   5.936   5.600   5.211
 7549WAT     H222890   5.810   5.643   5.117
 7550WAT      O22891   3.649   4.286   4.127
 7550WAT     H122892   3.612   4.271   4.035
 7550WAT     H222893   3.748   4.270   4.126
 7551WAT      O22894   2.656   3.408   0.963
 7551WAT     H122895   2.738   3.445   0.918
 7551WAT     H222896   2.605   3.482   1.006
 7552WAT      O22897   3.045   4.615   1.403
 7552WAT     H122898   2.977   4.548   1.373
 7552WAT     H222899   3.002   4.680   1.466
 7553WAT      O22900   3.360   9.299   8.165
 7553WAT     H122901   3.332   9.289   8.260
 7553WAT     H222902   3.326   9.386   8.130
 7554WAT      O22903   4.478   1.944   8.066
 7554WAT     H122904   4.464   2.000   7.985
 7554WAT     H222905   4.571   1.906   8.064
 7555WAT      O22906   8.576   5.339   2.062
 7555WAT     H122907   8.530   5.264   2.015
 7555WAT     H222908   8.652   5.372   2.006
 7556WAT      O22909   5.077   0.923   9.754
 7556WAT     H122910   5.055   0.837   9.708
 7556WAT     H222911   5.011   0.939   9.828
 7557WAT      O22912   0.211   2.570   0.495
 7557WAT     H122913   0.240   2.474   0.496
 7557WAT     H222914   0.158   2.589   0.578
 7558WAT      O22915   2.167   1.779   8.952
 7558WAT     H122916   2.197   1.848   8.886
 7558WAT     H222917   2.084   1.735   8.918
 7559WAT      O22918   5.360   2.338   2.874
 7559WAT     H122919   5.379   2.339   2.776
 7559WAT     H222920   5.380   2.428   2.913
 7560WAT      O22921   1.459   7.235   6.252
 7560WAT     H122922   1.444   7.241   6.153
 7560WAT     H222923   1.373   7.252   6.300
 7561WAT      O22924   7.397   4.293   2.827
 7561WAT     H122925   7.374   4.207   2.874
 7561WAT     H222926   7.373   4.285   2.730
 7562WAT      O22927   3.883   4.788   3.934
 7562WAT     H122928   3.854   4.724   4.005
 7562WAT     H222929   3.968   4.757   3.893
 7563WAT      O22930   2.946   1.004   3.244
 7563WAT     H122931   2.904   1.000   3.154
 7563WAT     H222932   2.876   0.996   3.315
 7564WAT      O22933   4.672   0.827   7.457
 7564WAT     H122934   4.660   0.873   7.545
 7564WAT     H222935   4.755   0.861   7.412
 7565WAT      O22936   3.223   2.908   6.153
 7565WAT     H122937   3.132   2.948   6.161
 7565WAT     H222938   3.228   2.854   6.069
 7566WAT      O22939   7.176   9.217   7.239
 7566WAT     H122940   7.250   9.267   7.194
 7566WAT     H222941   7.147   9.266   7.321
 7567WAT      O22942   3.327   4.107   7.719
 7567WAT     H122943   3.247   4.138   7.668
 7567WAT     H222944   3.355   4.017   7.685
 7568WAT      O22945   8.627   2.421   2.892
 7568WAT     H122946   8.536   2.422   2.849
 7568WAT     H222947   8.644   2.331   2.932
 7569WAT      O22948   6.548   7.208   9.431
 7569WAT     H122949   6.469   7.176   9.379
 7569WAT     H222950   6.630   7.202   9.373
 7570WAT      O22951   9.837   7.019   2.327
 7570WAT     H122952   9.865   6.931   2.290
 7570WAT     H222953   9.771   7.062   2.265
 7571WAT      O22954   0.477   9.093   4.050
 7571WAT     H122955   0.400   9.096   4.114
 7571WAT     H222956   0.488   9.182   4.006
 7572WAT      O22957   5.338   9.454   7.764
 7572WAT     H122958   5.406   9.454   7.691
 7572WAT     H222959   5.252   9.492   7.730
 7573WAT      O22960   2.591   1.194   9.223
 7573WAT     H122961   2.664   1.246   9.267
 7573WAT     H222962   2.615   1.176   9.127
 7574WAT      O22963   4.137   9.623   7.260
 7574WAT     H122964   4.131   9.555   7.332
 7574WAT     H222965   4.174   9.581   7.177
 7575WAT      O22966   5.071   7.161   8.534
 7575WAT     H122967   5.100   7.224   8.461
 7575WAT     H222968   5.100   7.068   8.511
 7576WAT      O22969   1.597   9.450   4.543
 7576WAT     H122970   1.542   9.418   4.620
 7576WAT     H222971   1.562   9.537   4.510
 7577WAT      O22972   3.723   7.485   4.051
 7577WAT     H122973   3.760   7.429   3.976
 7577WAT     H222974   3.790   7.489   4.125
 7578WAT      O22975   7.345   8.209   8.675
 7578WAT     H122976   7.250   8.218   8.645
 7578WAT     H222977   7.377   8.116   8.657
 7579WAT      O22978   7.335   1.065   0.784
 7579WAT     H122979   7.255   1.085   0.728
 7579WAT     H222980   7.378   0.981   0.752
 7580WAT      O22981   5.536   1.280   1.372
 7580WAT     H122982   5.485   1.334   1.305
 7580WAT     H222983   5.555   1.190   1.335
 7581WAT      O22984   7.257   1.582   8.314
 7581WAT     H122985   7.174   1.611   8.266
 7581WAT     H222986   7.317   1.661   8.329
 7582WAT      O22987   1.211   7.065   7.419
 7582WAT     H122988   1.235   6.990   7.481
 7582WAT     H222989   1.142   7.124   7.463
 7583WAT      O22990   4.431   5.856   1.829
 7583WAT     H122991   4.366   5.926   1.860
 7583WAT     H222992   4.520   5.874   1.871
 7584WAT      O22993   8.109   3.541   0.457
 7584WAT     H122994   8.070   3.511   0.544
 7584WAT     H222995   8.188   3.600   0.475
 7585WAT      O22996   9.888   6.718   4.802
 7585WAT     H122997   9.848   6.806   4.778
 7585WAT     H222998   9.882   6.656   4.723
 7586WAT      O22999   3.526   7.113   2.415
 7586WAT     H123000   3.531   7.211   2.435
 7586WAT     H223001   3.431   7.083   2.424
 7587WAT      O23002   9.654   4.898   9.814
 7587WAT     H123003   9.582   4.906   9.746
 7587WAT     H223004   9.657   4.805   9.849
 7588WAT      O23005   3.521   7.781   1.387
 7588WAT     H123006   3.621   7.785   1.392
 7588WAT     H223007   3.482   7.850   1.448
 7589WAT      O23008   9.297   3.670   1.792
 7589WAT     H123009   9.279   3.583   1.746
 7589WAT     H223010   9.234   3.679   1.870
 7590WAT      O23011   0.528   6.502   6.661
 7590WAT     H123012   0.448   6.550   6.696
 7590WAT     H223013   0.592   6.485   6.737
 7591WAT      O23014   4.409   5.065   6.438
 7591WAT     H123015   4.436   5.158   6.415
 7591WAT     H223016   4.332   5.038   6.381
 7592WAT      O23017   3.058   8.505   4.735
 7592WAT     H123018   3.028   8.435   4.799
 7592WAT     H223019   3.130   8.561   4.777
 7593WAT      O23020   7.884   5.070   7.688
 7593WAT     H123021   7.964   5.092   7.632
 7593WAT     H223022   7.889   5.122   7.774
 7594WAT      O23023   3.554   4.445   9.280
 7594WAT     H123024   3.495   4.471   9.204
 7594WAT     H223025   3.590   4.527   9.325
 7595WAT      O23026   1.730   6.491   7.623
 7595WAT     H123027   1.724   6.392   7.612
 7595WAT     H223028   1.819   6.516   7.661
 7596WAT      O23029   6.587   4.081   8.622
 7596WAT     H123030   6.677   4.076   8.666
 7596WAT     H223031   6.595   4.129   8.535
 7597WAT      O23032   7.762   0.919   6.826
 7597WAT     H123033   7.815   0.942   6.907
 7597WAT     H223034   7.665   0.935   6.843
 7598WAT      O23035   1.511   3.277   9.809
 7598WAT     H123036   1.500   3.287   9.908
 7598WAT     H223037   1.489   3.183   9.782
 7599WAT      O23038   2.917   2.911   6.165
 7599WAT     H123039   2.927   2.853   6.246
 7599WAT     H223040   2.860   2.863   6.097
 7600WAT      O23041   2.687   9.750   1.839
 7600WAT     H123042   2.710   9.705   1.925
 7600WAT     H223043   2.683   9.849   1.853
 7601WAT      O23044   9.732   4.074   6.623
 7601WAT     H123045   9.785   4.141   6.674
 7601WAT     H223046   9.758   4.076   6.527
 7602WAT      O23047   8.000   5.507   1.009
 7602WAT     H123048   7.928   5.465   0.954
 7602WAT     H223049   7.959   5.574   1.071
 7603WAT      O23050   6.972   8.453   1.118
 7603WAT     H123051   6.906   8.414   1.054
 7603WAT     H223052   6.925   8.515   1.180
 7604WAT      O23053   5.033   2.273   3.824
 7604WAT     H123054   5.113   2.218   3.849
 7604WAT     H223055   5.062   2.350   3.767
 7605WAT      O23056   9.044   5.449   2.851
 7605WAT     H123057   9.104   5.520   2.889
 7605WAT     H223058   9.057   5.444   2.752
 7606WAT      O23059   2.183   9.786   9.300
 7606WAT     H123060   2.179   9.885   9.313
 7606WAT     H223061   2.242   9.765   9.222
 7607WAT      O23062   8.886   6.134   7.754
 7607WAT     H123063   8.872   6.117   7.657
 7607WAT     H223064   8.834   6.068   7.808
 7608WAT      O23065   1.905   1.949   4.564
 7608WAT     H123066   1.981   2.012   4.577
 7608WAT     H223067   1.904   1.882   4.639
 7609WAT      O23068   5.764   1.211   0.853
 7609WAT     H123069   5.825   1.239   0.928
 7609WAT     H223070   5.724   1.122   0.874
 7610WAT      O23071   2.763   4.593   7.872
 7610WAT     H123072   2.800   4.600   7.965
 7610WAT     H223073   2.663   4.594   7.876
 7611WAT      O23074   9.610   4.520   8.537
 7611WAT     H123075   9.635   4.616   8.548
 7611WAT     H223076   9.674   4.476   8.474
 7612WAT      O23077   1.303   0.959   0.092
 7612WAT     H123078   1.242   1.038   0.084
 7612WAT     H223079   1.268   0.884   0.036
 7613WAT      O23080   1.345   2.640   5.644
 7613WAT     H123081   1.319   2.558   5.694
 7613WAT     H223082   1.378   2.614   5.553
 7614WAT      O23083   4.537   0.061   9.792
 7614WAT     H123084   4.535  -0.037   9.811
 7614WAT     H223085   4.457   0.085   9.737
 7615WAT      O23086   0.488   0.778   4.151
 7615WAT     H123087   0.522   0.732   4.233
 7615WAT     H223088   0.436   0.713   4.096
 7616WAT      O23089   9.392   0.653   4.352
 7616WAT     H123090   9.448   0.582   4.394
 7616WAT     H223091   9.433   0.680   4.265
 7617WAT      O23092   6.217   1.822   0.040
 7617WAT     H123093   6.134   1.870   0.069
 7617WAT     H223094   6.284   1.824   0.114
 7618WAT      O23095   6.795   3.066   9.720
 7618WAT     H123096   6.768   2.995   9.655
 7618WAT     H223097   6.727   3.072   9.794
 7619WAT      O23098   0.413   2.218   4.248
 7619WAT     H123099   0.419   2.314   4.273
 7619WAT     H223100   0.386   2.164   4.328
 7620WAT      O23101   7.652   4.412   4.841
 7620WAT     H123102   7.659   4.321   4.884
 7620WAT     H223103   7.608   4.404   4.752
 7621WAT      O23104   2.633   8.562   9.782
 7621WAT     H123105   2.641   8.657   9.752
 7621WAT     H223106   2.586   8.559   9.870
 7622WAT      O23107   6.472   2.995   3.237
 7622WAT     H123108   6.381   3.036   3.226
 7622WAT     H223109   6.483   2.919   3.173
 7623WAT      O23110   0.585   7.156   9.673
 7623WAT     H123111   0.512   7.106   9.628
 7623WAT     H223112   0.546   7.230   9.728
 7624WAT      O23113   0.270   8.326   8.769
 7624WAT     H123114   0.314   8.403   8.722
 7624WAT     H223115   0.298   8.240   8.726
 7625WAT      O23116   6.025   3.357   0.619
 7625WAT     H123117   6.032   3.258   0.633
 7625WAT     H223118   6.113   3.400   0.639
 7626WAT      O23119   1.346   2.688   1.300
 7626WAT     H123120   1.442   2.711   1.316
 7626WAT     H223121   1.341   2.606   1.242
 7627WAT      O23122   4.976   1.830   3.130
 7627WAT     H123123   5.008   1.921   3.157
 7627WAT     H223124   4.993   1.816   3.033
 7628WAT      O23125   9.358   5.807   6.554
 7628WAT     H123126   9.387   5.874   6.485
 7628WAT     H223127   9.312   5.854   6.629
 7629WAT      O23128   9.264   4.833   9.443
 7629WAT     H123129   9.293   4.739   9.424
 7629WAT     H223130   9.179   4.831   9.497
 7630WAT      O23131   3.922   1.942   6.879
 7630WAT     H123132   3.899   1.896   6.965
 7630WAT     H223133   3.860   1.910   6.807
 7631WAT      O23134   7.842   5.331   4.874
 7631WAT     H123135   7.866   5.244   4.917
 7631WAT     H223136   7.877   5.332   4.780
 7632WAT      O23137   2.640   9.061   9.092
 7632WAT     H123138   2.700   9.103   9.160
 7632WAT     H223139   2.618   9.129   9.022
 7633WAT      O23140   9.543   2.649   0.116
 7633WAT     H123141   9.528   2.567   0.061
 7633WAT     H223142   9.582   2.624   0.204
 7634WAT      O23143   3.361   3.694   6.607
 7634WAT     H123144   3.406   3.754   6.541
 7634WAT     H223145   3.279   3.740   6.643
 7635WAT      O23146   3.865   0.604   4.557
 7635WAT     H123147   3.964   0.603   4.549
 7635WAT     H223148   3.835   0.694   4.590
 7636WAT      O23149   3.595   7.298   2.603
 7636WAT     H123150   3.590   7.252   2.691
 7636WAT     H223151   3.633   7.390   2.615
 7637WAT      O23152   2.293   5.309   1.311
 7637WAT     H123153   2.364   5.273   1.371
 7637WAT     H223154   2.289   5.408   1.320
 7638WAT      O23155   8.338   4.223   2.546
 7638WAT     H123156   8.431   4.194   2.526
 7638WAT     H223157   8.274   4.156   2.507
 7639WAT      O23158   4.781   0.576   2.844
 7639WAT     H123159   4.800   0.478   2.854
 7639WAT     H223160   4.787   0.601   2.747
 7640WAT      O23161   8.944   1.028   9.796
 7640WAT     H123162   9.034   0.986   9.801
 7640WAT     H223163   8.888   0.996   9.873
 7641WAT      O23164   0.414   8.608   5.860
 7641WAT     H123165   0.375   8.624   5.951
 7641WAT     H223166   0.468   8.524   5.861
 7642WAT      O23167   8.266   5.552   6.127
 7642WAT     H123168   8.250   5.560   6.028
 7642WAT     H223169   8.315   5.467   6.146
 7643WAT      O23170   5.304   7.532   8.955
 7643WAT     H123171   5.354   7.446   8.941
 7643WAT     H223172   5.343   7.581   9.033
 7644WAT      O23173   8.015   1.218   2.217
 7644WAT     H123174   8.086   1.208   2.287
 7644WAT     H223175   8.058   1.226   2.127
 7645WAT      O23176   4.068   6.618   9.017
 7645WAT     H123177   4.095   6.529   8.980
 7645WAT     H223178   4.013   6.605   9.100
 7646WAT      O23179   3.128   2.161   8.931
 7646WAT     H123180   3.159   2.126   8.843
 7646WAT     H223181   3.076   2.245   8.917
 7647WAT      O23182   6.694   7.973   0.847
 7647WAT     H123183   6.785   7.932   0.858
 7647WAT     H223184   6.627   7.900   0.833
 7648WAT      O23185   7.943   9.112   2.093
 7648WAT     H123186   7.952   9.128   2.192
 7648WAT     H223187   8.025   9.065   2.060
 7649WAT      O23188   8.338   5.976   3.345
 7649WAT     H123189   8.401   5.947   3.418
 7649WAT     H223190   8.250   5.930   3.356
 7650WAT      O23191   4.135   0.317   2.027
 7650WAT     H123192   4.044   0.314   1.985
 7650WAT     H223193   4.168   0.411   2.027
 7651WAT      O23194   1.757   8.123   2.161
 7651WAT     H123195   1.728   8.075   2.078
 7651WAT     H223196   1.756   8.222   2.144
 7652WAT      O23197   8.749   6.711   4.428
 7652WAT     H123198   8.709   6.670   4.510
 7652WAT     H223199   8.848   6.719   4.440
 7653WAT      O23200   8.645   3.827   0.772
 7653WAT     H123201   8.653   3.734   0.734
 7653WAT     H223202   8.560   3.868   0.740
 7654WAT      O23203   7.457   8.623   6.302
 7654WAT     H123204   7.413   8.675   6.229
 7654WAT     H223205   7.504   8.686   6.364
 7655WAT      O23206   9.121   1.906   9.095
 7655WAT     H123207   9.098   1.808   9.090
 7655WAT     H223208   9.066   1.949   9.166
 7656WAT      O23209   8.714   3.778   4.967
 7656WAT     H123210   8.796   3.819   4.927
 7656WAT     H223211   8.730   3.680   4.983
 7657WAT      O23212   4.602   7.281   6.275
 7657WAT     H123213   4.591   7.183   6.294
 7657WAT     H223214   4.567   7.333   6.353
 7658WAT      O23215   0.923   3.503   6.792
 7658WAT     H123216   0.964   3.587   6.757
 7658WAT     H223217   0.915   3.436   6.718
 7659WAT      O23218   9.606   8.119   0.669
 7659WAT     H123219   9.536   8.089   0.733
 7659WAT     H223220   9.563   8.143   0.581
 7660WAT      O23221   2.981   3.235   5.530
 7660WAT     H123222   2.976   3.328   5.565
 7660WAT     H223223   3.073   3.198   5.546
 7661WAT      O23224   9.121   6.117   4.659
 7661WAT     H123225   9.055   6.071   4.719
 7661WAT     H223226   9.089   6.111   4.564
 7662WAT      O23227   6.824   9.536   7.016
 7662WAT     H123228   6.815   9.455   6.959
 7662WAT     H223229   6.884   9.515   7.094
 7663WAT      O23230   4.683   7.492   4.888
 7663WAT     H123231   4.635   7.579   4.903
 7663WAT     H223232   4.713   7.486   4.793
 7664WAT      O23233   1.089   4.084   5.613
 7664WAT     H123234   1.080   4.144   5.693
 7664WAT     H223235   1.055   4.132   5.532
 7665WAT      O23236   3.894   1.731   5.267
 7665WAT     H123237   3.981   1.768   5.234
 7665WAT     H223238   3.905   1.698   5.361
 7666WAT      O23239   9.307   9.737   2.207
 7666WAT     H123240   9.302   9.816   2.269
 7666WAT     H223241   9.221   9.729   2.157
 7667WAT      O23242   9.427   4.960   7.297
 7667WAT     H123243   9.427   5.016   7.214
 7667WAT     H223244   9.398   4.867   7.275
 7668WAT      O23245   4.081   8.404   0.126
 7668WAT     H123246   4.048   8.321   0.080
 7668WAT     H223247   4.019   8.428   0.200
 7669WAT      O23248   0.629   5.272   2.171
 7669WAT     H123249   0.610   5.338   2.098
 7669WAT     H223250   0.603   5.313   2.259
 7670WAT      O23251   2.129   4.735   4.539
 7670WAT     H123252   2.156   4.640   4.524
 7670WAT     H223253   2.051   4.738   4.602
 7671WAT      O23254   9.399   6.873   0.483
 7671WAT     H123255   9.436   6.911   0.567
 7671WAT     H223256   9.299   6.871   0.489
 7672WAT      O23257   0.907   3.769   9.482
 7672WAT     H123258   0.863   3.688   9.444
 7672WAT     H223259   0.970   3.742   9.554
 7673WAT      O23260   6.234   3.397   3.836
 7673WAT     H123261   6.205   3.338   3.910
 7673WAT     H223262   6.235   3.345   3.750
 7674WAT      O23263   0.507   5.720   6.869
 7674WAT     H123264   0.555   5.807   6.857
 7674WAT     H223265   0.574   5.647   6.883
 7675WAT      O23266   1.158   3.273   2.263
 7675WAT     H123267   1.224   3.307   2.197
 7675WAT     H223268   1.104   3.349   2.298
 7676WAT      O23269   8.154   6.943   8.186
 7676WAT     H123270   8.136   6.982   8.277
 7676WAT     H223271   8.219   7.002   8.137
 7677WAT      O23272   2.869   7.421   0.066
 7677WAT     H123273   2.829   7.409   0.157
 7677WAT     H223274   2.798   7.447   0.001
 7678WAT      O23275   9.456   4.381   6.756
 7678WAT     H123276   9.532   4.401   6.695
 7678WAT     H223277   9.426   4.466   6.800
 7679WAT      O23278   0.848   6.013   0.745
 7679WAT     H123279   0.869   6.110   0.759
 7679WAT     H223280   0.874   5.961   0.827
 7680WAT      O23281   4.354   6.607   9.301
 7680WAT     H123282   4.267   6.601   9.350
 7680WAT     H223283   4.339   6.650   9.212
 7681WAT      O23284   2.282   8.392   0.763
 7681WAT     H123285   2.333   8.306   0.769
 7681WAT     H223286   2.271   8.429   0.855
 7682WAT      O23287   0.010   0.794   1.182
 7682WAT     H123288   0.073   0.869   1.165
 7682WAT     H223289   0.062   0.711   1.204
 7683WAT      O23290   4.825   2.954   1.503
 7683WAT     H123291   4.888   3.032   1.502
 7683WAT     H223292   4.732   2.987   1.485
 7684WAT      O23293   9.354   6.596   3.582
 7684WAT     H123294   9.282   6.643   3.530
 7684WAT     H223295   9.325   6.502   3.599
 7685WAT      O23296   1.100   4.686   9.652
 7685WAT     H123297   1.119   4.647   9.562
 7685WAT     H223298   1.147   4.633   9.722
 7686WAT      O23299   6.711   5.288   4.029
 7686WAT     H123300   6.707   5.383   3.998
 7686WAT     H223301   6.624   5.264   4.074
 7687WAT      O23302   1.223   7.495   3.744
 7687WAT     H123303   1.143   7.528   3.794
 7687WAT     H223304   1.193   7.445   3.662
 7688WAT      O23305   2.250   1.869   4.668
 7688WAT     H123306   2.201   1.941   4.716
 7688WAT     H223307   2.228   1.780   4.710
 7689WAT      O23308   3.638   8.279   4.556
 7689WAT     H123309   3.707   8.348   4.577
 7689WAT     H223310   3.678   8.209   4.497
 7690WAT      O23311   3.786   9.734   6.886
 7690WAT     H123312   3.741   9.782   6.810
 7690WAT     H223313   3.733   9.750   6.970
 7691WAT      O23314   2.128   5.889   8.579
 7691WAT     H123315   2.157   5.984   8.569
 7691WAT     H223316   2.206   5.828   8.566
 7692WAT      O23317   4.083   5.697   0.786
 7692WAT     H123318   4.034   5.670   0.703
 7692WAT     H223319   4.084   5.797   0.793
 7693WAT      O23320   4.672   2.635   2.805
 7693WAT     H123321   4.752   2.589   2.844
 7693WAT     H223322   4.622   2.571   2.747
 7694WAT      O23323   4.767   3.160   1.183
 7694WAT     H123324   4.727   3.169   1.274
 7694WAT     H223325   4.700   3.120   1.120
 7695WAT      O23326   2.755   4.494   7.473
 7695WAT     H123327   2.655   4.499   7.473
 7695WAT     H223328   2.790   4.537   7.390
 7696WAT      O23329   0.137   5.931   6.583
 7696WAT     H123330   0.149   5.833   6.569
 7696WAT     H223331   0.061   5.946   6.646
 7697WAT      O23332   7.489   8.788   2.659
 7697WAT     H123333   7.583   8.822   2.664
 7697WAT     H223334   7.468   8.737   2.743
 7698WAT      O23335   3.264   9.134   9.498
 7698WAT     H123336   3.224   9.044   9.517
 7698WAT     H223337   3.354   9.123   9.457
 7699WAT      O23338   6.892   3.774   2.677
 7699WAT     H123339   6.891   3.796   2.579
 7699WAT     H223340   6.798   3.774   2.711
 7700WAT      O23341   4.605   2.713   3.996
 7700WAT     H123342   4.678   2.647   4.012
 7700WAT     H223343   4.597   2.773   4.075
 7701WAT      O23344   3.719   6.847   1.065
 7701WAT     H123345   3.812   6.882   1.056
 7701WAT     H223346   3.715   6.783   1.142
 7702WAT      O23347   4.449   1.705   1.755
 7702WAT     H123348   4.360   1.692   1.799
 7702WAT     H223349   4.477   1.800   1.764
 7703WAT      O23350   6.392   6.272   0.620
 7703WAT     H123351   6.347   6.354   0.654
 7703WAT     H223352   6.341   6.191   0.648
 7704WAT      O23353   3.663   9.568   1.324
 7704WAT     H123354   3.711   9.656   1.328
 7704WAT     H223355   3.711   9.501   1.380
 7705WAT      O23356   7.964   8.706   8.421
 7705WAT     H123357   8.034   8.737   8.357
 7705WAT     H223358   7.908   8.635   8.377
 7706WAT      O23359   1.425   4.518   9.542
 7706WAT     H123360   1.502   4.488   9.485
 7706WAT     H223361   1.403   4.613   9.520
 7707WAT      O23362   5.519   9.520   3.081
 7707WAT     H123363   5.463   9.453   3.130
 7707WAT     H223364   5.478   9.611   3.090
 7708WAT      O23365   8.453   5.603   8.864
 7708WAT     H123366   8.469   5.588   8.767
 7708WAT     H223367   8.532   5.574   8.917
 7709WAT      O23368   9.876   1.290   5.152
 7709WAT     H123369   9.822   1.208   5.133
 7709WAT     H223370   9.937   1.307   5.075
 7710WAT      O23371   3.773   9.317   7.360
 7710WAT     H123372   3.683   9.342   7.396
 7710WAT     H223373   3.818   9.257   7.425
 7711WAT      O23374   2.717   8.865   2.034
 7711WAT     H123375   2.780   8.820   1.972
 7711WAT     H223376   2.687   8.801   2.104
 7712WAT      O23377   3.426   5.268   7.297
 7712WAT     H123378   3.405   5.175   7.265
 7712WAT     H223379   3.407   5.333   7.224
 7713WAT      O23380   1.522   8.623   2.904
 7713WAT     H123381   1.458   8.547   2.891
 7713WAT     H223382   1.500   8.696   2.839
 7714WAT      O23383   4.540   8.786   8.525
 7714WAT     H123384   4.616   8.808   8.586
 7714WAT     H223385   4.566   8.710   8.466
 7715WAT      O23386   2.977   8.589   2.286
 7715WAT     H123387   2.989   8.624   2.193
 7715WAT     H223388   3.062   8.600   2.337
 7716WAT      O23389   6.792   0.425   3.625
 7716WAT     H123390   6.722   0.427   3.696
 7716WAT     H223391   6.846   0.341   3.632
 7717WAT      O23392   6.207   4.183   3.862
 7717WAT     H123393   6.235   4.193   3.958
 7717WAT     H223394   6.265   4.115   3.817
 7718WAT      O23395   2.626   2.722   9.602
 7718WAT     H123396   2.624   2.818   9.573
 7718WAT     H223397   2.616   2.718   9.702
 7719WAT      O23398   2.288   9.385   7.212
 7719WAT     H123399   2.309   9.482   7.207
 7719WAT     H223400   2.271   9.360   7.307
 7720WAT      O23401   2.511   8.949   1.863
 7720WAT     H123402   2.475   9.040   1.843
 7720WAT     H223403   2.591   8.956   1.922
 7721WAT      O23404   2.059   5.541   4.617
 7721WAT     H123405   2.094   5.632   4.595
 7721WAT     H223406   2.084   5.517   4.711
 7722WAT      O23407   8.893   8.340   7.643
 7722WAT     H123408   8.855   8.333   7.735
 7722WAT     H223409   8.826   8.307   7.576
 7723WAT      O23410   2.649   3.289   6.072
 7723WAT     H123411   2.623   3.202   6.114
 7723WAT     H223412   2.604   3.298   5.983
 7724WAT      O23413   8.043   3.939   1.232
 7724WAT     H123414   8.106   3.993   1.288
 7724WAT     H223415   8.012   3.994   1.154
 7725WAT      O23416   1.160   2.572   4.446
 7725WAT     H123417   1.207   2.631   4.513
 7725WAT     H223418   1.226   2.508   4.407
 7726WAT      O23419   3.493   2.513   0.077
 7726WAT     H123420   3.470   2.562   0.161
 7726WAT     H223421   3.439   2.550   0.001
 7727WAT      O23422   2.730   5.988   8.513
 7727WAT     H123423   2.775   6.065   8.559
 7727WAT     H223424   2.799   5.928   8.473
 7728WAT      O23425   7.277   9.706   2.910
 7728WAT     H123426   7.276   9.615   2.868
 7728WAT     H223427   7.311   9.699   3.004
 7729WAT      O23428   5.611   7.864   2.232
 7729WAT     H123429   5.532   7.820   2.274
 7729WAT     H223430   5.587   7.897   2.141
 7730WAT      O23431   1.044   8.810   1.278
 7730WAT     H123432   1.037   8.832   1.181
 7730WAT     H223433   1.067   8.893   1.330
 7731WAT      O23434   8.938   5.228   4.899
 7731WAT     H123435   8.930   5.132   4.872
 7731WAT     H223436   8.962   5.232   4.996
 7732WAT      O23437   4.304   3.626   7.740
 7732WAT     H123438   4.317   3.651   7.644
 7732WAT     H223439   4.376   3.563   7.767
 7733WAT      O23440   0.561   5.593   4.855
 7733WAT     H123441   0.553   5.665   4.787
 7733WAT     H223442   0.492   5.522   4.838
 7734WAT      O23443   2.239   8.075   4.986
 7734WAT     H123444   2.307   8.003   4.978
 7734WAT     H223445   2.179   8.055   5.064
 7735WAT      O23446   8.428   5.849   8.175
 7735WAT     H123447   8.393   5.832   8.267
 7735WAT     H223448   8.512   5.903   8.181
 7736WAT      O23449   8.471   1.087   4.019
 7736WAT     H123450   8.422   1.102   4.105
 7736WAT     H223451   8.501   1.175   3.982
 7737WAT      O23452   4.528   0.143   3.130
 7737WAT     H123453   4.608   0.156   3.188
 7737WAT     H223454   4.467   0.222   3.140
 7738WAT      O23455   8.810   3.887   7.374
 7738WAT     H123456   8.839   3.981   7.389
 7738WAT     H223457   8.721   3.872   7.415
 7739WAT      O23458   6.691   1.842   7.705
 7739WAT     H123459   6.619   1.808   7.644
 7739WAT     H223460   6.775   1.854   7.653
 7740WAT      O23461   5.351   1.191   5.456
 7740WAT     H123462   5.331   1.235   5.544
 7740WAT     H223463   5.441   1.147   5.461
 7741WAT      O23464   7.563   1.951   3.406
 7741WAT     H123465   7.615   1.879   3.451
 7741WAT     H223466   7.625   2.010   3.355
 7742WAT      O23467   6.822   7.816   3.596
 7742WAT     H123468   6.812   7.792   3.693
 7742WAT     H223469   6.914   7.851   3.579
 7743WAT      O23470   9.676   0.050   3.767
 7743WAT     H123471   9.722   0.044   3.678
 7743WAT     H223472   9.677   0.144   3.799
 7744WAT      O23473   6.493   2.579   9.075
 7744WAT     H123474   6.518   2.557   8.980
 7744WAT     H223475   6.532   2.510   9.136
 7745WAT      O23476   9.620   1.124   6.212
 7745WAT     H123477   9.714   1.119   6.247
 7745WAT     H223478   9.588   1.032   6.191
 7746WAT      O23479   4.109   1.535   0.156
 7746WAT     H123480   4.125   1.482   0.073
 7746WAT     H223481   4.070   1.624   0.132
 7747WAT      O23482   8.299   3.258   8.277
 7747WAT     H123483   8.271   3.352   8.257
 7747WAT     H223484   8.218   3.199   8.283
 7748WAT      O23485   9.650   4.570   1.292
 7748WAT     H123486   9.557   4.596   1.315
 7748WAT     H223487   9.649   4.486   1.237
 7749WAT      O23488   4.812   6.877   6.211
 7749WAT     H123489   4.761   6.891   6.296
 7749WAT     H223490   4.789   6.787   6.173
 7750WAT      O23491   6.919   3.485   9.744
 7750WAT     H123492   6.876   3.558   9.691
 7750WAT     H223493   6.857   3.454   9.816
 7751WAT      O23494   6.900   5.516   8.223
 7751WAT     H123495   6.837   5.546   8.151
 7751WAT     H223496   6.993   5.543   8.199
 7752WAT      O23497   6.308   1.124   0.134
 7752WAT     H123498   6.259   1.088   0.213
 7752WAT     H223499   6.300   1.224   0.133
 7753WAT      O23500   1.403   3.253   0.407
 7753WAT     H123501   1.412   3.325   0.339
 7753WAT     H223502   1.492   3.237   0.450
 7754WAT      O23503   0.531   1.422   3.828
 7754WAT     H123504   0.540   1.339   3.884
 7754WAT     H223505   0.460   1.480   3.867
 7755WAT      O23506   5.763   1.157   5.906
 7755WAT     H123507   5.713   1.083   5.952
 7755WAT     H223508   5.852   1.123   5.877
 7756WAT      O23509   4.600   5.043   1.074
 7756WAT     H123510   4.569   4.988   1.152
 7756WAT     H223511   4.598   5.140   1.098
 7757WAT      O23512   7.920   5.392   7.477
 7757WAT     H123513   7.967   5.446   7.547
 7757WAT     H223514   7.837   5.352   7.516
 7758WAT      O23515   1.625   2.202   2.951
 7758WAT     H123516   1.597   2.247   3.036
 7758WAT     H223517   1.701   2.140   2.970
 7759WAT      O23518   8.719   2.203   5.236
 7759WAT     H123519   8.794   2.137   5.226
 7759WAT     H223520   8.704   2.250   5.149
 7760WAT      O23521   2.344   0.466   9.428
 7760WAT     H123522   2.386   0.499   9.343
 7760WAT     H223523   2.382   0.516   9.505
 7761WAT      O23524   1.758   3.832   4.868
 7761WAT     H123525   1.807   3.852   4.783
 7761WAT     H223526   1.704   3.911   4.895
 7762WAT      O23527   8.384   4.967   3.681
 7762WAT     H123528   8.394   4.959   3.581
 7762WAT     H223529   8.389   4.876   3.722
 7763WAT      O23530   2.540   7.951   8.489
 7763WAT     H123531   2.440   7.946   8.484
 7763WAT     H223532   2.578   7.959   8.397
 7764WAT      O23533   0.659   4.339   7.422
 7764WAT     H123534   0.637   4.435   7.401
 7764WAT     H223535   0.574   4.288   7.439
 7765WAT      O23536   7.713   8.964   5.328
 7765WAT     H123537   7.807   8.972   5.360
 7765WAT     H223538   7.666   8.892   5.379
 7766WAT      O23539   3.379   6.651   3.607
 7766WAT     H123540   3.305   6.628   3.543
 7766WAT     H223541   3.461   6.676   3.556
 7767WAT      O23542   1.208   9.123   1.091
 7767WAT     H123543   1.280   9.066   1.052
 7767WAT     H223544   1.133   9.131   1.026
 7768WAT      O23545   9.232   9.443   1.394
 7768WAT     H123546   9.142   9.454   1.351
 7768WAT     H223547   9.237   9.355   1.440
 7769WAT      O23548   7.913   3.301   7.881
 7769WAT     H123549   7.869   3.259   7.801
 7769WAT     H223550   7.858   3.380   7.911
 7770WAT      O23551   7.123   5.090   4.487
 7770WAT     H123552   7.150   5.159   4.555
 7770WAT     H223553   7.069   5.134   4.416
 7771WAT      O23554   0.906   3.370   9.249
 7771WAT     H123555   0.902   3.428   9.330
 7771WAT     H223556   0.935   3.278   9.275
 7772WAT      O23557   9.296   9.141   4.792
 7772WAT     H123558   9.220   9.126   4.728
 7772WAT     H223559   9.286   9.230   4.835
 7773WAT      O23560   4.551   3.408   5.774
 7773WAT     H123561   4.472   3.440   5.721
 7773WAT     H223562   4.635   3.448   5.737
 7774WAT      O23563   6.410   4.953   4.199
 7774WAT     H123564   6.465   4.891   4.255
 7774WAT     H223565   6.319   4.915   4.186
 7775WAT      O23566   7.950   6.716   2.908
 7775WAT     H123567   7.959   6.621   2.878
 7775WAT     H223568   7.903   6.718   2.996
 7776WAT      O23569   8.019   7.357   9.256
 7776WAT     H123570   7.941   7.302   9.288
 7776WAT     H223571   8.006   7.381   9.160
 7777WAT      O23572   2.860   9.194   3.572
 7777WAT     H123573   2.888   9.197   3.476
 7777WAT     H223574   2.761   9.195   3.578
 7778WAT      O23575   5.131   6.413   5.291
 7778WAT     H123576   5.151   6.403   5.389
 7778WAT     H223577   5.217   6.426   5.241
 7779WAT      O23578   1.845   6.820   8.570
 7779WAT     H123579   1.902   6.783   8.497
 7779WAT     H223580   1.779   6.885   8.532
 7780WAT      O23581   2.482   6.334   2.403
 7780WAT     H123582   2.553   6.343   2.473
 7780WAT     H223583   2.404   6.285   2.441
 7781WAT      O23584   8.106   4.553   7.167
 7781WAT     H123585   8.166   4.535   7.245
 7781WAT     H223586   8.074   4.648   7.171
 7782WAT      O23587   9.701   5.734   2.889
 7782WAT     H123588   9.698   5.763   2.793
 7782WAT     H223589   9.608   5.731   2.925
 7783WAT      O23590   2.678   7.525   7.011
 7783WAT     H123591   2.677   7.463   7.089
 7783WAT     H223592   2.595   7.580   7.011
 7784WAT      O23593   1.758   1.553   2.575
 7784WAT     H123594   1.837   1.491   2.584
 7784WAT     H223595   1.686   1.523   2.637
 7785WAT      O23596   9.022   6.487   4.932
 7785WAT     H123597   8.925   6.505   4.914
 7785WAT     H223598   9.045   6.518   5.024
 7786WAT      O23599   7.450   6.176   9.133
 7786WAT     H123600   7.430   6.225   9.217
 7786WAT     H223601   7.543   6.195   9.104
 7787WAT      O23602   6.940   2.610   8.977
 7787WAT     H123603   6.978   2.521   8.951
 7787WAT     H223604   6.918   2.610   9.075
 7788WAT      O23605   8.047   3.580   9.465
 7788WAT     H123606   7.996   3.494   9.472
 7788WAT     H223607   8.127   3.567   9.406
 7789WAT      O23608   3.953   4.113   1.411
 7789WAT     H123609   3.936   4.157   1.499
 7789WAT     H223610   3.957   4.182   1.339
 7790WAT      O23611   2.607   5.628   5.631
 7790WAT     H123612   2.698   5.627   5.589
 7790WAT     H223613   2.598   5.709   5.689
 7791WAT      O23614   8.170   1.053   8.736
 7791WAT     H123615   8.264   1.087   8.722
 7791WAT     H223616   8.168   0.954   8.722
 7792WAT      O23617   5.771   2.361   4.445
 7792WAT     H123618   5.845   2.406   4.494
 7792WAT     H223619   5.683   2.391   4.482
 7793WAT      O23620   3.751   0.621   6.576
 7793WAT     H123621   3.804   0.706   6.570
 7793WAT     H223622   3.673   0.627   6.513
 7794WAT      O23623   8.552   1.503   2.629
 7794WAT     H123624   8.464   1.455   2.621
 7794WAT     H223625   8.577   1.543   2.541
 7795WAT      O23626   2.335   9.049   7.401
 7795WAT     H123627   2.399   8.973   7.393
 7795WAT     H223628   2.242   9.014   7.408
 7796WAT      O23629   0.526   7.209   3.878
 7796WAT     H123630   0.567   7.118   3.874
 7796WAT     H223631   0.579   7.273   3.822
 7797WAT      O23632   6.397   8.893   9.860
 7797WAT     H123633   6.326   8.822   9.869
 7797WAT     H223634   6.354   8.983   9.863
 7798WAT      O23635   1.129   6.370   1.294
 7798WAT     H123636   1.180   6.284   1.302
 7798WAT     H223637   1.044   6.354   1.245
 7799WAT      O23638   5.200   8.116   9.686
 7799WAT     H123639   5.110   8.103   9.728
 7799WAT     H223640   5.195   8.090   9.590
 7800WAT      O23641   5.284   5.384   9.453
 7800WAT     H123642   5.327   5.314   9.509
 7800WAT     H223643   5.229   5.340   9.381
 7801WAT      O23644   4.820   8.528   1.485
 7801WAT     H123645   4.827   8.617   1.439
 7801WAT     H223646   4.724   8.501   1.490
 7802WAT      O23647   5.467   8.569   0.508
 7802WAT     H123648   5.483   8.535   0.415
 7802WAT     H223649   5.504   8.661   0.516
 7803WAT      O23650   2.345   6.369   3.410
 7803WAT     H123651   2.305   6.446   3.360
 7803WAT     H223652   2.364   6.396   3.504
 7804WAT      O23653   8.970   8.186   5.269
 7804WAT     H123654   9.038   8.165   5.339
 7804WAT     H223655   9.015   8.230   5.191
 7805WAT      O23656   1.655   7.620   0.324
 7805WAT     H123657   1.710   7.663   0.252
 7805WAT     H223658   1.591   7.686   0.361
 7806WAT      O23659   6.007   6.772   7.164
 7806WAT     H123660   6.102   6.747   7.181
 7806WAT     H223661   6.003   6.834   7.085
 7807WAT      O23662   1.967   6.695   4.261
 7807WAT     H123663   1.918   6.781   4.279
 7807WAT     H223664   1.956   6.670   4.165
 7808WAT      O23665   7.361   5.529   3.991
 7808WAT     H123666   7.262   5.515   3.983
 7808WAT     H223667   7.384   5.547   4.087
 7809WAT      O23668   5.286   0.834   7.665
 7809WAT     H123669   5.193   0.814   7.634
 7809WAT     H223670   5.343   0.752   7.654
 7810WAT      O23671   6.693   7.360   7.782
 7810WAT     H123672   6.680   7.400   7.873
 7810WAT     H223673   6.654   7.421   7.713
 7811WAT      O23674   5.522   3.279   3.674
 7811WAT     H123675   5.523   3.352   3.742
 7811WAT     H223676   5.428   3.254   3.653
 7812WAT      O23677   4.967   7.325   6.519
 7812WAT     H123678   4.978   7.356   6.425
 7812WAT     H223679   4.924   7.234   6.519
 7813WAT      O23680   3.065   9.077   0.950
 7813WAT     H123681   2.997   9.119   1.010
 7813WAT     H223682   3.029   8.991   0.914
 7814WAT      O23683   9.691   6.718   0.521
 7814WAT     H123684   9.623   6.771   0.471
 7814WAT     H223685   9.728   6.647   0.461
 7815WAT      O23686   9.176   7.784   6.412
 7815WAT     H123687   9.115   7.857   6.442
 7815WAT     H223688   9.235   7.757   6.488
 7816WAT      O23689   3.463   3.180   8.113
 7816WAT     H123690   3.390   3.117   8.087
 7816WAT     H223691   3.534   3.180   8.043
 7817WAT      O23692   8.161   9.656   3.373
 7817WAT     H123693   8.075   9.701   3.352
 7817WAT     H223694   8.225   9.668   3.297
 7818WAT      O23695   9.022   0.948   0.291
 7818WAT     H123696   9.085   0.893   0.237
 7818WAT     H223697   8.938   0.964   0.237
 7819WAT      O23698   5.729   9.703   6.103
 7819WAT     H123699   5.699   9.794   6.074
 7819WAT     H223700   5.765   9.653   6.024
 7820WAT      O23701   6.309   9.066   6.531
 7820WAT     H123702   6.270   9.050   6.440
 7820WAT     H223703   6.282   9.157   6.563
 7821WAT      O23704   8.058   7.394   3.901
 7821WAT     H123705   7.979   7.455   3.906
 7821WAT     H223706   8.033   7.304   3.935
 7822WAT      O23707   4.273   2.273   7.984
 7822WAT     H123708   4.201   2.316   7.931
 7822WAT     H223709   4.320   2.204   7.929
 7823WAT      O23710   1.544   7.274   1.689
 7823WAT     H123711   1.578   7.331   1.764
 7823WAT     H223712   1.445   7.289   1.678
 7824WAT      O23713   1.732   9.731   7.186
 7824WAT     H123714   1.690   9.783   7.261
 7824WAT     H223715   1.803   9.672   7.222
 7825WAT      O23716   0.817   2.974   4.126
 7825WAT     H123717   0.884   2.908   4.161
 7825WAT     H223718   0.740   2.925   4.086
 7826WAT      O23719   0.230   1.607   4.796
 7826WAT     H123720   0.179   1.674   4.848
 7826WAT     H223721   0.186   1.593   4.707
 7827WAT      O23722   4.636   7.743   6.922
 7827WAT     H123723   4.613   7.742   6.825
 7827WAT     H223724   4.586   7.817   6.968
 7828WAT      O23725   3.050   0.669   4.484
 7828WAT     H123726   3.071   0.572   4.497
 7828WAT     H223727   3.111   0.724   4.541
 7829WAT      O23728   7.432   3.356   5.310
 7829WAT     H123729   7.455   3.307   5.226
 7829WAT     H223730   7.395   3.292   5.377
 7830WAT      O23731   4.639   1.487   9.837
 7830WAT     H123732   4.578   1.563   9.862
 7830WAT     H223733   4.631   1.469   9.739
 7831WAT      O23734   4.433   5.308   6.309
 7831WAT     H123735   4.432   5.280   6.213
 7831WAT     H223736   4.488   5.390   6.319
 7832WAT      O23737   7.746   1.432   6.605
 7832WAT     H123738   7.838   1.410   6.575
 7832WAT     H223739   7.716   1.518   6.563
 7833WAT      O23740   7.567   0.154   4.257
 7833WAT     H123741   7.604   0.199   4.338
 7833WAT     H223742   7.641   0.112   4.205
 7834WAT      O23743   6.485   9.148   5.813
 7834WAT     H123744   6.563   9.157   5.751
 7834WAT     H223745   6.403   9.182   5.767
 7835WAT      O23746   7.530   0.588   4.066
 7835WAT     H123747   7.579   0.506   4.037
 7835WAT     H223748   7.579   0.669   4.036
 7836WAT      O23749   9.078   3.895   2.343
 7836WAT     H123750   9.164   3.877   2.295
 7836WAT     H223751   9.092   3.965   2.412
 7837WAT      O23752   2.013   7.005   7.767
 7837WAT     H123753   2.010   6.983   7.669
 7837WAT     H223754   2.108   7.007   7.798
 7838WAT      O23755   2.466   8.490   5.528
 7838WAT     H123756   2.380   8.539   5.540
 7838WAT     H223757   2.515   8.486   5.616
 7839WAT      O23758   6.679   3.041   1.827
 7839WAT     H123759   6.778   3.032   1.824
 7839WAT     H223760   6.643   2.987   1.904
 7840WAT      O23761   4.324   1.240   5.581
 7840WAT     H123762   4.343   1.337   5.566
 7840WAT     H223763   4.399   1.185   5.546
 7841WAT      O23764   1.664   2.548   2.397
 7841WAT     H123765   1.567   2.530   2.383
 7841WAT     H223766   1.710   2.551   2.309
 7842WAT      O23767   5.659   5.869   5.188
 7842WAT     H123768   5.646   5.898   5.094
 7842WAT     H223769   5.756   5.876   5.212
 7843WAT      O23770   2.377   2.446   0.828
 7843WAT     H123771   2.351   2.398   0.912
 7843WAT     H223772   2.477   2.451   0.823
 7844WAT      O23773   0.224   2.206   0.247
 7844WAT     H123774   0.215   2.107   0.252
 7844WAT     H223775   0.240   2.243   0.339
 7845WAT      O23776   9.491   4.022   8.545
 7845WAT     H123777   9.527   4.087   8.612
 7845WAT     H223778   9.547   4.026   8.462
 7846WAT      O23779   6.916   9.303   1.629
 7846WAT     H123780   6.965   9.382   1.667
 7846WAT     H223781   6.818   9.314   1.644
 7847WAT      O23782   2.890   7.764   5.005
 7847WAT     H123783   2.926   7.730   4.918
 7847WAT     H223784   2.899   7.694   5.075
 7848WAT      O23785   1.972   5.051   0.034
 7848WAT     H123786   2.064   5.089   0.043
 7848WAT     H223787   1.971   4.983  -0.039
 7849WAT      O23788   1.813   1.703   9.696
 7849WAT     H123789   1.717   1.681   9.678
 7849WAT     H223790   1.860   1.623   9.733
 7850WAT      O23791   2.684   6.568   2.629
 7850WAT     H123792   2.687   6.469   2.640
 7850WAT     H223793   2.611   6.593   2.565
 7851WAT      O23794   8.002   3.034   2.777
 7851WAT     H123795   7.960   3.083   2.702
 7851WAT     H223796   8.017   3.096   2.854
 7852WAT      O23797   0.545   3.003   2.339
 7852WAT     H123798   0.480   3.074   2.364
 7852WAT     H223799   0.611   3.040   2.273
 7853WAT      O23800   6.718   0.924   1.153
 7853WAT     H123801   6.692   1.018   1.129
 7853WAT     H223802   6.760   0.880   1.074
 7854WAT      O23803   9.624   6.702   8.057
 7854WAT     H123804   9.578   6.713   8.145
 7854WAT     H223805   9.621   6.789   8.007
 7855WAT      O23806   9.037   5.928   2.294
 7855WAT     H123807   9.059   6.007   2.237
 7855WAT     H223808   8.995   5.857   2.237
 7856WAT      O23809   8.470   1.551   8.185
 7856WAT     H123810   8.464   1.575   8.088
 7856WAT     H223811   8.533   1.475   8.197
 7857WAT      O23812   4.331   6.382   1.562
 7857WAT     H123813   4.235   6.384   1.534
 7857WAT     H223814   4.364   6.288   1.560
 7858WAT      O23815   5.565   7.972   0.863
 7858WAT     H123816   5.649   7.935   0.825
 7858WAT     H223817   5.586   8.052   0.920
 7859WAT      O23818   7.748   8.271   8.636
 7859WAT     H123819   7.810   8.347   8.615
 7859WAT     H223820   7.696   8.292   8.719
 7860WAT      O23821   8.346   9.706   6.885
 7860WAT     H123822   8.311   9.726   6.793
 7860WAT     H223823   8.428   9.760   6.903
 7861WAT      O23824   4.279   6.341   9.414
 7861WAT     H123825   4.260   6.410   9.344
 7861WAT     H223826   4.193   6.302   9.447
 7862WAT      O23827   4.914   7.650   3.864
 7862WAT     H123828   4.871   7.562   3.885
 7862WAT     H223829   4.939   7.652   3.767
 7863WAT      O23830   1.815   6.294   7.169
 7863WAT     H123831   1.804   6.302   7.070
 7863WAT     H223832   1.725   6.284   7.212
 7864WAT      O23833   0.474   5.369   2.974
 7864WAT     H123834   0.510   5.324   2.893
 7864WAT     H223835   0.378   5.346   2.986
 7865WAT      O23836   8.208   5.300   0.662
 7865WAT     H123837   8.242   5.307   0.756
 7865WAT     H223838   8.118   5.256   0.663
 7866WAT      O23839   9.171   1.721   4.160
 7866WAT     H123840   9.266   1.693   4.172
 7866WAT     H223841   9.125   1.720   4.249
 7867WAT      O23842   1.617   7.433   7.117
 7867WAT     H123843   1.560   7.457   7.195
 7867WAT     H223844   1.679   7.359   7.142
 7868WAT      O23845   8.685   5.666   2.791
 7868WAT     H123846   8.697   5.567   2.785
 7868WAT     H223847   8.749   5.704   2.858
 7869WAT      O23848   3.617   8.230   7.201
 7869WAT     H123849   3.544   8.281   7.247
 7869WAT     H223850   3.641   8.277   7.116
 7870WAT      O23851   3.384   9.038   0.655
 7870WAT     H123852   3.457   9.011   0.592
 7870WAT     H223853   3.390   8.983   0.738
 7871WAT      O23854   0.343   3.030   8.968
 7871WAT     H123855   0.319   2.936   8.992
 7871WAT     H223856   0.353   3.036   8.868
 7872WAT      O23857   7.741   3.038   5.191
 7872WAT     H123858   7.666   3.089   5.149
 7872WAT     H223859   7.739   3.052   5.290
 7873WAT      O23860   8.012   5.017   6.745
 7873WAT     H123861   7.960   4.934   6.725
 7873WAT     H223862   8.109   4.995   6.753
 7874WAT      O23863   2.680   6.596   4.243
 7874WAT     H123864   2.662   6.503   4.210
 7874WAT     H223865   2.729   6.591   4.330
 7875WAT      O23866   9.498   2.442   4.281
 7875WAT     H123867   9.410   2.396   4.271
 7875WAT     H223868   9.514   2.465   4.377
 7876WAT      O23869   1.258   2.075   0.467
 7876WAT     H123870   1.203   2.157   0.485
 7876WAT     H223871   1.355   2.095   0.483
 7877WAT      O23872   3.588   0.377   1.355
 7877WAT     H123873   3.601   0.290   1.403
 7877WAT     H223874   3.611   0.365   1.258
 7878WAT      O23875   1.209   7.151   6.906
 7878WAT     H123876   1.234   7.220   6.974
 7878WAT     H223877   1.288   7.128   6.850
 7879WAT      O23878   9.286   5.801   5.575
 7879WAT     H123879   9.303   5.869   5.646
 7879WAT     H223880   9.227   5.729   5.612
 7880WAT      O23881   5.975   5.887   8.720
 7880WAT     H123882   6.006   5.982   8.710
 7880WAT     H223883   5.921   5.862   8.639
 7881WAT      O23884   0.777   4.946   4.513
 7881WAT     H123885   0.854   4.989   4.561
 7881WAT     H223886   0.810   4.903   4.430
 7882WAT      O23887   5.368   4.840   9.730
 7882WAT     H123888   5.421   4.813   9.650
 7882WAT     H223889   5.342   4.936   9.722
 7883WAT      O23890   2.177   6.351   5.078
 7883WAT     H123891   2.228   6.315   5.156
 7883WAT     H223892   2.105   6.286   5.052
 7884WAT      O23893   0.742   1.141   4.712
 7884WAT     H123894   0.667   1.195   4.673
 7884WAT     H223895   0.828   1.192   4.704
 7885WAT      O23896   3.507   9.653   1.611
 7885WAT     H123897   3.607   9.660   1.611
 7885WAT     H223898   3.467   9.741   1.638
 7886WAT      O23899   1.278   3.727   3.386
 7886WAT     H123900   1.331   3.767   3.311
 7886WAT     H223901   1.254   3.799   3.451
 7887WAT      O23902   5.080   6.577   9.555
 7887WAT     H123903   5.031   6.492   9.534
 7887WAT     H223904   5.142   6.562   9.631
 7888WAT      O23905   0.101   2.834   8.454
 7888WAT     H123906   0.165   2.760   8.437
 7888WAT     H223907   0.150   2.921   8.459
 7889WAT      O23908   1.950   4.435   4.364
 7889WAT     H123909   2.046   4.460   4.373
 7889WAT     H223910   1.929   4.360   4.428
 7890WAT      O23911   4.832   7.622   2.905
 7890WAT     H123912   4.845   7.705   2.850
 7890WAT     H223913   4.735   7.607   2.922
 7891WAT      O23914   3.828   4.150   7.677
 7891WAT     H123915   3.788   4.203   7.603
 7891WAT     H223916   3.871   4.212   7.743
 7892WAT      O23917   8.586   3.389   1.780
 7892WAT     H123918   8.524   3.400   1.858
 7892WAT     H223919   8.670   3.440   1.796
 7893WAT      O23920   7.078   5.813   4.131
 7893WAT     H123921   7.023   5.897   4.132
 7893WAT     H223922   7.161   5.828   4.077
 7894WAT      O23923   9.482   0.990   8.287
 7894WAT     H123924   9.463   0.989   8.385
 7894WAT     H223925   9.400   1.015   8.237
 7895WAT      O23926   2.701   9.215   6.273
 7895WAT     H123927   2.699   9.267   6.359
 7895WAT     H223928   2.729   9.121   6.292
 7896WAT      O23929   9.760   2.376   9.269
 7896WAT     H123930   9.698   2.452   9.289
 7896WAT     H223931   9.812   2.353   9.352
 7897WAT      O23932   4.381   2.473   8.874
 7897WAT     H123933   4.380   2.558   8.927
 7897WAT     H223934   4.461   2.472   8.815
 7898WAT      O23935   8.061   6.442   8.551
 7898WAT     H123936   8.101   6.531   8.528
 7898WAT     H223937   7.968   6.438   8.517
 7899WAT      O23938   3.604   8.588   9.230
 7899WAT     H123939   3.568   8.496   9.244
 7899WAT     H223940   3.704   8.586   9.229
 7900WAT      O23941   8.726   2.887   6.424
 7900WAT     H123942   8.688   2.974   6.394
 7900WAT     H223943   8.653   2.820   6.438
 7901WAT      O23944   9.437   1.777   0.093
 7901WAT     H123945   9.476   1.759   0.183
 7901WAT     H223946   9.338   1.776   0.099
 7902WAT      O23947   7.713   2.165   2.248
 7902WAT     H123948   7.750   2.230   2.181
 7902WAT     H223949   7.786   2.133   2.308
 7903WAT      O23950   3.357   3.441   9.513
 7903WAT     H123951   3.273   3.458   9.461
 7903WAT     H223952   3.357   3.348   9.547
 7904WAT      O23953   9.628   7.927   3.318
 7904WAT     H123954   9.646   7.995   3.246
 7904WAT     H223955   9.533   7.934   3.347
 7905WAT      O23956   3.676   4.220   3.451
 7905WAT     H123957   3.617   4.258   3.523
 7905WAT     H223958   3.767   4.204   3.488
 7906WAT      O23959   5.577   9.352   1.834
 7906WAT     H123960   5.554   9.407   1.914
 7906WAT     H223961   5.516   9.273   1.828
 7907WAT      O23962   0.150   4.682   6.475
 7907WAT     H123963   0.063   4.729   6.492
 7907WAT     H223964   0.179   4.700   6.381
 7908WAT      O23965   9.330   9.162   2.551
 7908WAT     H123966   9.272   9.228   2.599
 7908WAT     H223967   9.425   9.192   2.555
 7909WAT      O23968   7.966   6.601   8.149
 7909WAT     H123969   7.918   6.688   8.140
 7909WAT     H223970   8.064   6.618   8.165
 7910WAT      O23971   4.339   0.251   1.000
 7910WAT     H123972   4.358   0.335   0.947
 7910WAT     H223973   4.360   0.267   1.096
 7911WAT      O23974   9.661   2.119   1.580
 7911WAT     H123975   9.621   2.114   1.671
 7911WAT     H223976   9.671   2.026   1.544
 7912WAT      O23977   6.045   8.762   6.121
 7912WAT     H123978   5.994   8.729   6.200
 7912WAT     H223979   6.022   8.858   6.104
 7913WAT      O23980   8.768   5.744   6.064
 7913WAT     H123981   8.781   5.795   6.148
 7913WAT     H223982   8.683   5.771   6.020
 7914WAT      O23983   7.285   4.076   3.532
 7914WAT     H123984   7.266   3.987   3.491
 7914WAT     H223985   7.266   4.149   3.466
 7915WAT      O23986   6.187   3.403   3.129
 7915WAT     H123987   6.209   3.307   3.113
 7915WAT     H223988   6.208   3.428   3.223
 7916WAT      O23989   6.857   2.926   8.111
 7916WAT     H123990   6.894   2.938   8.203
 7916WAT     H223991   6.767   2.971   8.105
 7917WAT      O23992   9.101   7.091   2.318
 7917WAT     H123993   9.053   7.068   2.234
 7917WAT     H223994   9.066   7.177   2.355
 7918WAT      O23995   8.719   8.154   9.231
 7918WAT     H123996   8.776   8.220   9.182
 7918WAT     H223997   8.660   8.106   9.167
 7919WAT      O23998   9.437   0.920   0.657
 7919WAT     H123999   9.507   0.990   0.642
 7919WAT     H224000   9.482   0.832   0.674
 7920WAT      O24001   9.484   7.180   8.021
 7920WAT     H124002   9.453   7.217   8.108
 7920WAT     H224003   9.426   7.103   7.994
 7921WAT      O24004   9.608   4.448   7.720
 7921WAT     H124005   9.519   4.411   7.691
 7921WAT     H224006   9.645   4.506   7.648
 7922WAT      O24007   5.503   9.751   3.998
 7922WAT     H124008   5.464   9.667   3.961
 7922WAT     H224009   5.450   9.829   3.965
 7923WAT      O24010   7.639   1.864   7.370
 7923WAT     H124011   7.731   1.863   7.332
 7923WAT     H224012   7.619   1.955   7.407
 7924WAT      O24013   6.019   0.775   1.561
 7924WAT     H124014   6.064   0.865   1.554
 7924WAT     H224015   5.995   0.758   1.657
 7925WAT      O24016   6.641   4.352   4.293
 7925WAT     H124017   6.572   4.300   4.344
 7925WAT     H224018   6.597   4.430   4.248
 7926WAT      O24019   5.300   3.022   7.276
 7926WAT     H124020   5.260   2.932   7.255
 7926WAT     H224021   5.246   3.068   7.346
 7927WAT      O24022   4.243   5.705   7.779
 7927WAT     H124023   4.268   5.729   7.873
 7927WAT     H224024   4.278   5.775   7.717
 7928WAT      O24025   3.891   7.656   0.526
 7928WAT     H124026   3.811   7.669   0.585
 7928WAT     H224027   3.975   7.669   0.579
 7929WAT      O24028   4.541   7.455   4.396
 7929WAT     H124029   4.504   7.526   4.457
 7929WAT     H224030   4.550   7.493   4.304
 7930WAT      O24031   8.214   4.733   8.095
 7930WAT     H124032   8.224   4.832   8.086
 7930WAT     H224033   8.224   4.708   8.192
 7931WAT      O24034   4.995   2.920   1.898
 7931WAT     H124035   4.903   2.893   1.869
 7931WAT     H224036   5.061   2.853   1.865
 7932WAT      O24037   1.422   4.895   3.208
 7932WAT     H124038   1.517   4.925   3.201
 7932WAT     H224039   1.382   4.890   3.116
 7933WAT      O24040   7.526   3.235   3.551
 7933WAT     H124041   7.529   3.233   3.451
 7933WAT     H224042   7.553   3.325   3.584
 7934WAT      O24043   0.582   2.740   3.457
 7934WAT     H124044   0.542   2.699   3.539
 7934WAT     H224045   0.567   2.679   3.379
 7935WAT      O24046   7.035   2.299   6.619
 7935WAT     H124047   6.978   2.380   6.634
 7935WAT     H224048   6.978   2.217   6.624
 7936WAT      O24049   8.215   9.271   5.337
 7936WAT     H124050   8.290   9.337   5.343
 7936WAT     H224051   8.131   9.317   5.311
 7937WAT      O24052   1.874   1.690   0.530
 7937WAT     H124053   1.899   1.612   0.473
 7937WAT     H224054   1.939   1.764   0.516
 7938WAT      O24055   8.739   2.968   3.677
 7938WAT     H124056   8.667   2.980   3.609
 7938WAT     H224057   8.810   2.907   3.641
 7939WAT      O24058   6.633   1.745   5.739
 7939WAT     H124059   6.619   1.844   5.741
 7939WAT     H224060   6.601   1.709   5.652
 7940WAT      O24061   5.110   8.995   6.826
 7940WAT     H124062   5.209   8.985   6.828
 7940WAT     H224063   5.076   8.981   6.733
 7941WAT      O24064   1.827   0.670   0.810
 7941WAT     H124065   1.818   0.760   0.767
 7941WAT     H224066   1.740   0.644   0.851
 7942WAT      O24067   1.814   8.736   3.266
 7942WAT     H124068   1.825   8.807   3.196
 7942WAT     H224069   1.792   8.649   3.221
 7943WAT      O24070   2.742   4.159   7.556
 7943WAT     H124071   2.768   4.149   7.652
 7943WAT     H224072   2.822   4.183   7.502
 7944WAT      O24073   0.214   5.087   8.686
 7944WAT     H124074   0.171   5.177   8.695
 7944WAT     H224075   0.151   5.023   8.642
 7945WAT      O24076   0.186   9.733   9.756
 7945WAT     H124077   0.101   9.711   9.708
 7945WAT     H224078   0.260   9.675   9.722
 7946WAT      O24079   3.244   6.672   9.377
 7946WAT     H124080   3.152   6.690   9.343
 7946WAT     H224081   3.239   6.607   9.453
 7947WAT      O24082   9.252   9.140   5.575
 7947WAT     H124083   9.302   9.166   5.658
 7947WAT     H224084   9.310   9.083   5.518
 7948WAT      O24085   4.267   0.643   2.919
 7948WAT     H124086   4.365   0.639   2.938
 7948WAT     H224087   4.224   0.558   2.950
 7949WAT      O24088   6.749   1.726   2.908
 7949WAT     H124089   6.824   1.665   2.881
 7949WAT     H224090   6.711   1.770   2.827
 7950WAT      O24091   1.029   6.338   2.792
 7950WAT     H124092   0.936   6.347   2.757
 7950WAT     H224093   1.092   6.323   2.715
 7951WAT      O24094   1.920   4.931   5.821
 7951WAT     H124095   1.887   4.845   5.782
 7951WAT     H224096   2.020   4.935   5.815
 7952WAT      O24097   7.850   0.109   8.938
 7952WAT     H124098   7.809   0.022   8.967
 7952WAT     H224099   7.898   0.096   8.851
 7953WAT      O24100   4.170   2.603   2.022
 7953WAT     H124101   4.246   2.541   2.042
 7953WAT     H224102   4.086   2.568   2.062
 7954WAT      O24103   6.606   1.900   6.323
 7954WAT     H124104   6.678   1.936   6.382
 7954WAT     H224105   6.644   1.881   6.233
 7955WAT      O24106   4.437   2.793   2.827
 7955WAT     H124107   4.377   2.753   2.896
 7955WAT     H224108   4.514   2.732   2.811
 7956WAT      O24109   7.881   5.719   1.586
 7956WAT     H124110   7.940   5.762   1.517
 7956WAT     H224111   7.922   5.632   1.615
 7957WAT      O24112   6.868   2.403   5.982
 7957WAT     H124113   6.929   2.426   6.057
 7957WAT     H224114   6.921   2.364   5.906
 7958WAT      O24115   5.116   9.604   7.672
 7958WAT     H124116   5.090   9.600   7.575
 7958WAT     H224117   5.061   9.673   7.719
 7959WAT      O24118   8.452   3.073   2.928
 7959WAT     H124119   8.536   3.126   2.917
 7959WAT     H224120   8.472   2.987   2.975
 7960WAT      O24121   0.273   6.889   1.453
 7960WAT     H124122   0.266   6.868   1.551
 7960WAT     H224123   0.364   6.924   1.432
 7961WAT      O24124   4.069   0.307   8.131
 7961WAT     H124125   4.042   0.322   8.036
 7961WAT     H224126   4.078   0.395   8.177
 7962WAT      O24127   7.211   1.473   9.545
 7962WAT     H124128   7.249   1.432   9.462
 7962WAT     H224129   7.117   1.440   9.558
 7963WAT      O24130   0.902   1.994   2.103
 7963WAT     H124131   0.915   2.057   2.026
 7963WAT     H224132   0.805   1.979   2.117
 7964WAT      O24133   4.461   1.521   7.783
 7964WAT     H124134   4.386   1.573   7.823
 7964WAT     H224135   4.432   1.427   7.767
 7965WAT      O24136   7.569   7.271   7.796
 7965WAT     H124137   7.550   7.217   7.878
 7965WAT     H224138   7.585   7.209   7.719
 7966WAT      O24139   7.835   6.805   6.221
 7966WAT     H124140   7.858   6.842   6.311
 7966WAT     H224141   7.888   6.853   6.151
 7967WAT      O24142   5.596   6.361   9.443
 7967WAT     H124143   5.611   6.357   9.344
 7967WAT     H224144   5.677   6.327   9.491
 7968WAT      O24145   8.346   4.180   6.797
 7968WAT     H124146   8.288   4.100   6.811
 7968WAT     H224147   8.406   4.164   6.719
 7969WAT      O24148   4.922   1.413   7.254
 7969WAT     H124149   5.018   1.407   7.227
 7969WAT     H224150   4.911   1.377   7.347
 7970WAT      O24151   0.629   7.609   9.275
 7970WAT     H124152   0.702   7.667   9.309
 7970WAT     H224153   0.666   7.520   9.248
 7971WAT      O24154   0.568   2.262   6.550
 7971WAT     H124155   0.513   2.207   6.613
 7971WAT     H224156   0.608   2.203   6.480
 7972WAT      O24157   6.203   5.653   6.861
 7972WAT     H124158   6.277   5.658   6.793
 7972WAT     H224159   6.118   5.685   6.819
 7973WAT      O24160   4.203   4.748   6.998
 7973WAT     H124161   4.302   4.733   6.991
 7973WAT     H224162   4.168   4.704   7.081
 7974WAT      O24163   8.591   2.944   5.409
 7974WAT     H124164   8.618   3.036   5.437
 7974WAT     H224165   8.673   2.887   5.398
 7975WAT      O24166   1.277   3.827   0.170
 7975WAT     H124167   1.208   3.882   0.217
 7975WAT     H224168   1.287   3.740   0.217
 7976WAT      O24169   5.643   0.132   0.003
 7976WAT     H124170   5.611   0.146   0.097
 7976WAT     H224171   5.613   0.043  -0.030
 7977WAT      O24172   4.550   3.836   0.984
 7977WAT     H124173   4.601   3.765   1.033
 7977WAT     H224174   4.561   3.821   0.885
 7978WAT      O24175   2.836   1.284   2.982
 7978WAT     H124176   2.753   1.315   3.027
 7978WAT     H224177   2.851   1.187   3.001
 7979WAT      O24178   0.695   3.017   7.208
 7979WAT     H124179   0.682   2.973   7.119
 7979WAT     H224180   0.694   3.116   7.197
 7980WAT      O24181   7.044   2.553   3.920
 7980WAT     H124182   7.015   2.490   3.992
 7980WAT     H224183   6.999   2.641   3.931
 7981WAT      O24184   4.525   2.004   7.573
 7981WAT     H124185   4.535   2.043   7.481
 7981WAT     H224186   4.442   1.949   7.577
 7982WAT      O24187   7.131   2.082   0.624
 7982WAT     H124188   7.056   2.136   0.587
 7982WAT     H224189   7.102   1.987   0.634
 7983WAT      O24190   3.260   5.484   5.747
 7983WAT     H124191   3.351   5.454   5.775
 7983WAT     H224192   3.204   5.404   5.724
 7984WAT      O24193   8.055   7.559   7.436
 7984WAT     H124194   7.989   7.586   7.507
 7984WAT     H224195   8.086   7.641   7.388
 7985WAT      O24196   3.964   3.112   5.524
 7985WAT     H124197   3.891   3.108   5.592
 7985WAT     H224198   3.932   3.160   5.443
 7986WAT      O24199   4.250   4.907   0.385
 7986WAT     H124200   4.231   4.840   0.314
 7986WAT     H224201   4.306   4.865   0.456
 7987WAT      O24202   8.058   5.766   7.173
 7987WAT     H124203   8.015   5.763   7.264
 7987WAT     H224204   7.993   5.807   7.108
 7988WAT      O24205   1.574   2.047   1.362
 7988WAT     H124206   1.647   2.098   1.409
 7988WAT     H224207   1.577   2.068   1.265
 7989WAT      O24208   0.112   8.144   3.356
 7989WAT     H124209   0.174   8.196   3.414
 7989WAT     H224210   0.055   8.206   3.302
 7990WAT      O24211   3.229   5.299   9.767
 7990WAT     H124212   3.283   5.310   9.684
 7990WAT     H224213   3.229   5.385   9.819
 7991WAT      O24214   6.421   0.445   0.316
 7991WAT     H124215   6.355   0.383   0.274
 7991WAT     H224216   6.499   0.392   0.351
 7992WAT      O24217   5.019   0.134   7.439
 7992WAT     H124218   4.926   0.144   7.475
 7992WAT     H224219   5.085   0.147   7.512
 7993WAT      O24220   1.048   2.253   8.597
 7993WAT     H124221   0.990   2.212   8.668
 7993WAT     H224222   1.081   2.182   8.536
 7994WAT      O24223   0.079   9.251   5.707
 7994WAT     H124224   0.079   9.151   5.715
 7994WAT     H224225   0.162   9.288   5.749
 7995WAT      O24226   8.339   1.508   0.902
 7995WAT     H124227   8.418   1.553   0.944
 7995WAT     H224228   8.370   1.449   0.827
 7996WAT      O24229   8.923   8.811   5.784
 7996WAT     H124230   8.915   8.806   5.884
 7996WAT     H224231   9.007   8.763   5.756
 7997WAT      O24232   9.479   3.946   9.548
 7997WAT     H124233   9.457   3.852   9.522
 7997WAT     H224234   9.557   3.978   9.495
 7998WAT      O24235   1.956   0.168   8.612
 7998WAT     H124236   1.860   0.142   8.602
 7998WAT     H224237   2.005   0.097   8.662
 7999WAT      O24238   6.840   7.888   7.986
 7999WAT     H124239   6.830   7.959   8.056
 7999WAT     H224240   6.749   7.859   7.955
 8000WAT      O24241   4.199   9.295   4.933
 8000WAT     H124242   4.266   9.358   4.895
 8000WAT     H224243   4.226   9.269   5.026
 8001WAT      O24244   2.241   6.312   1.469
 8001WAT     H124245   2.335   6.336   1.443
 8001WAT     H224246   2.219   6.222   1.433
 8002WAT      O24247   4.102   4.145   6.571
 8002WAT     H124248   4.083   4.056   6.613
 8002WAT     H224249   4.017   4.195   6.557
 8003WAT      O24250   6.489   7.984   9.555
 8003WAT     H124251   6.549   7.920   9.602
 8003WAT     H224252   6.405   7.997   9.608
 8004WAT      O24253   1.000   6.304   9.371
 8004WAT     H124254   0.912   6.270   9.338
 8004WAT     H224255   1.056   6.333   9.293
 8005WAT      O24256   3.250   2.992   3.865
 8005WAT     H124257   3.285   2.910   3.910
 8005WAT     H224258   3.159   3.014   3.902
 8006WAT      O24259   9.274   8.893   9.260
 8006WAT     H124260   9.336   8.891   9.182
 8006WAT     H224261   9.281   8.982   9.306
 8007WAT      O24262   6.534   2.249   3.943
 8007WAT     H124263   6.564   2.158   3.971
 8007WAT     H224264   6.434   2.251   3.939
 8008WAT      O24265   0.330   9.715   1.885
 8008WAT     H124266   0.274   9.643   1.926
 8008WAT     H224267   0.384   9.676   1.809
 8009WAT      O24268   1.293   3.854   7.200
 8009WAT     H124269   1.347   3.938   7.212
 8009WAT     H224270   1.300   3.798   7.283
 8010WAT      O24271   3.168   9.098   6.963
 8010WAT     H124272   3.087   9.116   6.908
 8010WAT     H224273   3.171   9.161   7.040
 8011WAT      O24274   4.278   7.846   9.367
 8011WAT     H124275   4.339   7.805   9.435
 8011WAT     H224276   4.283   7.793   9.282
 8012WAT      O24277   5.676   8.795   7.066
 8012WAT     H124278   5.655   8.823   7.160
 8012WAT     H224279   5.723   8.870   7.019
 8013WAT      O24280   1.346   5.460   9.256
 8013WAT     H124281   1.356   5.422   9.164
 8013WAT     H224282   1.414   5.419   9.317
 8014WAT      O24283   0.735   3.562   2.534
 8014WAT     H124284   0.692   3.652   2.525
 8014WAT     H224285   0.818   3.571   2.589
 8015WAT      O24286   8.278   4.920   6.777
 8015WAT     H124287   8.337   4.855   6.825
 8015WAT     H224288   8.313   5.013   6.788
 8016WAT      O24289   1.969   4.506   3.091
 8016WAT     H124290   2.004   4.551   3.173
 8016WAT     H224291   1.935   4.575   3.027
 8017WAT      O24292   0.712   2.878   1.937
 8017WAT     H124293   0.619   2.906   1.916
 8017WAT     H224294   0.757   2.951   1.990
 8018WAT      O24295   9.602   2.099   8.810
 8018WAT     H124296   9.667   2.168   8.778
 8018WAT     H224297   9.618   2.080   8.907
 8019WAT      O24298   3.248   9.120   6.504
 8019WAT     H124299   3.296   9.086   6.584
 8019WAT     H224300   3.284   9.075   6.422
 8020WAT      O24301   4.381   4.666   1.769
 8020WAT     H124302   4.306   4.608   1.800
 8020WAT     H224303   4.464   4.610   1.757
 8021WAT      O24304   7.652   9.627   0.481
 8021WAT     H124305   7.643   9.696   0.409
 8021WAT     H224306   7.714   9.660   0.552
 8022WAT      O24307   6.882   0.150   1.371
 8022WAT     H124308   6.857   0.215   1.443
 8022WAT     H224309   6.844   0.060   1.392
 8023WAT      O24310   4.071   2.081   0.679
 8023WAT     H124311   4.039   1.987   0.662
 8023WAT     H224312   4.064   2.100   0.777
 8024WAT      O24313   6.411   9.242   2.355
 8024WAT     H124314   6.314   9.253   2.378
 8024WAT     H224315   6.466   9.243   2.439
 8025WAT      O24316   8.364   0.530   1.038
 8025WAT     H124317   8.326   0.595   1.104
 8025WAT     H224318   8.295   0.460   1.017
 8026WAT      O24319   1.982   3.874   8.346
 8026WAT     H124320   2.057   3.818   8.381
 8026WAT     H224321   1.895   3.840   8.380
 8027WAT      O24322   7.041   5.271   0.587
 8027WAT     H124323   7.056   5.363   0.551
 8027WAT     H224324   7.123   5.216   0.572
 8028WAT      O24325   2.371   1.909   7.087
 8028WAT     H124326   2.445   1.864   7.137
 8028WAT     H224327   2.314   1.960   7.151
 8029WAT      O24328   1.543   5.917   8.030
 8029WAT     H124329   1.574   5.951   8.119
 8029WAT     H224330   1.622   5.885   7.977
 8030WAT      O24331   6.821   2.610   7.783
 8030WAT     H124332   6.781   2.700   7.803
 8030WAT     H224333   6.875   2.580   7.862
 8031WAT      O24334   5.132   5.127   6.567
 8031WAT     H124335   5.061   5.107   6.500
 8031WAT     H224336   5.090   5.153   6.654
 8032WAT      O24337   3.215   2.138   8.412
 8032WAT     H124338   3.269   2.207   8.363
 8032WAT     H224339   3.118   2.163   8.406
 8033WAT      O24340   0.768   5.876   8.919
 8033WAT     H124341   0.828   5.954   8.939
 8033WAT     H224342   0.683   5.886   8.970
 8034WAT      O24343   0.113   3.652   4.408
 8034WAT     H124344   0.111   3.615   4.501
 8034WAT     H224345   0.020   3.651   4.370
 8035WAT      O24346   1.868   2.931   5.057
 8035WAT     H124347   1.842   2.963   5.148
 8035WAT     H224348   1.855   3.005   4.991
 8036WAT      O24349   7.747   3.003   2.968
 8036WAT     H124350   7.740   2.941   2.890
 8036WAT     H224351   7.667   3.062   2.971
 8037WAT      O24352   8.149   9.622   4.438
 8037WAT     H124353   8.101   9.612   4.351
 8037WAT     H224354   8.219   9.551   4.446
 8038WAT      O24355   0.892   4.463   5.866
 8038WAT     H124356   0.932   4.550   5.838
 8038WAT     H224357   0.890   4.458   5.966
 8039WAT      O24358   7.620   2.231   7.117
 8039WAT     H124359   7.593   2.183   7.201
 8039WAT     H224360   7.538   2.253   7.064
 8040WAT      O24361   3.979   1.219   1.119
 8040WAT     H124362   3.885   1.212   1.085
 8040WAT     H224363   4.032   1.141   1.086
 8041WAT      O24364   4.986   0.003   2.984
 8041WAT     H124365   4.887  -0.006   2.998
 8041WAT     H224366   5.009  -0.032   2.893
 8042WAT      O24367   6.918   3.051   5.858
 8042WAT     H124368   6.961   3.132   5.898
 8042WAT     H224369   6.842   3.022   5.916
 8043WAT      O24370   6.118   7.458   5.627
 8043WAT     H124371   6.101   7.556   5.615
 8043WAT     H224372   6.143   7.439   5.722
 8044WAT      O24373   0.085   3.819   5.626
 8044WAT     H124374   0.163   3.869   5.665
 8044WAT     H224375   0.004   3.836   5.681
 8045WAT      O24376   7.968   1.155   6.138
 8045WAT     H124377   7.902   1.210   6.189
 8045WAT     H224378   8.045   1.213   6.110
 8046WAT      O24379   5.035   4.006   1.588
 8046WAT     H124380   4.993   4.094   1.567
 8046WAT     H224381   5.063   3.962   1.503
 8047WAT      O24382   0.600   9.175   2.597
 8047WAT     H124383   0.575   9.230   2.677
 8047WAT     H224384   0.656   9.230   2.536
 8048WAT      O24385   6.131   9.797   3.318
 8048WAT     H124386   6.040   9.787   3.278
 8048WAT     H224387   6.189   9.722   3.286
 8049WAT      O24388   4.683   1.577   1.730
 8049WAT     H124389   4.692   1.478   1.738
 8049WAT     H224390   4.588   1.603   1.745
 8050WAT      O24391   8.387   4.844   8.613
 8050WAT     H124392   8.464   4.783   8.592
 8050WAT     H224393   8.362   4.833   8.710
 8051WAT      O24394   2.482   4.228   0.957
 8051WAT     H124395   2.555   4.159   0.955
 8051WAT     H224396   2.479   4.270   1.048
 8052WAT      O24397   6.962   6.030   2.636
 8052WAT     H124398   7.015   6.109   2.665
 8052WAT     H224399   6.864   6.050   2.647
 8053WAT      O24400   2.219   0.153   3.716
 8053WAT     H124401   2.257   0.079   3.771
 8053WAT     H224402   2.144   0.117   3.660
 8054WAT      O24403   2.883   7.413   0.787
 8054WAT     H124404   2.821   7.440   0.861
 8054WAT     H224405   2.845   7.442   0.699
 8055WAT      O24406   0.431   5.029   5.924
 8055WAT     H124407   0.509   4.971   5.905
 8055WAT     H224408   0.413   5.029   6.023
 8056WAT      O24409   7.312   3.460   7.876
 8056WAT     H124410   7.376   3.431   7.804
 8056WAT     H224411   7.221   3.424   7.856
 8057WAT      O24412   9.153   3.009   5.597
 8057WAT     H124413   9.089   3.063   5.544
 8057WAT     H224414   9.112   2.920   5.620
 8058WAT      O24415   8.071   3.743   6.915
 8058WAT     H124416   8.141   3.689   6.962
 8058WAT     H224417   7.995   3.683   6.889
 8059WAT      O24418   8.370   6.029   5.634
 8059WAT     H124419   8.419   5.942   5.640
 8059WAT     H224420   8.429   6.103   5.668
 8060WAT      O24421   0.855   0.970   3.423
 8060WAT     H124422   0.850   1.069   3.439
 8060WAT     H224423   0.839   0.921   3.509
 8061WAT      O24424   5.501   5.193   2.807
 8061WAT     H124425   5.495   5.231   2.899
 8061WAT     H224426   5.515   5.267   2.742
 8062WAT      O24427   2.759   9.514   9.497
 8062WAT     H124428   2.790   9.570   9.421
 8062WAT     H224429   2.788   9.555   9.583
 8063WAT      O24430   8.828   6.946   9.296
 8063WAT     H124431   8.879   6.860   9.304
 8063WAT     H224432   8.879   7.010   9.238
 8064WAT      O24433   3.661   4.643   2.306
 8064WAT     H124434   3.736   4.663   2.369
 8064WAT     H224435   3.671   4.700   2.224
 8065WAT      O24436   2.654   2.686   5.322
 8065WAT     H124437   2.657   2.657   5.226
 8065WAT     H224438   2.704   2.619   5.378
 8066WAT      O24439   8.864   9.626   3.057
 8066WAT     H124440   8.780   9.574   3.068
 8066WAT     H224441   8.938   9.581   3.109
 8067WAT      O24442   2.249   9.467   1.291
 8067WAT     H124443   2.260   9.370   1.311
 8067WAT     H224444   2.331   9.516   1.319
 8068WAT      O24445   8.046   0.909   9.475
 8068WAT     H124446   7.957   0.875   9.506
 8068WAT     H224447   8.073   0.862   9.391
 8069WAT      O24448   4.077   6.693   5.530
 8069WAT     H124449   4.155   6.633   5.548
 8069WAT     H224450   3.992   6.641   5.540
 8070WAT      O24451   4.345   1.012   9.656
 8070WAT     H124452   4.268   1.008   9.593
 8070WAT     H224453   4.363   0.921   9.694
 8071WAT      O24454   3.934   2.807   8.221
 8071WAT     H124455   3.973   2.817   8.313
 8071WAT     H224456   3.850   2.753   8.227
 8072WAT      O24457   9.274   0.107   2.358
 8072WAT     H124458   9.325   0.123   2.443
 8072WAT     H224459   9.292   0.182   2.294
 8073WAT      O24460   7.224   7.651   9.022
 8073WAT     H124461   7.157   7.644   9.096
 8073WAT     H224462   7.221   7.569   8.966
 8074WAT      O24463   0.222   5.534   9.481
 8074WAT     H124464   0.239   5.556   9.385
 8074WAT     H224465   0.263   5.446   9.503
 8075WAT      O24466   6.688   5.810   1.683
 8075WAT     H124467   6.687   5.843   1.778
 8075WAT     H224468   6.696   5.710   1.683
 8076WAT      O24469   2.483   4.042   0.218
 8076WAT     H124470   2.396   4.026   0.171
 8076WAT     H224471   2.466   4.076   0.310
 8077WAT      O24472   4.930   2.798   4.195
 8077WAT     H124473   4.970   2.817   4.105
 8077WAT     H224474   4.837   2.834   4.198
 8078WAT      O24475   6.918   1.865   3.614
 8078WAT     H124476   7.008   1.878   3.574
 8078WAT     H224477   6.852   1.843   3.543
 8079WAT      O24478   5.890   0.765   9.798
 8079WAT     H124479   5.862   0.732   9.888
 8079WAT     H224480   5.892   0.865   9.797
 8080WAT      O24481   0.338   4.635   2.006
 8080WAT     H124482   0.369   4.633   2.101
 8080WAT     H224483   0.246   4.595   2.000
 8081WAT      O24484   0.487   3.117   8.704
 8081WAT     H124485   0.560   3.071   8.655
 8081WAT     H224486   0.524   3.164   8.784
 8082WAT      O24487   8.396   7.374   3.541
 8082WAT     H124488   8.480   7.421   3.515
 8082WAT     H224489   8.330   7.440   3.577
 8083WAT      O24490   8.877   7.913   3.869
 8083WAT     H124491   8.878   7.818   3.900
 8083WAT     H224492   8.967   7.954   3.886
 8084WAT      O24493   6.501   3.346   0.949
 8084WAT     H124494   6.569   3.409   0.987
 8084WAT     H224495   6.414   3.358   0.995
 8085WAT      O24496   4.904   7.025   6.569
 8085WAT     H124497   4.932   7.030   6.665
 8085WAT     H224498   4.973   6.976   6.516
 8086WAT      O24499   7.552   8.688   0.108
 8086WAT     H124500   7.586   8.725   0.021
 8086WAT     H224501   7.515   8.762   0.164
 8087WAT      O24502   4.612   2.884   7.946
 8087WAT     H124503   4.622   2.981   7.967
 8087WAT     H224504   4.566   2.838   8.022
 8088WAT      O24505   3.358   8.550   2.080
 8088WAT     H124506   3.382   8.539   1.984
 8088WAT     H224507   3.368   8.462   2.127
 8089WAT      O24508   5.657   2.258   4.215
 8089WAT     H124509   5.714   2.292   4.290
 8089WAT     H224510   5.562   2.251   4.246
 8090WAT      O24511   2.015   3.155   1.251
 8090WAT     H124512   2.108   3.123   1.270
 8090WAT     H224513   1.960   3.078   1.219
 8091WAT      O24514   0.056   3.582   9.693
 8091WAT     H124515  -0.038   3.563   9.719
 8091WAT     H224516   0.104   3.627   9.769
 8092WAT      O24517   9.341   8.189   0.869
 8092WAT     H124518   9.296   8.137   0.941
 8092WAT     H224519   9.409   8.251   0.909
 8093WAT      O24520   1.084   7.613   3.038
 8093WAT     H124521   1.104   7.529   3.089
 8093WAT     H224522   0.995   7.605   2.994
 8094WAT      O24523   6.790   6.212   1.158
 8094WAT     H124524   6.873   6.268   1.162
 8094WAT     H224525   6.789   6.161   1.072
 8095WAT      O24526   3.133   0.912   7.260
 8095WAT     H124527   3.218   0.887   7.214
 8095WAT     H224528   3.077   0.830   7.275
 8096WAT      O24529   6.858   3.661   3.270
 8096WAT     H124530   6.927   3.727   3.301
 8096WAT     H224531   6.902   3.590   3.216
 8097WAT      O24532   2.454   0.957   9.183
 8097WAT     H124533   2.473   1.049   9.217
 8097WAT     H224534   2.540   0.912   9.159
 8098WAT      O24535   9.196   4.921   6.940
 8098WAT     H124536   9.116   4.868   6.967
 8098WAT     H224537   9.168   5.011   6.907
 8099WAT      O24538   5.360   0.195   7.400
 8099WAT     H124539   5.335   0.110   7.354
 8099WAT     H224540   5.291   0.265   7.379
 8100WAT      O24541   7.881   4.217   0.605
 8100WAT     H124542   7.945   4.243   0.679
 8100WAT     H224543   7.795   4.267   0.616
 8101WAT      O24544   4.546   8.369   9.651
 8101WAT     H124545   4.551   8.388   9.749
 8101WAT     H224546   4.458   8.399   9.615
 8102WAT      O24547   5.374   5.959   6.432
 8102WAT     H124548   5.322   5.889   6.383
 8102WAT     H224549   5.441   6.000   6.370
 8103WAT      O24550   0.369   7.402   4.752
 8103WAT     H124551   0.441   7.401   4.822
 8103WAT     H224552   0.283   7.369   4.791
 8104WAT      O24553   2.488   5.623   1.050
 8104WAT     H124554   2.514   5.720   1.052
 8104WAT     H224555   2.501   5.583   1.141
 8105WAT      O24556   5.119   6.436   6.597
 8105WAT     H124557   5.122   6.347   6.552
 8105WAT     H224558   5.211   6.463   6.625
 8106WAT      O24559   4.982   9.720   2.334
 8106WAT     H124560   5.070   9.760   2.310
 8106WAT     H224561   4.994   9.657   2.412
 8107WAT      O24562   5.482   2.163   2.107
 8107WAT     H124563   5.566   2.162   2.053
 8107WAT     H224564   5.413   2.219   2.061
 8108WAT      O24565   4.108   7.458   5.785
 8108WAT     H124566   4.157   7.371   5.797
 8108WAT     H224567   4.031   7.462   5.848
 8109WAT      O24568   8.886   9.100   5.841
 8109WAT     H124569   8.910   9.008   5.812
 8109WAT     H224570   8.941   9.167   5.792
 8110WAT      O24571   0.446   5.237   0.889
 8110WAT     H124572   0.485   5.317   0.932
 8110WAT     H224573   0.479   5.154   0.934
 8111WAT      O24574   3.549   3.802   8.486
 8111WAT     H124575   3.566   3.823   8.390
 8111WAT     H224576   3.633   3.772   8.530
 8112WAT      O24577   9.180   0.078   1.059
 8112WAT     H124578   9.113   0.120   1.119
 8112WAT     H224579   9.134   0.041   0.978
 8113WAT      O24580   0.293   2.713   5.537
 8113WAT     H124581   0.265   2.619   5.555
 8113WAT     H224582   0.216   2.774   5.554
 8114WAT      O24583   8.777   7.623   7.924
 8114WAT     H124584   8.845   7.614   7.851
 8114WAT     H224585   8.720   7.703   7.907
 8115WAT      O24586   1.208   7.239   6.357
 8115WAT     H124587   1.128   7.201   6.312
 8115WAT     H224588   1.250   7.169   6.415
 8116WAT      O24589   5.217   3.850   7.424
 8116WAT     H124590   5.317   3.848   7.418
 8116WAT     H224591   5.188   3.792   7.500
 8117WAT      O24592   1.523   4.077   1.802
 8117WAT     H124593   1.489   4.162   1.761
 8117WAT     H224594   1.621   4.071   1.789
 8118WAT      O24595   1.858   9.518   7.841
 8118WAT     H124596   1.864   9.599   7.783
 8118WAT     H224597   1.762   9.492   7.853
 8119WAT      O24598   3.510   8.149   1.358
 8119WAT     H124599   3.446   8.176   1.430
 8119WAT     H224600   3.458   8.113   1.280
 8120WAT      O24601   9.871   8.526   5.724
 8120WAT     H124602   9.821   8.442   5.700
 8120WAT     H224603   9.805   8.600   5.738
 8121WAT      O24604   4.336   2.236   8.235
 8121WAT     H124605   4.311   2.267   8.143
 8121WAT     H224606   4.354   2.138   8.233
 8122WAT      O24607   3.917   8.114   6.218
 8122WAT     H124608   3.975   8.129   6.298
 8122WAT     H224609   3.910   8.015   6.201
 8123WAT      O24610   0.403   9.130   8.259
 8123WAT     H124611   0.324   9.191   8.269
 8123WAT     H224612   0.460   9.136   8.341
 8124WAT      O24613   9.869   0.208   1.763
 8124WAT     H124614   9.851   0.123   1.712
 8124WAT     H224615   9.794   0.272   1.750
 8125WAT      O24616   3.771   0.490   2.762
 8125WAT     H124617   3.866   0.471   2.738
 8125WAT     H224618   3.724   0.530   2.683
 8126WAT      O24619   3.190   8.370   4.264
 8126WAT     H124620   3.168   8.356   4.360
 8126WAT     H224621   3.154   8.293   4.210
 8127WAT      O24622   4.650   0.868   0.987
 8127WAT     H124623   4.554   0.883   0.967
 8127WAT     H224624   4.701   0.953   0.971
 8128WAT      O24625   7.047   9.117   0.087
 8128WAT     H124626   7.056   9.018   0.078
 8128WAT     H224627   7.071   9.161   0.000
 8129WAT      O24628   3.682   2.695   8.230
 8129WAT     H124629   3.601   2.740   8.192
 8129WAT     H224630   3.660   2.599   8.249
 8130WAT      O24631   0.292   4.575   4.656
 8130WAT     H124632   0.217   4.512   4.677
 8130WAT     H224633   0.318   4.625   4.739
 8131WAT      O24634   8.567   6.930   0.410
 8131WAT     H124635   8.557   6.831   0.405
 8131WAT     H224636   8.501   6.974   0.351
 8132WAT      O24637   0.158   2.953   2.613
 8132WAT     H124638   0.226   3.016   2.577
 8132WAT     H224639   0.070   2.970   2.569
 8133WAT      O24640   0.698   0.120   8.903
 8133WAT     H124641   0.635   0.171   8.845
 8133WAT     H224642   0.790   0.125   8.866
 8134WAT      O24643   2.054   1.248   8.917
 8134WAT     H124644   2.035   1.332   8.866
 8134WAT     H224645   2.042   1.265   9.015
 8135WAT      O24646   5.211   4.013   2.240
 8135WAT     H124647   5.189   3.922   2.272
 8135WAT     H224648   5.134   4.050   2.187
 8136WAT      O24649   4.897   4.580   4.564
 8136WAT     H124650   4.984   4.627   4.549
 8136WAT     H224651   4.830   4.646   4.599
 8137WAT      O24652   0.533   3.901   0.504
 8137WAT     H124653   0.495   3.860   0.421
 8137WAT     H224654   0.464   3.961   0.545
 8138WAT      O24655   3.993   3.566   9.672
 8138WAT     H124656   4.026   3.475   9.694
 8138WAT     H224657   3.893   3.567   9.671
 8139WAT      O24658   5.433   0.354   8.072
 8139WAT     H124659   5.522   0.382   8.107
 8139WAT     H224660   5.413   0.261   8.103
 8140WAT      O24661   5.370   8.790   7.538
 8140WAT     H124662   5.379   8.747   7.448
 8140WAT     H224663   5.352   8.888   7.527
 8141WAT      O24664   7.565   6.646   5.784
 8141WAT     H124665   7.650   6.697   5.798
 8141WAT     H224666   7.584   6.567   5.726
 8142WAT      O24667   1.357   5.328   6.885
 8142WAT     H124668   1.438   5.270   6.869
 8142WAT     H224669   1.361   5.365   6.977
 8143WAT      O24670   6.300   7.804   1.079
 8143WAT     H124671   6.395   7.795   1.110
 8143WAT     H224672   6.239   7.805   1.158
 8144WAT      O24673   1.835   8.845   9.198
 8144WAT     H124674   1.880   8.930   9.225
 8144WAT     H224675   1.739   8.863   9.177
 8145WAT      O24676   4.536   5.995   6.028
 8145WAT     H124677   4.561   5.923   5.964
 8145WAT     H224678   4.439   6.018   6.018
 8146WAT      O24679   0.330   0.974   6.149
 8146WAT     H124680   0.304   0.917   6.226
 8146WAT     H224681   0.262   0.965   6.076
 8147WAT      O24682   2.441   3.937   3.111
 8147WAT     H124683   2.506   3.879   3.061
 8147WAT     H224684   2.414   4.013   3.052
 8148WAT      O24685   3.432   2.493   2.132
 8148WAT     H124686   3.373   2.487   2.051
 8148WAT     H224687   3.425   2.584   2.172
 8149WAT      O24688   9.087   6.033   9.599
 8149WAT     H124689   9.121   6.060   9.509
 8149WAT     H224690   9.027   5.953   9.588
 8150WAT      O24691   3.243   0.538   5.079
 8150WAT     H124692   3.176   0.472   5.113
 8150WAT     H224693   3.198   0.603   5.018
 8151WAT      O24694   3.832   4.766   0.097
 8151WAT     H124695   3.916   4.804   0.058
 8151WAT     H224696   3.805   4.685   0.045
 8152WAT      O24697   7.097   0.389   1.418
 8152WAT     H124698   7.098   0.289   1.404
 8152WAT     H224699   7.054   0.410   1.505
 8153WAT      O24700   4.925   3.758   9.225
 8153WAT     H124701   4.957   3.762   9.130
 8153WAT     H224702   4.857   3.830   9.240
 8154WAT      O24703   2.110   5.885   1.940
 8154WAT     H124704   2.107   5.830   2.023
 8154WAT     H224705   2.086   5.980   1.962
 8155WAT      O24706   8.290   5.183   3.291
 8155WAT     H124707   8.281   5.211   3.195
 8155WAT     H224708   8.365   5.235   3.333
 8156WAT      O24709   3.203   3.496   5.509
 8156WAT     H124710   3.234   3.440   5.432
 8156WAT     H224711   3.257   3.580   5.513
 8157WAT      O24712   3.847   3.594   0.800
 8157WAT     H124713   3.932   3.586   0.851
 8157WAT     H224714   3.862   3.566   0.705
 8158WAT      O24715   9.747   0.261   2.818
 8158WAT     H124716   9.757   0.215   2.730
 8158WAT     H224717   9.675   0.217   2.871
 8159WAT      O24718   5.916   7.705   9.198
 8159WAT     H124719   5.842   7.642   9.223
 8159WAT     H224720   5.886   7.762   9.122
 8160WAT      O24721   2.288   9.036   4.207
 8160WAT     H124722   2.254   9.130   4.214
 8160WAT     H224723   2.388   9.036   4.205
 8161WAT      O24724   3.073   1.208   6.028
 8161WAT     H124725   3.001   1.241   5.968
 8161WAT     H224726   3.078   1.265   6.110
 8162WAT      O24727   3.348   4.713   1.026
 8162WAT     H124728   3.249   4.715   1.011
 8162WAT     H224729   3.375   4.622   1.056
 8163WAT      O24730   1.984   1.615   0.911
 8163WAT     H124731   1.912   1.650   0.852
 8163WAT     H224732   1.949   1.607   1.005
 8164WAT      O24733   4.112   9.465   7.004
 8164WAT     H124734   4.086   9.553   6.966
 8164WAT     H224735   4.035   9.427   7.055
 8165WAT      O24736   9.837   8.190   8.525
 8165WAT     H124737   9.759   8.204   8.586
 8165WAT     H224738   9.899   8.123   8.565
 8166WAT      O24739   8.714   5.621   2.207
 8166WAT     H124740   8.732   5.662   2.297
 8166WAT     H224741   8.703   5.522   2.218
 8167WAT      O24742   1.946   0.261   1.024
 8167WAT     H124743   2.021   0.202   0.993
 8167WAT     H224744   1.868   0.204   1.051
 8168WAT      O24745   7.990   6.574   3.986
 8168WAT     H124746   7.972   6.615   4.075
 8168WAT     H224747   8.087   6.582   3.965
 8169WAT      O24748   3.852   6.079   7.043
 8169WAT     H124749   3.929   6.085   7.107
 8169WAT     H224750   3.768   6.107   7.088
 8170WAT      O24751   9.526   5.221   4.430
 8170WAT     H124752   9.536   5.216   4.331
 8170WAT     H224753   9.462   5.151   4.461
 8171WAT      O24754   5.947   2.509   4.629
 8171WAT     H124755   5.871   2.570   4.649
 8171WAT     H224756   6.016   2.558   4.576
 8172WAT      O24757   9.144   3.989   2.939
 8172WAT     H124758   9.048   3.966   2.953
 8172WAT     H224759   9.195   3.972   3.023
 8173WAT      O24760   3.656   0.368   1.095
 8173WAT     H124761   3.728   0.299   1.084
 8173WAT     H224762   3.609   0.381   1.009
 8174WAT      O24763   4.394   5.861   8.375
 8174WAT     H124764   4.322   5.835   8.310
 8174WAT     H224765   4.364   5.838   8.468
 8175WAT      O24766   6.232   1.708   6.302
 8175WAT     H124767   6.268   1.690   6.210
 8175WAT     H224768   6.251   1.630   6.361
 8176WAT      O24769   2.578   5.654   5.149
 8176WAT     H124770   2.482   5.644   5.124
 8176WAT     H224771   2.598   5.598   5.230
 8177WAT      O24772   9.454   2.702   4.995
 8177WAT     H124773   9.444   2.801   4.990
 8177WAT     H224774   9.372   2.658   4.960
 8178WAT      O24775   8.865   6.803   1.157
 8178WAT     H124776   8.773   6.812   1.194
 8178WAT     H224777   8.861   6.766   1.065
 8179WAT      O24778   0.888   4.952   6.736
 8179WAT     H124779   0.850   4.860   6.722
 8179WAT     H224780   0.906   4.966   6.833
 8180WAT      O24781   6.636   6.679   3.130
 8180WAT     H124782   6.680   6.623   3.060
 8180WAT     H224783   6.662   6.775   3.118
 8181WAT      O24784   1.265   2.756   7.949
 8181WAT     H124785   1.297   2.850   7.962
 8181WAT     H224786   1.242   2.742   7.852
 8182WAT      O24787   7.690   4.598   9.854
 8182WAT     H124788   7.779   4.571   9.817
 8182WAT     H224789   7.701   4.677   9.915
 8183WAT      O24790   7.455   5.245   7.878
 8183WAT     H124791   7.377   5.267   7.820
 8183WAT     H224792   7.429   5.254   7.974
 8184WAT      O24793   7.061   4.334   3.173
 8184WAT     H124794   7.016   4.359   3.087
 8184WAT     H224795   7.157   4.314   3.156
 8185WAT      O24796   6.246   6.946   2.666
 8185WAT     H124797   6.294   6.864   2.695
 8185WAT     H224798   6.251   6.955   2.566
 8186WAT      O24799   5.617   2.798   2.578
 8186WAT     H124800   5.700   2.825   2.528
 8186WAT     H224801   5.633   2.805   2.676
 8187WAT      O24802   4.423   8.782   2.649
 8187WAT     H124803   4.522   8.797   2.648
 8187WAT     H224804   4.380   8.834   2.575
 8188WAT      O24805   4.705   1.762   0.717
 8188WAT     H124806   4.716   1.671   0.757
 8188WAT     H224807   4.722   1.758   0.618
 8189WAT      O24808   7.791   5.365   0.891
 8189WAT     H124809   7.766   5.365   0.988
 8189WAT     H224810   7.752   5.285   0.846
 8190WAT      O24811   1.272   2.596   1.923
 8190WAT     H124812   1.342   2.620   1.990
 8190WAT     H224813   1.187   2.642   1.946
 8191WAT      O24814   2.969   7.064   4.110
 8191WAT     H124815   2.893   7.129   4.112
 8191WAT     H224816   3.026   7.082   4.030
 8192WAT      O24817   1.975   2.415   2.756
 8192WAT     H124818   1.967   2.330   2.706
 8192WAT     H224819   2.045   2.405   2.827
 8193WAT      O24820   7.450   1.086   4.933
 8193WAT     H124821   7.506   1.130   5.003
 8193WAT     H224822   7.370   1.143   4.914
 8194WAT      O24823   9.823   7.132   4.266
 8194WAT     H124824   9.854   7.217   4.224
 8194WAT     H224825   9.838   7.056   4.202
 8195WAT      O24826   7.959   5.707   3.566
 8195WAT     H124827   7.921   5.783   3.619
 8195WAT     H224828   7.889   5.674   3.502
 8196WAT      O24829   1.068   9.652   1.166
 8196WAT     H124830   1.051   9.619   1.260
 8196WAT     H224831   1.042   9.749   1.160
 8197WAT      O24832   4.425   2.648   7.419
 8197WAT     H124833   4.464   2.564   7.459
 8197WAT     H224834   4.380   2.625   7.332
 8198WAT      O24835   0.019   9.157   0.673
 8198WAT     H124836   0.071   9.087   0.721
 8198WAT     H224837  -0.079   9.136   0.680
 8199WAT      O24838   7.789   1.973   0.512
 8199WAT     H124839   7.813   2.027   0.593
 8199WAT     H224840   7.766   1.880   0.541
 8200WAT      O24841   5.612   2.309   8.894
 8200WAT     H124842   5.529   2.259   8.868
 8200WAT     H224843   5.665   2.329   8.812
 8201WAT      O24844   7.072   0.014   1.819
 8201WAT     H124845   6.977  -0.015   1.831
 8201WAT     H224846   7.117  -0.046   1.754
 8202WAT      O24847   8.447   3.753   2.020
 8202WAT     H124848   8.458   3.816   1.943
 8202WAT     H224849   8.501   3.670   2.004
 8203WAT      O24850   1.763   0.316   0.557
 8203WAT     H124851   1.705   0.312   0.476
 8203WAT     H224852   1.711   0.352   0.634
 8204WAT      O24853   6.472   8.728   6.771
 8204WAT     H124854   6.497   8.813   6.723
 8204WAT     H224855   6.544   8.661   6.759
 8205WAT      O24856   5.115   5.604   0.498
 8205WAT     H124857   5.071   5.522   0.535
 8205WAT     H224858   5.074   5.685   0.541
 8206WAT      O24859   8.029   1.164   5.665
 8206WAT     H124860   8.002   1.259   5.653
 8206WAT     H224861   7.999   1.132   5.755
 8207WAT      O24862   6.625   9.566   1.759
 8207WAT     H124863   6.619   9.466   1.764
 8207WAT     H224864   6.608   9.596   1.665
 8208WAT      O24865   3.349   2.332   8.261
 8208WAT     H124866   3.306   2.422   8.273
 8208WAT     H224867   3.414   2.336   8.185
 8209WAT      O24868   5.565   2.230   3.879
 8209WAT     H124869   5.623   2.237   3.960
 8209WAT     H224870   5.589   2.148   3.828
 8210WAT      O24871   5.670   0.928   8.448
 8210WAT     H124872   5.679   0.913   8.349
 8210WAT     H224873   5.713   0.852   8.497
 8211WAT      O24874   9.773   0.359   6.076
 8211WAT     H124875   9.691   0.302   6.066
 8211WAT     H224876   9.754   0.450   6.038
 8212WAT      O24877   5.825   9.731   2.454
 8212WAT     H124878   5.753   9.666   2.479
 8212WAT     H224879   5.874   9.698   2.374
 8213WAT      O24880   5.519   3.656   2.049
 8213WAT     H124881   5.555   3.570   2.015
 8213WAT     H224882   5.467   3.701   1.977
 8214WAT      O24883   1.985   8.634   9.338
 8214WAT     H124884   1.934   8.697   9.280
 8214WAT     H224885   1.927   8.556   9.361
 8215WAT      O24886   9.085   6.089   4.373
 8215WAT     H124887   8.988   6.081   4.347
 8215WAT     H224888   9.122   6.175   4.339
 8216WAT      O24889   5.403   9.142   0.259
 8216WAT     H124890   5.436   9.219   0.313
 8216WAT     H224891   5.436   9.149   0.165
 8217WAT      O24892   9.426   9.524   0.769
 8217WAT     H124893   9.416   9.600   0.834
 8217WAT     H224894   9.363   9.450   0.794
 8218WAT      O24895   5.631   2.908   2.843
 8218WAT     H124896   5.562   2.916   2.915
 8218WAT     H224897   5.688   2.989   2.842
 8219WAT      O24898   9.111   5.435   0.701
 8219WAT     H124899   9.156   5.377   0.633
 8219WAT     H224900   9.037   5.487   0.657
 8220WAT      O24901   2.682   5.663   2.781
 8220WAT     H124902   2.748   5.656   2.856
 8220WAT     H224903   2.637   5.575   2.768
 8221WAT      O24904   1.276   2.397   7.465
 8221WAT     H124905   1.317   2.347   7.542
 8221WAT     H224906   1.197   2.346   7.430
 8222WAT      O24907   8.606   3.411   7.640
 8222WAT     H124908   8.583   3.457   7.554
 8222WAT     H224909   8.672   3.467   7.691
 8223WAT      O24910   3.902   0.171   4.610
 8223WAT     H124911   3.858   0.155   4.699
 8223WAT     H224912   3.874   0.099   4.547
 8224WAT      O24913   9.417   1.311   9.510
 8224WAT     H124914   9.471   1.252   9.450
 8224WAT     H224915   9.469   1.394   9.530
 8225WAT      O24916   1.314   0.644   7.741
 8225WAT     H124917   1.372   0.704   7.795
 8225WAT     H224918   1.303   0.556   7.788
 8226WAT      O24919   6.236   3.197   4.422
 8226WAT     H124920   6.168   3.166   4.488
 8226WAT     H224921   6.239   3.134   4.344
 8227WAT      O24922   9.793   8.956   1.531
 8227WAT     H124923   9.820   8.969   1.436
 8227WAT     H224924   9.786   8.859   1.551
 8228WAT      O24925   7.891   3.054   5.966
 8228WAT     H124926   7.874   2.999   5.884
 8228WAT     H224927   7.837   3.138   5.962
 8229WAT      O24928   8.638   0.597   7.180
 8229WAT     H124929   8.585   0.518   7.151
 8229WAT     H224930   8.643   0.600   7.280
 8230WAT      O24931   0.350   3.159   2.471
 8230WAT     H124932   0.400   3.174   2.557
 8230WAT     H224933   0.330   3.247   2.428
 8231WAT      O24934   3.837   9.287   8.413
 8231WAT     H124935   3.746   9.261   8.383
 8231WAT     H224936   3.904   9.224   8.374
 8232WAT      O24937   6.240   3.893   7.082
 8232WAT     H124938   6.301   3.914   7.159
 8232WAT     H224939   6.258   3.957   7.008
 8233WAT      O24940   5.192   8.717   6.025
 8233WAT     H124941   5.203   8.807   5.983
 8233WAT     H224942   5.095   8.690   6.021
 8234WAT      O24943   5.209   8.939   0.256
 8234WAT     H124944   5.270   9.015   0.235
 8234WAT     H224945   5.165   8.956   0.344
 8235WAT      O24946   6.664   6.693   4.149
 8235WAT     H124947   6.716   6.609   4.164
 8235WAT     H224948   6.573   6.670   4.113
 8236WAT      O24949   2.953   0.733   3.791
 8236WAT     H124950   2.987   0.641   3.769
 8236WAT     H224951   3.024   0.800   3.769
 8237WAT      O24952   8.060   9.157   2.687
 8237WAT     H124953   8.136   9.188   2.744
 8237WAT     H224954   8.030   9.230   2.626
 8238WAT      O24955   6.793   0.915   5.185
 8238WAT     H124956   6.880   0.924   5.234
 8238WAT     H224957   6.810   0.899   5.088
 8239WAT      O24958   2.557   9.224   4.233
 8239WAT     H124959   2.651   9.232   4.201
 8239WAT     H224960   2.556   9.203   4.331
 8240WAT      O24961   5.390   5.523   6.100
 8240WAT     H124962   5.324   5.473   6.156
 8240WAT     H224963   5.483   5.502   6.133
 8241WAT      O24964   3.861   2.751   6.973
 8241WAT     H124965   3.793   2.701   7.027
 8241WAT     H224966   3.945   2.762   7.026
 8242WAT      O24967   6.257   8.911   5.597
 8242WAT     H124968   6.165   8.901   5.635
 8242WAT     H224969   6.251   8.923   5.498
 8243WAT      O24970   1.229   2.771   4.193
 8243WAT     H124971   1.172   2.775   4.274
 8243WAT     H224972   1.322   2.744   4.218
 8244WAT      O24973   9.573   0.325   1.740
 8244WAT     H124974   9.529   0.253   1.686
 8244WAT     H224975   9.535   0.414   1.714
 8245WAT      O24976   0.142   2.344   9.168
 8245WAT     H124977   0.156   2.272   9.099
 8245WAT     H224978   0.049   2.337   9.205
 8246WAT      O24979   0.347   3.164   7.227
 8246WAT     H124980   0.248   3.178   7.219
 8246WAT     H224981   0.392   3.253   7.241
 8247WAT      O24982   6.828   5.408   7.396
 8247WAT     H124983   6.926   5.391   7.381
 8247WAT     H224984   6.811   5.507   7.395
 8248WAT      O24985   2.404   4.677   2.287
 8248WAT     H124986   2.500   4.684   2.260
 8248WAT     H224987   2.391   4.719   2.376
 8249WAT      O24988   3.520   4.112   6.279
 8249WAT     H124989   3.431   4.150   6.302
 8249WAT     H224990   3.582   4.122   6.357
 8250WAT      O24991   7.750   2.000   9.731
 8250WAT     H124992   7.751   1.989   9.830
 8250WAT     H224993   7.759   1.910   9.687
 8251WAT      O24994   2.658   0.192   1.903
 8251WAT     H124995   2.616   0.221   1.988
 8251WAT     H224996   2.650   0.265   1.835
 8252WAT      O24997   6.933   3.785   8.405
 8252WAT     H124998   6.862   3.765   8.473
 8252WAT     H224999   6.893   3.782   8.314
 8253WAT      O25000   7.799   1.944   6.178
 8253WAT     H125001   7.755   1.856   6.194
 8253WAT     H225002   7.730   2.013   6.155
 8254WAT      O25003   6.025   7.226   9.750
 8254WAT     H125004   6.009   7.310   9.698
 8254WAT     H225005   6.123   7.207   9.753
 8255WAT      O25006   0.859   2.029   0.741
 8255WAT     H125007   0.883   2.024   0.838
 8255WAT     H225008   0.934   1.993   0.686
 8256WAT      O25009   1.545   5.139   7.559
 8256WAT     H125010   1.563   5.041   7.552
 8256WAT     H225011   1.489   5.157   7.640
 8257WAT      O25012   8.953   3.710   1.156
 8257WAT     H125013   8.974   3.631   1.214
 8257WAT     H225014   9.022   3.719   1.085
 8258WAT      O25015   5.022   4.840   0.981
 8258WAT     H125016   5.007   4.836   0.882
 8258WAT     H225017   4.977   4.921   1.018
 8259WAT      O25018   4.351   0.790   9.158
 8259WAT     H125019   4.428   0.802   9.096
 8259WAT     H225020   4.377   0.727   9.231
 8260WAT      O25021   6.179   2.418   2.483
 8260WAT     H125022   6.189   2.322   2.511
 8260WAT     H225023   6.245   2.438   2.410
 8261WAT      O25024   1.835   5.460   7.760
 8261WAT     H125025   1.764   5.415   7.814
 8261WAT     H225026   1.899   5.507   7.822
 8262WAT      O25027   2.023   4.875   0.622
 8262WAT     H125028   2.114   4.897   0.586
 8262WAT     H225029   1.981   4.957   0.659
 8263WAT      O25030   0.718   4.323   7.021
 8263WAT     H125031   0.757   4.391   7.083
 8263WAT     H225032   0.700   4.238   7.072
 8264WAT      O25033   2.244   4.473   9.140
 8264WAT     H125034   2.156   4.439   9.174
 8264WAT     H225035   2.301   4.396   9.113
 8265WAT      O25036   6.327   0.009   1.411
 8265WAT     H125037   6.285   0.095   1.438
 8265WAT     H225038   6.400   0.026   1.345
 8266WAT      O25039   2.089   0.306   7.931
 8266WAT     H125040   2.026   0.241   7.888
 8266WAT     H225041   2.083   0.394   7.884
 8267WAT      O25042   9.629   2.756   2.528
 8267WAT     H125043   9.599   2.712   2.613
 8267WAT     H225044   9.702   2.702   2.486
 8268WAT      O25045   6.527   0.646   5.020
 8268WAT     H125046   6.603   0.637   5.084
 8268WAT     H225047   6.549   0.713   4.950
 8269WAT      O25048   8.522   4.667   6.358
 8269WAT     H125049   8.461   4.588   6.364
 8269WAT     H225050   8.567   4.681   6.446
 8270WAT      O25051   5.139   0.404   2.763
 8270WAT     H125052   5.205   0.478   2.751
 8270WAT     H225053   5.132   0.353   2.677
 8271WAT      O25054   0.575   3.521   4.562
 8271WAT     H125055   0.490   3.496   4.516
 8271WAT     H225056   0.555   3.549   4.657
 8272WAT      O25057   4.323   2.683   3.091
 8272WAT     H125058   4.340   2.724   3.181
 8272WAT     H225059   4.400   2.625   3.065
 8273WAT      O25060   5.455   6.153   8.832
 8273WAT     H125061   5.541   6.167   8.783
 8273WAT     H225062   5.472   6.101   8.916
 8274WAT      O25063   6.666   1.906   8.744
 8274WAT     H125064   6.695   1.998   8.719
 8274WAT     H225065   6.566   1.901   8.742
 8275WAT      O25066   3.324   8.467   3.732
 8275WAT     H125067   3.354   8.429   3.819
 8275WAT     H225068   3.381   8.546   3.709
 8276WAT      O25069   7.607   5.875   7.514
 8276WAT     H125070   7.689   5.822   7.497
 8276WAT     H225071   7.528   5.830   7.471
 8277WAT      O25072   7.863   7.774   2.421
 8277WAT     H125073   7.772   7.743   2.451
 8277WAT     H225074   7.860   7.872   2.404
 8278WAT      O25075   1.723   8.852   6.874
 8278WAT     H125076   1.734   8.771   6.931
 8278WAT     H225077   1.631   8.889   6.886
 8279WAT      O25078   5.914   0.384   8.584
 8279WAT     H125079   6.000   0.432   8.598
 8279WAT     H225080   5.845   0.418   8.649
 8280WAT      O25081   6.562   7.930   0.501
 8280WAT     H125082   6.488   7.988   0.535
 8280WAT     H225083   6.574   7.946   0.403
 8281WAT      O25084   7.103   5.801   1.157
 8281WAT     H125085   7.090   5.828   1.253
 8281WAT     H225086   7.054   5.866   1.098
 8282WAT      O25087   7.624   2.436   7.948
 8282WAT     H125088   7.535   2.393   7.936
 8282WAT     H225089   7.620   2.530   7.916
 8283WAT      O25090   7.679   1.524   9.814
 8283WAT     H125091   7.735   1.445   9.788
 8283WAT     H225092   7.651   1.516   9.910
 8284WAT      O25093   9.644   5.213   6.903
 8284WAT     H125094   9.694   5.236   6.986
 8284WAT     H225095   9.693   5.142   6.853
 8285WAT      O25096   6.301   1.873   7.096
 8285WAT     H125097   6.280   1.778   7.119
 8285WAT     H225098   6.219   1.929   7.106
 8286WAT      O25099   1.749   5.071   0.448
 8286WAT     H125100   1.802   5.065   0.532
 8286WAT     H225101   1.651   5.064   0.469
 8287WAT      O25102   2.947   3.921   0.422
 8287WAT     H125103   2.941   4.014   0.388
 8287WAT     H225104   2.881   3.908   0.496
 8288WAT      O25105   5.409   5.489   3.938
 8288WAT     H125106   5.310   5.490   3.928
 8288WAT     H225107   5.448   5.571   3.895
 8289WAT      O25108   2.311   9.174   1.297
 8289WAT     H125109   2.312   9.125   1.384
 8289WAT     H225110   2.405   9.187   1.265
 8290WAT      O25111   1.968   9.410   7.400
 8290WAT     H125112   1.950   9.359   7.316
 8290WAT     H225113   2.046   9.370   7.447
 8291WAT      O25114   9.134   2.073   9.545
 8291WAT     H125115   9.108   2.015   9.623
 8291WAT     H225116   9.233   2.080   9.540
 8292WAT      O25117   1.820   1.028   4.500
 8292WAT     H125118   1.771   1.008   4.585
 8292WAT     H225119   1.759   1.076   4.437
 8293WAT      O25120   1.442   5.326   1.989
 8293WAT     H125121   1.499   5.395   1.944
 8293WAT     H225122   1.376   5.290   1.923
 8294WAT      O25123   8.097   3.561   1.619
 8294WAT     H125124   8.069   3.651   1.585
 8294WAT     H225125   8.180   3.570   1.674
 8295WAT      O25126   3.463   1.965   9.488
 8295WAT     H125127   3.509   2.039   9.536
 8295WAT     H225128   3.493   1.877   9.525
 8296WAT      O25129   6.630   7.892   7.633
 8296WAT     H125130   6.592   7.868   7.723
 8296WAT     H225131   6.572   7.961   7.589
 8297WAT      O25132   2.113   5.508   1.723
 8297WAT     H125133   2.056   5.483   1.645
 8297WAT     H225134   2.200   5.545   1.690
 8298WAT      O25135   5.940   0.312   8.888
 8298WAT     H125136   5.860   0.373   8.886
 8298WAT     H225137   5.909   0.217   8.894
 8299WAT      O25138   4.832   3.115   0.004
 8299WAT     H125139   4.883   3.097   0.088
 8299WAT     H225140   4.758   3.180   0.023
 8300WAT      O25141   3.705   4.829   7.381
 8300WAT     H125142   3.663   4.740   7.362
 8300WAT     H225143   3.779   4.846   7.316
 8301WAT      O25144   7.043   2.842   1.101
 8301WAT     H125145   7.113   2.802   1.043
 8301WAT     H225146   6.989   2.908   1.049
 8302WAT      O25147   8.041   2.135   6.422
 8302WAT     H125148   8.104   2.087   6.361
 8302WAT     H225149   7.983   2.068   6.469
 8303WAT      O25150   4.089   4.240   5.371
 8303WAT     H125151   3.994   4.209   5.381
 8303WAT     H225152   4.103   4.275   5.279
 8304WAT      O25153   6.547   6.476   9.725
 8304WAT     H125154   6.509   6.457   9.815
 8304WAT     H225155   6.538   6.574   9.705
 8305WAT      O25156   7.750   8.980   5.913
 8305WAT     H125157   7.722   9.053   5.977
 8305WAT     H225158   7.709   8.894   5.942
 8306WAT      O25159   0.193   4.126   8.865
 8306WAT     H125160   0.154   4.100   8.776
 8306WAT     H225161   0.119   4.149   8.928
 8307WAT      O25162   2.411   1.828   2.348
 8307WAT     H125163   2.438   1.825   2.444
 8307WAT     H225164   2.342   1.758   2.331
 8308WAT      O25165   5.583   7.492   6.544
 8308WAT     H125166   5.500   7.439   6.531
 8308WAT     H225167   5.571   7.553   6.623
 8309WAT      O25168   4.300   1.492   8.176
 8309WAT     H125169   4.206   1.472   8.206
 8309WAT     H225170   4.348   1.540   8.250
 8310WAT      O25171   6.602   3.287   5.047
 8310WAT     H125172   6.528   3.318   4.987
 8310WAT     H225173   6.626   3.193   5.024
 8311WAT      O25174   1.962   1.411   6.544
 8311WAT     H125175   1.881   1.458   6.510
 8311WAT     H225176   1.949   1.388   6.640
 8312WAT      O25177   9.179   5.680   0.350
 8312WAT     H125178   9.091   5.639   0.371
 8312WAT     H225179   9.191   5.685   0.251
 8313WAT      O25180   2.886   9.831   8.012
 8313WAT     H125181   2.928   9.921   8.017
 8313WAT     H225182   2.793   9.839   7.975
 8314WAT      O25183   4.008   3.131   0.866
 8314WAT     H125184   3.993   3.089   0.956
 8314WAT     H225185   4.011   3.060   0.796
 8315WAT      O25186   3.782   0.349   6.502
 8315WAT     H125187   3.699   0.316   6.545
 8315WAT     H225188   3.802   0.442   6.534
 8316WAT      O25189   9.131   3.311   7.450
 8316WAT     H125190   9.134   3.215   7.474
 8316WAT     H225191   9.175   3.365   7.522
 8317WAT      O25192   5.104   4.983   1.688
 8317WAT     H125193   5.122   4.987   1.787
 8317WAT     H225194   5.012   5.017   1.670
 8318WAT      O25195   4.298   5.569   5.399
 8318WAT     H125196   4.289   5.503   5.474
 8318WAT     H225197   4.330   5.656   5.435
 8319WAT      O25198   4.599   6.888   4.433
 8319WAT     H125199   4.576   6.981   4.404
 8319WAT     H225200   4.617   6.832   4.352
 8320WAT      O25201   1.791   4.121   2.844
 8320WAT     H125202   1.871   4.156   2.797
 8320WAT     H225203   1.757   4.039   2.797
 8321WAT      O25204   9.530   8.720   2.273
 8321WAT     H125205   9.542   8.792   2.341
 8321WAT     H225206   9.540   8.759   2.181
 8322WAT      O25207   9.252   3.142   1.099
 8322WAT     H125208   9.191   3.212   1.063
 8322WAT     H225209   9.334   3.186   1.137
 8323WAT      O25210   2.252   3.418   5.664
 8323WAT     H125211   2.275   3.514   5.655
 8323WAT     H225212   2.324   3.371   5.715
 8324WAT      O25213   9.460   9.149   3.473
 8324WAT     H125214   9.560   9.143   3.482
 8324WAT     H225215   9.421   9.185   3.558
 8325WAT      O25216   3.265   2.777   3.430
 8325WAT     H125217   3.272   2.677   3.432
 8325WAT     H225218   3.320   2.812   3.355
 8326WAT      O25219   0.828   5.780   1.232
 8326WAT     H125220   0.864   5.787   1.325
 8326WAT     H225221   0.734   5.814   1.230
 8327WAT      O25222   1.946   6.432   1.011
 8327WAT     H125223   1.917   6.508   1.068
 8327WAT     H225224   2.043   6.414   1.025
 8328WAT      O25225   5.201   2.469   9.393
 8328WAT     H125226   5.240   2.561   9.388
 8328WAT     H225227   5.159   2.456   9.483
 8329WAT      O25228   0.490   5.910   2.064
 8329WAT     H125229   0.486   5.953   1.974
 8329WAT     H225230   0.462   5.976   2.133
 8330WAT      O25231   2.406   4.495   3.208
 8330WAT     H125232   2.413   4.574   3.147
 8330WAT     H225233   2.489   4.440   3.202
 8331WAT      O25234   8.774   3.076   8.160
 8331WAT     H125235   8.819   3.009   8.218
 8331WAT     H225236   8.841   3.119   8.099
 8332WAT      O25237   3.049   8.295   0.262
 8332WAT     H125238   3.031   8.391   0.237
 8332WAT     H225239   3.132   8.264   0.217
 8333WAT      O25240   9.164   2.621   2.310
 8333WAT     H125241   9.066   2.622   2.292
 8333WAT     H225242   9.213   2.653   2.229
 8334WAT      O25243   8.961   0.023   6.194
 8334WAT     H125244   8.913   0.022   6.106
 8334WAT     H225245   9.038  -0.041   6.190
 8335WAT      O25246   2.689   4.962   7.082
 8335WAT     H125247   2.609   4.949   7.140
 8335WAT     H225248   2.770   4.976   7.140
 8336WAT      O25249   8.061   2.376   1.432
 8336WAT     H125250   7.981   2.335   1.388
 8336WAT     H225251   8.032   2.452   1.490
 8337WAT      O25252   4.444   8.829   4.042
 8337WAT     H125253   4.441   8.774   4.126
 8337WAT     H225254   4.515   8.792   3.982
 8338WAT      O25255   7.834   1.818   4.469
 8338WAT     H125256   7.744   1.785   4.439
 8338WAT     H225257   7.888   1.742   4.503
 8339WAT      O25258   4.371   2.630   2.528
 8339WAT     H125259   4.404   2.558   2.467
 8339WAT     H225260   4.374   2.718   2.480
 8340WAT      O25261   1.442   4.265   1.272
 8340WAT     H125262   1.360   4.312   1.308
 8340WAT     H225263   1.503   4.243   1.348
 8341WAT      O25264   7.722   7.464   4.006
 8341WAT     H125265   7.702   7.536   4.072
 8341WAT     H225266   7.762   7.385   4.053
 8342WAT      O25267   7.613   6.580   5.362
 8342WAT     H125268   7.519   6.586   5.329
 8342WAT     H225269   7.676   6.597   5.287
 8343WAT      O25270   0.178   1.071   5.462
 8343WAT     H125271   0.243   1.012   5.414
 8343WAT     H225272   0.182   1.163   5.423
 8344WAT      O25273   2.369   9.347   2.414
 8344WAT     H125274   2.334   9.421   2.357
 8344WAT     H225275   2.423   9.285   2.357
 8345WAT      O25276   1.623   7.995   6.072
 8345WAT     H125277   1.620   7.895   6.076
 8345WAT     H225278   1.530   8.031   6.064
 8346WAT      O25279   4.208   7.360   4.819
 8346WAT     H125280   4.257   7.308   4.749
 8346WAT     H225281   4.265   7.366   4.901
 8347WAT      O25282   2.316   0.277   4.296
 8347WAT     H125283   2.304   0.245   4.202
 8347WAT     H225284   2.260   0.222   4.358
 8348WAT      O25285   1.720   6.361   8.565
 8348WAT     H125286   1.800   6.318   8.524
 8348WAT     H225287   1.640   6.303   8.549
 8349WAT      O25288   9.536   0.847   3.890
 8349WAT     H125289   9.608   0.915   3.879
 8349WAT     H225290   9.475   0.850   3.811
 8350WAT      O25291   9.805   8.109   6.797
 8350WAT     H125292   9.876   8.097   6.728
 8350WAT     H225293   9.769   8.020   6.824
 8351WAT      O25294   5.676   5.728   1.597
 8351WAT     H125295   5.734   5.665   1.649
 8351WAT     H225296   5.655   5.688   1.508
 8352WAT      O25297   1.255   2.657   2.435
 8352WAT     H125298   1.205   2.618   2.358
 8352WAT     H225299   1.191   2.701   2.499
 8353WAT      O25300   3.389   3.190   6.121
 8353WAT     H125301   3.453   3.113   6.114
 8353WAT     H225302   3.342   3.186   6.209
 8354WAT      O25303   6.601   7.106   5.426
 8354WAT     H125304   6.506   7.076   5.425
 8354WAT     H225305   6.605   7.203   5.450
 8355WAT      O25306   3.008   8.346   7.563
 8355WAT     H125307   3.001   8.439   7.598
 8355WAT     H225308   3.046   8.347   7.471
 8356WAT      O25309   6.869   5.276   8.344
 8356WAT     H125310   6.873   5.365   8.299
 8356WAT     H225311   6.783   5.230   8.320
 8357WAT      O25312   7.542   2.140   0.465
 8357WAT     H125313   7.624   2.084   0.463
 8357WAT     H225314   7.467   2.088   0.506
 8358WAT      O25315   6.447   2.144   6.577
 8358WAT     H125316   6.394   2.063   6.553
 8358WAT     H225317   6.453   2.152   6.677
 8359WAT      O25318   1.253   5.243   1.830
 8359WAT     H125319   1.195   5.183   1.885
 8359WAT     H225320   1.222   5.337   1.840
 8360WAT      O25321   3.921   7.801   9.474
 8360WAT     H125322   3.864   7.822   9.395
 8360WAT     H225323   3.984   7.877   9.491
 8361WAT      O25324   0.395   0.017   5.779
 8361WAT     H125325   0.336   0.037   5.701
 8361WAT     H225326   0.453  -0.062   5.758
 8362WAT      O25327   4.772   8.543   9.669
 8362WAT     H125328   4.837   8.507   9.736
 8362WAT     H225329   4.710   8.470   9.640
 8363WAT      O25330   7.961   7.934   9.330
 8363WAT     H125331   7.971   7.876   9.411
 8363WAT     H225332   7.929   7.878   9.253
 8364WAT      O25333   0.887   5.610   9.012
 8364WAT     H125334   0.843   5.549   8.946
 8364WAT     H225335   0.870   5.705   8.986
 8365WAT      O25336   6.158   7.633   7.790
 8365WAT     H125337   6.070   7.598   7.761
 8365WAT     H225338   6.146   7.696   7.866
 8366WAT      O25339   5.607   3.586   9.562
 8366WAT     H125340   5.648   3.646   9.493
 8366WAT     H225341   5.603   3.634   9.650
 8367WAT      O25342   1.423   4.694   7.567
 8367WAT     H125343   1.328   4.700   7.538
 8367WAT     H225344   1.432   4.730   7.660
 8368WAT      O25345   9.840   7.875   8.906
 8368WAT     H125346   9.829   7.922   8.993
 8368WAT     H225347   9.867   7.780   8.922
 8369WAT      O25348   0.275   8.310   3.506
 8369WAT     H125349   0.362   8.283   3.546
 8369WAT     H225350   0.269   8.409   3.503
 8370WAT      O25351   2.871   6.938   2.537
 8370WAT     H125352   2.780   6.900   2.522
 8370WAT     H225353   2.937   6.891   2.478
 8371WAT      O25354   9.615   2.581   5.525
 8371WAT     H125355   9.616   2.498   5.469
 8371WAT     H225356   9.592   2.660   5.468
 8372WAT      O25357   5.423   5.884   5.732
 8372WAT     H125358   5.328   5.910   5.717
 8372WAT     H225359   5.439   5.793   5.694
 8373WAT      O25360   5.255   4.203   9.310
 8373WAT     H125361   5.286   4.140   9.238
 8373WAT     H225362   5.210   4.281   9.268
 8374WAT      O25363   4.090   3.460   6.983
 8374WAT     H125364   4.188   3.475   6.968
 8374WAT     H225365   4.076   3.367   7.018
 8375WAT      O25366   5.913   8.565   3.769
 8375WAT     H125367   5.832   8.599   3.817
 8375WAT     H225368   5.951   8.488   3.821
 8376WAT      O25369   9.800   0.313   3.224
 8376WAT     H125370   9.841   0.337   3.136
 8376WAT     H225371   9.701   0.322   3.219
 8377WAT      O25372   1.347   9.354   4.298
 8377WAT     H125373   1.390   9.286   4.359
 8377WAT     H225374   1.392   9.352   4.209
 8378WAT      O25375   3.617   6.906   0.799
 8378WAT     H125376   3.637   6.863   0.887
 8378WAT     H225377   3.521   6.935   0.797
 8379WAT      O25378   5.800   4.969   3.080
 8379WAT     H125379   5.787   5.016   2.993
 8379WAT     H225380   5.882   5.004   3.125
 8380WAT      O25381   0.154   4.664   2.347
 8380WAT     H125382   0.178   4.759   2.327
 8380WAT     H225383   0.091   4.662   2.425
 8381WAT      O25384   2.118   6.808   1.367
 8381WAT     H125385   2.192   6.741   1.372
 8381WAT     H225386   2.135   6.871   1.291
 8382WAT      O25387   6.393   9.309   9.038
 8382WAT     H125388   6.472   9.355   8.996
 8382WAT     H225389   6.378   9.346   9.129
 8383WAT      O25390   8.840   6.716   4.038
 8383WAT     H125391   8.859   6.778   3.962
 8383WAT     H225392   8.784   6.763   4.107
 8384WAT      O25393   8.454   3.470   4.145
 8384WAT     H125394   8.399   3.497   4.224
 8384WAT     H225395   8.549   3.456   4.173
 8385WAT      O25396   6.597   2.024   4.059
 8385WAT     H125397   6.667   1.953   4.063
 8385WAT     H225398   6.592   2.070   4.148
 8386WAT      O25399   1.619   1.990   6.969
 8386WAT     H125400   1.555   2.029   7.035
 8386WAT     H225401   1.596   1.894   6.954
 8387WAT      O25402   0.331   6.784   7.274
 8387WAT     H125403   0.275   6.866   7.287
 8387WAT     H225404   0.302   6.738   7.189
 8388WAT      O25405   6.146   5.715   7.863
 8388WAT     H125406   6.094   5.631   7.847
 8388WAT     H225407   6.243   5.697   7.851
 8389WAT      O25408   4.117   4.304   9.032
 8389WAT     H125409   4.164   4.385   9.069
 8389WAT     H225410   4.033   4.333   8.986
 8390WAT      O25411   3.667   0.961   8.061
 8390WAT     H125412   3.688   0.869   8.093
 8390WAT     H225413   3.742   0.993   8.002
 8391WAT      O25414   8.540   3.589   5.421
 8391WAT     H125415   8.577   3.628   5.505
 8391WAT     H225416   8.490   3.505   5.442
 8392WAT      O25417   9.508   8.507   3.107
 8392WAT     H125418   9.570   8.456   3.166
 8392WAT     H225419   9.440   8.555   3.163
 8393WAT      O25420   5.135   8.416   8.721
 8393WAT     H125421   5.156   8.342   8.657
 8393WAT     H225422   5.215   8.436   8.776
 8394WAT      O25423   7.475   4.078   3.254
 8394WAT     H125424   7.487   3.986   3.290
 8394WAT     H225425   7.533   4.142   3.305
 8395WAT      O25426   1.311   0.991   9.660
 8395WAT     H125427   1.370   1.052   9.713
 8395WAT     H225428   1.217   1.027   9.660
 8396WAT      O25429   1.612   7.675   3.605
 8396WAT     H125430   1.689   7.613   3.592
 8396WAT     H225431   1.566   7.688   3.517
 8397WAT      O25432   4.558   0.461   5.468
 8397WAT     H125433   4.486   0.403   5.430
 8397WAT     H225434   4.618   0.406   5.527
 8398WAT      O25435   9.584   6.291   9.475
 8398WAT     H125436   9.643   6.371   9.487
 8398WAT     H225437   9.577   6.270   9.377
 8399WAT      O25438   4.322   5.120   9.520
 8399WAT     H125439   4.349   5.024   9.532
 8399WAT     H225440   4.250   5.142   9.586
 8400WAT      O25441   7.203   3.192   2.005
 8400WAT     H125442   7.274   3.125   2.028
 8400WAT     H225443   7.242   3.262   1.945
 8401WAT      O25444   3.595   2.714   0.498
 8401WAT     H125445   3.678   2.660   0.490
 8401WAT     H225446   3.537   2.698   0.419
 8402WAT      O25447   8.697   6.021   7.134
 8402WAT     H125448   8.710   5.980   7.044
 8402WAT     H225449   8.786   6.037   7.177
 8403WAT      O25450   8.413   3.466   3.091
 8403WAT     H125451   8.376   3.555   3.117
 8403WAT     H225452   8.345   3.395   3.108
 8404WAT      O25453   1.915   6.284   7.967
 8404WAT     H125454   1.915   6.185   7.955
 8404WAT     H225455   1.998   6.323   7.928
 8405WAT      O25456   9.075   1.563   0.429
 8405WAT     H125457   8.998   1.551   0.492
 8405WAT     H225458   9.155   1.594   0.481
 8406WAT      O25459   7.293   0.631   2.951
 8406WAT     H125460   7.384   0.649   2.989
 8406WAT     H225461   7.247   0.718   2.932
 8407WAT      O25462   0.930   3.059   6.942
 8407WAT     H125463   0.832   3.040   6.934
 8407WAT     H225464   0.963   3.024   7.030
 8408WAT      O25465   8.870   8.496   6.949
 8408WAT     H125466   8.856   8.405   6.910
 8408WAT     H225467   8.900   8.488   7.044
 8409WAT      O25468   7.860   3.504   6.869
 8409WAT     H125469   7.843   3.514   6.967
 8409WAT     H225470   7.778   3.532   6.819
 8410WAT      O25471   3.319   8.175   9.471
 8410WAT     H125472   3.279   8.115   9.540
 8410WAT     H225473   3.289   8.269   9.487
 8411WAT      O25474   8.710   2.274   3.455
 8411WAT     H125475   8.662   2.273   3.542
 8411WAT     H225476   8.654   2.230   3.385
 8412WAT      O25477   8.047   1.338   9.361
 8412WAT     H125478   8.103   1.413   9.326
 8412WAT     H225479   8.106   1.267   9.399
 8413WAT      O25480   1.085   9.465   3.238
 8413WAT     H125481   1.167   9.478   3.182
 8413WAT     H225482   1.096   9.514   3.324
 8414WAT      O25483   9.101   7.774   4.927
 8414WAT     H125484   9.155   7.807   5.004
 8414WAT     H225485   9.079   7.678   4.940
 8415WAT      O25486   9.860   5.269   4.722
 8415WAT     H125487   9.953   5.239   4.701
 8415WAT     H225488   9.864   5.344   4.789
 8416WAT      O25489   6.163   6.206   9.419
 8416WAT     H125490   6.083   6.236   9.471
 8416WAT     H225491   6.189   6.277   9.354
 8417WAT      O25492   8.132   5.435   6.354
 8417WAT     H125493   8.208   5.439   6.419
 8417WAT     H225494   8.166   5.458   6.263
 8418WAT      O25495   2.000   5.559   7.227
 8418WAT     H125496   1.961   5.467   7.218
 8418WAT     H225497   2.029   5.592   7.138
 8419WAT      O25498   9.713   9.088   0.020
 8419WAT     H125499   9.668   9.010   0.062
 8419WAT     H225500   9.684   9.172   0.066
 8420WAT      O25501   2.425   7.604   9.227
 8420WAT     H125502   2.373   7.682   9.264
 8420WAT     H225503   2.437   7.617   9.128
 8421WAT      O25504   8.897   7.661   1.491
 8421WAT     H125505   8.816   7.651   1.432
 8421WAT     H225506   8.954   7.580   1.483
 8422WAT      O25507   7.993   9.328   3.222
 8422WAT     H125508   7.931   9.293   3.293
 8422WAT     H225509   8.079   9.356   3.265
 8423WAT      O25510   8.504   7.324   6.479
 8423WAT     H125511   8.529   7.379   6.559
 8423WAT     H225512   8.571   7.250   6.467
 8424WAT      O25513   6.747   9.184   3.085
 8424WAT     H125514   6.779   9.091   3.073
 8424WAT     H225515   6.659   9.196   3.038
 8425WAT      O25516   0.620   1.935   1.850
 8425WAT     H125517   0.638   1.843   1.814
 8425WAT     H225518   0.533   1.935   1.898
 8426WAT      O25519   0.497   5.447   1.106
 8426WAT     H125520   0.594   5.472   1.102
 8426WAT     H225521   0.471   5.430   1.201
 8427WAT      O25522   6.808   6.222   7.698
 8427WAT     H125523   6.834   6.317   7.715
 8427WAT     H225524   6.810   6.204   7.599
 8428WAT      O25525   2.299   0.263   3.335
 8428WAT     H125526   2.384   0.229   3.374
 8428WAT     H225527   2.320   0.319   3.255
 8429WAT      O25528   5.605   3.833   4.774
 8429WAT     H125529   5.673   3.846   4.702
 8429WAT     H225530   5.633   3.885   4.855
 8430WAT      O25531   5.687   7.264   9.653
 8430WAT     H125532   5.677   7.357   9.689
 8430WAT     H225533   5.746   7.211   9.714
 8431WAT      O25534   0.635   4.041   5.577
 8431WAT     H125535   0.683   4.128   5.586
 8431WAT     H225536   0.616   4.023   5.480
 8432WAT      O25537   5.445   4.247   5.823
 8432WAT     H125538   5.371   4.183   5.846
 8432WAT     H225539   5.408   4.340   5.815
 8433WAT      O25540   5.736   8.134   4.423
 8433WAT     H125541   5.721   8.233   4.427
 8433WAT     H225542   5.793   8.113   4.343
 8434WAT      O25543   8.426   1.166   2.751
 8434WAT     H125544   8.338   1.194   2.789
 8434WAT     H225545   8.412   1.129   2.659
 8435WAT      O25546   0.705   5.776   9.513
 8435WAT     H125547   0.646   5.697   9.494
 8435WAT     H225548   0.776   5.781   9.444
 8436WAT      O25549   1.984   3.851   0.778
 8436WAT     H125550   2.051   3.803   0.723
 8436WAT     H225551   1.899   3.861   0.726
 8437WAT      O25552   4.140   8.454   3.933
 8437WAT     H125553   4.161   8.528   3.869
 8437WAT     H225554   4.079   8.488   4.005
 8438WAT      O25555   3.733   6.958   1.835
 8438WAT     H125556   3.728   6.879   1.896
 8438WAT     H225557   3.659   6.955   1.769
 8439WAT      O25558   7.208   9.161   8.767
 8439WAT     H125559   7.305   9.168   8.791
 8439WAT     H225560   7.176   9.068   8.786
 8440WAT      O25561   5.932   9.810   7.342
 8440WAT     H125562   5.975   9.892   7.305
 8440WAT     H225563   5.834   9.812   7.325
 8441WAT      O25564   6.588   5.705   2.309
 8441WAT     H125565   6.563   5.686   2.214
 8441WAT     H225566   6.667   5.650   2.334
 8442WAT      O25567   1.963   4.048   6.675
 8442WAT     H125568   2.056   4.082   6.656
 8442WAT     H225569   1.910   4.119   6.720
 8443WAT      O25570   7.479   3.878   6.745
 8443WAT     H125571   7.519   3.969   6.729
 8443WAT     H225572   7.436   3.876   6.836
 8444WAT      O25573   9.335   5.604   2.387
 8444WAT     H125574   9.260   5.539   2.399
 8444WAT     H225575   9.415   5.573   2.438
 8445WAT      O25576   2.335   6.399   2.852
 8445WAT     H125577   2.330   6.332   2.778
 8445WAT     H225578   2.284   6.365   2.931
 8446WAT      O25579   4.919   6.920   2.421
 8446WAT     H125580   4.873   6.842   2.463
 8446WAT     H225581   4.852   6.979   2.376
 8447WAT      O25582   1.899   2.016   7.104
 8447WAT     H125583   1.947   1.929   7.103
 8447WAT     H225584   1.813   2.007   7.053
 8448WAT      O25585   8.774   4.158   4.192
 8448WAT     H125586   8.765   4.256   4.210
 8448WAT     H225587   8.870   4.132   4.196
 8449WAT      O25588   1.540   4.622   5.874
 8449WAT     H125589   1.499   4.591   5.960
 8449WAT     H225590   1.521   4.554   5.802
 8450WAT      O25591   9.164   4.128   0.441
 8450WAT     H125592   9.096   4.201   0.431
 8450WAT     H225593   9.222   4.125   0.360
 8451WAT      O25594   7.217   8.092   0.310
 8451WAT     H125595   7.280   8.123   0.239
 8451WAT     H225596   7.197   8.168   0.372
 8452WAT      O25597   8.123   7.572   2.439
 8452WAT     H125598   8.223   7.581   2.432
 8452WAT     H225599   8.089   7.632   2.511
 8453WAT      O25600   3.976   1.562   3.292
 8453WAT     H125601   4.016   1.642   3.249
 8453WAT     H225602   3.934   1.588   3.379
 8454WAT      O25603   8.617   3.423   4.547
 8454WAT     H125604   8.518   3.411   4.547
 8454WAT     H225605   8.650   3.429   4.452
 8455WAT      O25606   7.096   5.148   6.957
 8455WAT     H125607   7.168   5.083   6.931
 8455WAT     H225608   7.111   5.235   6.910
 8456WAT      O25609   1.938   8.828   8.398
 8456WAT     H125610   1.899   8.893   8.332
 8456WAT     H225611   1.928   8.863   8.491
 8457WAT      O25612   6.894   0.209   9.080
 8457WAT     H125613   6.889   0.122   9.131
 8457WAT     H225614   6.972   0.207   9.019
 8458WAT      O25615   8.032   2.818   4.562
 8458WAT     H125616   8.079   2.737   4.599
 8458WAT     H225617   8.084   2.854   4.485
 8459WAT      O25618   2.902   1.371   2.117
 8459WAT     H125619   2.979   1.308   2.117
 8459WAT     H225620   2.817   1.321   2.099
 8460WAT      O25621   1.388   5.057   1.691
 8460WAT     H125622   1.317   5.115   1.732
 8460WAT     H225623   1.379   5.058   1.592
 8461WAT      O25624   1.374   1.985   4.652
 8461WAT     H125625   1.328   2.072   4.636
 8461WAT     H225626   1.472   2.001   4.665
 8462WAT      O25627   7.126   9.353   7.466
 8462WAT     H125628   7.142   9.443   7.507
 8462WAT     H225629   7.062   9.302   7.523
 8463WAT      O25630   5.331   9.792   7.284
 8463WAT     H125631   5.250   9.744   7.319
 8463WAT     H225632   5.347   9.765   7.189
 8464WAT      O25633   4.711   1.156   8.718
 8464WAT     H125634   4.728   1.115   8.808
 8464WAT     H225635   4.619   1.132   8.688
 8465WAT      O25636   1.682   0.888   6.695
 8465WAT     H125637   1.781   0.894   6.681
 8465WAT     H225638   1.640   0.977   6.676
 8466WAT      O25639   6.511   8.516   5.464
 8466WAT     H125640   6.482   8.420   5.464
 8466WAT     H225641   6.525   8.546   5.370
 8467WAT      O25642   2.618   6.963   8.527
 8467WAT     H125643   2.585   7.055   8.549
 8467WAT     H225644   2.632   6.912   8.612
 8468WAT      O25645   0.969   7.528   1.643
 8468WAT     H125646   0.990   7.546   1.740
 8468WAT     H225647   0.941   7.613   1.599
 8469WAT      O25648   8.212   0.893   6.816
 8469WAT     H125649   8.192   0.884   6.718
 8469WAT     H225650   8.208   0.803   6.859
 8470WAT      O25651   7.416   1.512   1.011
 8470WAT     H125652   7.506   1.540   0.977
 8470WAT     H225653   7.388   1.428   0.965
 8471WAT      O25654   1.137   7.763   6.961
 8471WAT     H125655   1.236   7.764   6.945
 8471WAT     H225656   1.093   7.702   6.895
 8472WAT      O25657   3.315   5.162   6.819
 8472WAT     H125658   3.398   5.176   6.765
 8472WAT     H225659   3.264   5.085   6.782
 8473WAT      O25660   8.525   4.598   9.588
 8473WAT     H125661   8.585   4.518   9.584
 8473WAT     H225662   8.452   4.582   9.654
 8474WAT      O25663   5.765   6.037   2.216
 8474WAT     H125664   5.829   6.019   2.141
 8474WAT     H225665   5.672   6.028   2.183
 8475WAT      O25666   9.753   4.935   3.478
 8475WAT     H125667   9.667   4.894   3.507
 8475WAT     H225668   9.739   5.032   3.458
 8476WAT      O25669   6.117   9.718   5.949
 8476WAT     H125670   6.082   9.744   5.858
 8476WAT     H225671   6.075   9.777   6.018
 8477WAT      O25672   3.429   8.855   8.602
 8477WAT     H125673   3.346   8.812   8.566
 8477WAT     H225674   3.488   8.784   8.641
 8478WAT      O25675   7.507   1.124   2.382
 8478WAT     H125676   7.477   1.067   2.306
 8478WAT     H225677   7.607   1.116   2.392
 8479WAT      O25678   2.231   7.384   3.756
 8479WAT     H125679   2.163   7.436   3.807
 8479WAT     H225680   2.235   7.417   3.661
 8480WAT      O25681   8.960   4.315   9.206
 8480WAT     H125682   8.967   4.311   9.106
 8480WAT     H225683   8.957   4.222   9.243
 8481WAT      O25684   7.362   7.948   3.335
 8481WAT     H125685   7.451   7.988   3.314
 8481WAT     H225686   7.290   8.007   3.299
 8482WAT      O25687   3.206   4.793   1.885
 8482WAT     H125688   3.159   4.739   1.815
 8482WAT     H225689   3.263   4.863   1.841
 8483WAT      O25690   2.318   2.192   8.069
 8483WAT     H125691   2.242   2.129   8.056
 8483WAT     H225692   2.360   2.175   8.159
 8484WAT      O25693   8.264   9.143   0.325
 8484WAT     H125694   8.204   9.077   0.371
 8484WAT     H225695   8.259   9.129   0.226
 8485WAT      O25696   6.457   3.201   1.729
 8485WAT     H125697   6.431   3.183   1.634
 8485WAT     H225698   6.544   3.156   1.748
 8486WAT      O25699   9.321   5.386   0.931
 8486WAT     H125700   9.351   5.323   1.002
 8486WAT     H225701   9.306   5.335   0.846
 8487WAT      O25702   9.596   8.199   8.698
 8487WAT     H125703   9.588   8.244   8.787
 8487WAT     H225704   9.551   8.255   8.628
 8488WAT      O25705   6.491   6.990   8.163
 8488WAT     H125706   6.510   7.029   8.073
 8488WAT     H225707   6.450   6.899   8.152
 8489WAT      O25708   0.104   2.823   3.429
 8489WAT     H125709   0.080   2.779   3.515
 8489WAT     H225710   0.198   2.798   3.404
 8490WAT      O25711   1.450   6.864   0.729
 8490WAT     H125712   1.398   6.900   0.807
 8490WAT     H225713   1.547   6.864   0.751
 8491WAT      O25714   4.277   8.970   6.619
 8491WAT     H125715   4.278   8.879   6.662
 8491WAT     H225716   4.341   9.030   6.667
 8492WAT      O25717   8.425   7.744   8.851
 8492WAT     H125718   8.407   7.693   8.935
 8492WAT     H225719   8.342   7.793   8.823
 8493WAT      O25720   1.731   1.818   5.686
 8493WAT     H125721   1.743   1.869   5.771
 8493WAT     H225722   1.817   1.819   5.634
 8494WAT      O25723   4.966   6.714   4.947
 8494WAT     H125724   4.882   6.695   4.999
 8494WAT     H225725   5.038   6.652   4.979
 8495WAT      O25726   9.228   9.556   5.317
 8495WAT     H125727   9.173   9.524   5.240
 8495WAT     H225728   9.197   9.648   5.344
 8496WAT      O25729   9.117   8.618   7.758
 8496WAT     H125730   9.190   8.561   7.721
 8496WAT     H225731   9.136   8.714   7.738
 8497WAT      O25732   1.567   2.862   3.070
 8497WAT     H125733   1.473   2.876   3.039
 8497WAT     H225734   1.573   2.878   3.169
 8498WAT      O25735   0.805   5.202   7.694
 8498WAT     H125736   0.871   5.188   7.620
 8498WAT     H225737   0.745   5.278   7.672
 8499WAT      O25738   2.597   1.856   6.070
 8499WAT     H125739   2.550   1.936   6.033
 8499WAT     H225740   2.558   1.832   6.159
 8500WAT      O25741   5.783   2.091   9.257
 8500WAT     H125742   5.824   2.146   9.184
 8500WAT     H225743   5.706   2.141   9.298
 8501WAT      O25744   9.043   4.677   2.816
 8501WAT     H125745   9.029   4.729   2.733
 8501WAT     H225746   9.022   4.734   2.896
 8502WAT      O25747   9.377   4.770   7.792
 8502WAT     H125748   9.335   4.681   7.772
 8502WAT     H225749   9.470   4.756   7.825
 8503WAT      O25750   3.187   0.364   4.712
 8503WAT     H125751   3.123   0.310   4.766
 8503WAT     H225752   3.267   0.386   4.769
 8504WAT      O25753   9.030   8.734   9.601
 8504WAT     H125754   8.955   8.668   9.608
 8504WAT     H225755   9.091   8.708   9.526
 8505WAT      O25756   8.504   1.049   8.515
 8505WAT     H125757   8.433   0.988   8.547
 8505WAT     H225758   8.590   0.998   8.504
 8506WAT      O25759   8.691   1.846   1.978
 8506WAT     H125760   8.783   1.855   2.015
 8506WAT     H225761   8.647   1.765   2.016
 8507WAT      O25762   3.240   1.537   1.525
 8507WAT     H125763   3.216   1.534   1.428
 8507WAT     H225764   3.340   1.531   1.536
 8508WAT      O25765   4.199   4.762   4.756
 8508WAT     H125766   4.210   4.702   4.677
 8508WAT     H225767   4.141   4.840   4.731
 8509WAT      O25768   3.129   7.005   8.658
 8509WAT     H125769   3.032   7.032   8.660
 8509WAT     H225770   3.152   6.959   8.744
 8510WAT      O25771   7.712   6.808   2.024
 8510WAT     H125772   7.778   6.847   2.088
 8510WAT     H225773   7.711   6.863   1.940
 8511WAT      O25774   2.529   4.758   5.478
 8511WAT     H125775   2.624   4.788   5.479
 8511WAT     H225776   2.470   4.836   5.460
 8512WAT      O25777   5.804   6.412   6.215
 8512WAT     H125778   5.830   6.410   6.119
 8512WAT     H225779   5.733   6.481   6.230
 8513WAT      O25780   3.761   0.737   8.182
 8513WAT     H125781   3.861   0.742   8.179
 8513WAT     H225782   3.731   0.718   8.275
 8514WAT      O25783   1.361   0.399   7.863
 8514WAT     H125784   1.371   0.338   7.785
 8514WAT     H225785   1.434   0.382   7.929
 8515WAT      O25786   6.645   6.403   1.292
 8515WAT     H125787   6.683   6.346   1.219
 8515WAT     H225788   6.675   6.369   1.381
 8516WAT      O25789   0.717   4.998   8.093
 8516WAT     H125790   0.750   4.988   8.187
 8516WAT     H225791   0.636   5.056   8.092
 8517WAT      O25792   3.627   8.682   5.044
 8517WAT     H125793   3.600   8.769   5.002
 8517WAT     H225794   3.574   8.668   5.128
 8518WAT      O25795   6.671   1.058   9.570
 8518WAT     H125796   6.758   1.086   9.612
 8518WAT     H225797   6.689   1.020   9.479
 8519WAT      O25798   2.070   6.719   8.442
 8519WAT     H125799   2.044   6.658   8.367
 8519WAT     H225800   2.169   6.715   8.455
 8520WAT      O25801   1.199   2.552   5.900
 8520WAT     H125802   1.150   2.565   5.986
 8520WAT     H225803   1.134   2.548   5.824
 8521WAT      O25804   8.044   8.760   2.841
 8521WAT     H125805   8.143   8.756   2.836
 8521WAT     H225806   8.005   8.754   2.750
 8522WAT      O25807   7.074   8.403   6.359
 8522WAT     H125808   7.142   8.458   6.311
 8522WAT     H225809   7.113   8.313   6.382
 8523WAT      O25810   5.959   2.134   8.669
 8523WAT     H125811   6.050   2.160   8.702
 8523WAT     H225812   5.910   2.085   8.741
 8524WAT      O25813   5.860   3.543   2.214
 8524WAT     H125814   5.866   3.640   2.238
 8524WAT     H225815   5.916   3.490   2.277
 8525WAT      O25816   8.221   2.243   7.172
 8525WAT     H125817   8.216   2.335   7.135
 8525WAT     H225818   8.129   2.213   7.200
 8526WAT      O25819   5.867   9.811   8.408
 8526WAT     H125820   5.851   9.840   8.503
 8526WAT     H225821   5.787   9.759   8.377
 8527WAT      O25822   9.690   0.036   3.278
 8527WAT     H125823   9.719   0.124   3.241
 8527WAT     H225824   9.590   0.031   3.276
 8528WAT      O25825   2.486   0.704   2.069
 8528WAT     H125826   2.474   0.647   2.150
 8528WAT     H225827   2.397   0.735   2.036
 8529WAT      O25828   4.501   1.952   1.842
 8529WAT     H125829   4.418   1.987   1.799
 8529WAT     H225830   4.477   1.891   1.918
 8530WAT      O25831   1.258   3.734   3.750
 8530WAT     H125832   1.312   3.808   3.790
 8530WAT     H225833   1.228   3.760   3.658
 8531WAT      O25834   0.644   5.049   3.910
 8531WAT     H125835   0.623   4.970   3.853
 8531WAT     H225836   0.708   5.109   3.862
 8532WAT      O25837   8.209   8.800   0.781
 8532WAT     H125838   8.182   8.724   0.840
 8532WAT     H225839   8.221   8.883   0.836
 8533WAT      O25840   2.901   1.429   1.763
 8533WAT     H125841   2.899   1.437   1.664
 8533WAT     H225842   2.875   1.336   1.789
 8534WAT      O25843   7.083   7.940   7.864
 8534WAT     H125844   7.107   7.888   7.781
 8534WAT     H225845   6.990   7.918   7.891
 8535WAT      O25846   1.036   1.082   8.060
 8535WAT     H125847   1.094   1.057   7.982
 8535WAT     H225848   1.091   1.082   8.143
 8536WAT      O25849   8.426   3.854   4.061
 8536WAT     H125850   8.338   3.845   4.014
 8536WAT     H225851   8.481   3.772   4.044
 8537WAT      O25852   3.869   5.260   6.589
 8537WAT     H125853   3.859   5.256   6.688
 8537WAT     H225854   3.783   5.232   6.546
 8538WAT      O25855   5.874   1.842   1.361
 8538WAT     H125856   5.914   1.850   1.452
 8538WAT     H225857   5.776   1.822   1.369
 8539WAT      O25858   3.128   5.197   4.292
 8539WAT     H125859   3.028   5.200   4.292
 8539WAT     H225860   3.163   5.273   4.238
 8540WAT      O25861   2.436   1.052   6.020
 8540WAT     H125862   2.487   1.017   6.098
 8540WAT     H225863   2.365   1.116   6.052
 8541WAT      O25864   6.286   8.260   3.077
 8541WAT     H125865   6.268   8.175   3.125
 8541WAT     H225866   6.232   8.262   2.992
 8542WAT      O25867   9.619   9.539   1.698
 8542WAT     H125868   9.683   9.616   1.704
 8542WAT     H225869   9.667   9.455   1.723
 8543WAT      O25870   7.052   5.000   5.250
 8543WAT     H125871   6.966   4.963   5.213
 8543WAT     H225872   7.055   4.985   5.348
 8544WAT      O25873   4.605   8.914   3.084
 8544WAT     H125874   4.656   8.854   3.146
 8544WAT     H225875   4.532   8.863   3.040
 8545WAT      O25876   6.348   2.860   2.393
 8545WAT     H125877   6.376   2.956   2.392
 8545WAT     H225878   6.282   2.844   2.319
 8546WAT      O25879   4.061   6.832   8.859
 8546WAT     H125880   4.074   6.760   8.927
 8546WAT     H225881   4.119   6.812   8.779
 8547WAT      O25882   2.972   6.761   2.332
 8547WAT     H125883   3.066   6.742   2.304
 8547WAT     H225884   2.924   6.675   2.351
 8548WAT      O25885   0.572   1.209   0.552
 8548WAT     H125886   0.543   1.238   0.644
 8548WAT     H225887   0.632   1.278   0.514
 8549WAT      O25888   9.450   0.660   3.601
 8549WAT     H125889   9.406   0.585   3.651
 8549WAT     H225890   9.405   0.746   3.624
 8550WAT      O25891   9.745   6.784   3.007
 8550WAT     H125892   9.771   6.687   3.009
 8550WAT     H225893   9.653   6.793   2.969
 8551WAT      O25894   8.741   2.304   1.110
 8551WAT     H125895   8.724   2.402   1.113
 8551WAT     H225896   8.681   2.261   1.043
 8552WAT      O25897   4.655   2.864   9.303
 8552WAT     H125898   4.751   2.861   9.332
 8552WAT     H225899   4.650   2.868   9.203
 8553WAT      O25900   9.576   1.255   5.896
 8553WAT     H125901   9.572   1.181   5.963
 8553WAT     H225902   9.615   1.220   5.811
 8554WAT      O25903   8.062   0.462   4.474
 8554WAT     H125904   7.988   0.526   4.493
 8554WAT     H225905   8.102   0.483   4.384
 8555WAT      O25906   5.092   3.728   3.546
 8555WAT     H125907   5.108   3.807   3.487
 8555WAT     H225908   5.159   3.656   3.525
 8556WAT      O25909   3.015   0.146   7.041
 8556WAT     H125910   2.920   0.165   7.067
 8556WAT     H225911   3.039   0.053   7.069
 8557WAT      O25912   9.568   0.197   6.056
 8557WAT     H125913   9.602   0.135   5.985
 8557WAT     H225914   9.470   0.183   6.069
 8558WAT      O25915   5.226   6.187   2.816
 8558WAT     H125916   5.183   6.277   2.822
 8558WAT     H225917   5.168   6.126   2.763
 8559WAT      O25918   9.476   4.555   5.976
 8559WAT     H125919   9.514   4.621   5.911
 8559WAT     H225920   9.409   4.498   5.930
 8560WAT      O25921   9.289   4.198   6.423
 8560WAT     H125922   9.331   4.146   6.497
 8560WAT     H225923   9.360   4.249   6.374
 8561WAT      O25924   2.573   1.487   5.967
 8561WAT     H125925   2.643   1.559   5.960
 8561WAT     H225926   2.551   1.471   6.064
 8562WAT      O25927   6.288   3.459   2.051
 8562WAT     H125928   6.192   3.455   2.021
 8562WAT     H225929   6.348   3.464   1.971
 8563WAT      O25930   4.100   7.996   1.216
 8563WAT     H125931   4.116   7.956   1.306
 8563WAT     H225932   4.173   8.060   1.194
 8564WAT      O25933   1.401   2.589   1.683
 8564WAT     H125934   1.371   2.567   1.776
 8564WAT     H225935   1.477   2.653   1.687
 8565WAT      O25936   5.960   2.619   3.862
 8565WAT     H125937   6.008   2.534   3.879
 8565WAT     H225938   5.915   2.650   3.947
 8566WAT      O25939   0.150   4.888   5.832
 8566WAT     H125940   0.248   4.893   5.815
 8566WAT     H225941   0.124   4.961   5.897
 8567WAT      O25942   0.368   6.700   1.273
 8567WAT     H125943   0.369   6.733   1.179
 8567WAT     H225944   0.306   6.757   1.327
 8568WAT      O25945   7.192   7.725   6.379
 8568WAT     H125946   7.228   7.797   6.319
 8568WAT     H225947   7.228   7.637   6.350
 8569WAT      O25948   4.461   8.520   3.082
 8569WAT     H125949   4.420   8.429   3.091
 8569WAT     H225950   4.461   8.566   3.171
 8570WAT      O25951   0.074   7.136   2.691
 8570WAT     H125952   0.084   7.117   2.593
 8570WAT     H225953   0.150   7.093   2.741
 8571WAT      O25954   5.780   2.819   8.209
 8571WAT     H125955   5.701   2.805   8.268
 8571WAT     H225956   5.861   2.834   8.266
 8572WAT      O25957   2.336   7.201   2.783
 8572WAT     H125958   2.248   7.169   2.748
 8572WAT     H225959   2.380   7.128   2.834
 8573WAT      O25960   0.463   7.982   7.184
 8573WAT     H125961   0.548   8.034   7.199
 8573WAT     H225962   0.390   8.045   7.156
 8574WAT      O25963   7.894   6.415   1.219
 8574WAT     H125964   7.837   6.489   1.183
 8574WAT     H225965   7.975   6.455   1.263
 8575WAT      O25966   7.951   0.072   6.731
 8575WAT     H125967   7.876   0.130   6.698
 8575WAT     H225968   7.918   0.014   6.806
 8576WAT      O25969   3.262   7.884   1.550
 8576WAT     H125970   3.230   7.793   1.578
 8576WAT     H225971   3.293   7.935   1.631
 8577WAT      O25972   7.961   1.509   8.357
 8577WAT     H125973   7.869   1.470   8.362
 8577WAT     H225974   7.978   1.542   8.264
 8578WAT      O25975   0.633   7.520   7.469
 8578WAT     H125976   0.698   7.486   7.402
 8578WAT     H225977   0.543   7.478   7.453
 8579WAT      O25978   1.730   7.201   7.251
 8579WAT     H125979   1.698   7.127   7.310
 8579WAT     H225980   1.751   7.164   7.160
 8580WAT      O25981   7.263   8.847   9.678
 8580WAT     H125982   7.177   8.795   9.681
 8580WAT     H225983   7.285   8.869   9.583
 8581WAT      O25984   2.821   6.204   4.142
 8581WAT     H125985   2.893   6.189   4.210
 8581WAT     H225986   2.820   6.127   4.078
 8582WAT      O25987   5.743   6.684   1.444
 8582WAT     H125988   5.832   6.662   1.486
 8582WAT     H225989   5.672   6.679   1.514
 8583WAT      O25990   5.794   7.961   1.157
 8583WAT     H125991   5.842   7.954   1.245
 8583WAT     H225992   5.756   8.053   1.147
 8584WAT      O25993   8.948   8.583   8.250
 8584WAT     H125994   9.012   8.552   8.180
 8584WAT     H225995   8.894   8.505   8.282
 8585WAT      O25996   8.369   1.492   6.207
 8585WAT     H125997   8.377   1.592   6.201
 8585WAT     H225998   8.358   1.465   6.303
 8586WAT      O25999   8.883   1.282   0.449
 8586WAT     H126000   8.864   1.277   0.351
 8586WAT     H226001   8.828   1.214   0.497
 8587WAT      O26002   4.769   4.194   8.034
 8587WAT     H126003   4.809   4.188   7.943
 8587WAT     H226004   4.673   4.223   8.026
 8588WAT      O26005   6.165   9.846   4.996
 8588WAT     H126006   6.230   9.773   4.973
 8588WAT     H226007   6.177   9.872   5.092
 8589WAT      O26008   4.921   6.131   6.213
 8589WAT     H126009   4.895   6.050   6.265
 8589WAT     H226010   5.012   6.118   6.173
 8590WAT      O26011   4.807   9.071   0.015
 8590WAT     H126012   4.719   9.028  -0.004
 8590WAT     H226013   4.852   9.023   0.090
 8591WAT      O26014   0.628   3.834   9.606
 8591WAT     H126015   0.630   3.759   9.541
 8591WAT     H226016   0.534   3.868   9.615
 8592WAT      O26017   0.815   9.608   3.247
 8592WAT     H126018   0.726   9.564   3.253
 8592WAT     H226019   0.887   9.538   3.248
 8593WAT      O26020   4.231   4.199   2.147
 8593WAT     H126021   4.172   4.154   2.213
 8593WAT     H226022   4.206   4.296   2.140
 8594WAT      O26023   8.066   9.626   0.439
 8594WAT     H126024   8.024   9.576   0.516
 8594WAT     H226025   8.165   9.616   0.443
 8595WAT      O26026   6.421   5.901   0.183
 8595WAT     H126027   6.450   5.884   0.277
 8595WAT     H226028   6.484   5.855   0.120
 8596WAT      O26029   3.951   7.323   0.959
 8596WAT     H126030   3.858   7.284   0.959
 8596WAT     H226031   3.948   7.415   0.997
 8597WAT      O26032   1.397   8.751   1.138
 8597WAT     H126033   1.319   8.751   1.076
 8597WAT     H226034   1.368   8.721   1.228
 8598WAT      O26035   3.015   8.952   8.641
 8598WAT     H126036   2.963   8.928   8.723
 8598WAT     H226037   3.065   8.872   8.608
 8599WAT      O26038   2.530   9.563   3.736
 8599WAT     H126039   2.515   9.541   3.833
 8599WAT     H226040   2.590   9.495   3.695
 8600WAT      O26041   8.139   3.995   4.850
 8600WAT     H126042   8.125   3.961   4.943
 8600WAT     H226043   8.124   3.921   4.785
 8601WAT      O26044   6.556   7.545   6.181
 8601WAT     H126045   6.605   7.521   6.098
 8601WAT     H226046   6.536   7.462   6.234
 8602WAT      O26047   8.593   0.663   1.178
 8602WAT     H126048   8.504   0.635   1.214
 8602WAT     H226049   8.580   0.730   1.105
 8603WAT      O26050   0.673   6.755   8.905
 8603WAT     H126051   0.755   6.774   8.851
 8603WAT     H226052   0.674   6.809   8.989
 8604WAT      O26053   4.783   2.374   4.614
 8604WAT     H126054   4.861   2.399   4.557
 8604WAT     H226055   4.758   2.279   4.597
 8605WAT      O26056   2.992   2.789   8.007
 8605WAT     H126057   3.037   2.716   8.059
 8605WAT     H226058   2.895   2.767   7.997
 8606WAT      O26059   6.217   1.103   2.511
 8606WAT     H126060   6.166   1.043   2.449
 8606WAT     H226061   6.218   1.063   2.602
 8607WAT      O26062   9.833   0.918   4.028
 8607WAT     H126063   9.815   0.989   3.961
 8607WAT     H226064   9.759   0.915   4.095
 8608WAT      O26065   2.617   7.539   9.393
 8608WAT     H126066   2.688   7.604   9.366
 8608WAT     H226067   2.534   7.557   9.339
 8609WAT      O26068   6.358   0.715   7.199
 8609WAT     H126069   6.267   0.677   7.214
 8609WAT     H226070   6.420   0.682   7.271
 8610WAT      O26071   0.901   6.798   8.779
 8610WAT     H126072   0.917   6.875   8.717
 8610WAT     H226073   0.943   6.819   8.868
 8611WAT      O26074   7.508   4.612   2.559
 8611WAT     H126075   7.569   4.656   2.493
 8611WAT     H226076   7.549   4.614   2.650
 8612WAT      O26077   6.340   8.610   2.187
 8612WAT     H126078   6.379   8.700   2.165
 8612WAT     H226079   6.296   8.615   2.277
 8613WAT      O26080   1.969   3.129   1.521
 8613WAT     H126081   2.018   3.212   1.548
 8613WAT     H226082   1.946   3.134   1.424
 8614WAT      O26083   3.800   5.851   1.917
 8614WAT     H126084   3.749   5.936   1.921
 8614WAT     H226085   3.740   5.777   1.888
 8615WAT      O26086   9.738   3.562   0.631
 8615WAT     H126087   9.837   3.551   0.636
 8615WAT     H226088   9.714   3.657   0.649
 8616WAT      O26089   4.343   1.759   8.477
 8616WAT     H126090   4.279   1.769   8.553
 8616WAT     H226091   4.326   1.831   8.410
 8617WAT      O26092   6.272   4.606   0.461
 8617WAT     H126093   6.232   4.549   0.532
 8617WAT     H226094   6.199   4.648   0.406
 8618WAT      O26095   5.426   7.236   5.669
 8618WAT     H126096   5.456   7.331   5.672
 8618WAT     H226097   5.340   7.230   5.619
 8619WAT      O26098   4.969   5.263   3.572
 8619WAT     H126099   4.910   5.229   3.646
 8619WAT     H226100   5.015   5.185   3.529
 8620WAT      O26101   5.017   6.645   9.119
 8620WAT     H126102   4.964   6.593   9.186
 8620WAT     H226103   4.961   6.662   9.038
 8621WAT      O26104   5.849   3.195   2.553
 8621WAT     H126105   5.811   3.123   2.495
 8621WAT     H226106   5.892   3.153   2.633
 8622WAT      O26107   0.350   9.830   1.516
 8622WAT     H126108   0.362   9.818   1.418
 8622WAT     H226109   0.258   9.804   1.543
 8623WAT      O26110   7.752   6.774   7.045
 8623WAT     H126111   7.670   6.722   7.022
 8623WAT     H226112   7.772   6.763   7.142
 8624WAT      O26113   3.198   5.311   2.958
 8624WAT     H126114   3.289   5.351   2.953
 8624WAT     H226115   3.205   5.211   2.955
 8625WAT      O26116   8.511   1.660   7.546
 8625WAT     H126117   8.590   1.671   7.607
 8625WAT     H226118   8.516   1.729   7.474
 8626WAT      O26119   1.645   6.847   8.868
 8626WAT     H126120   1.745   6.844   8.868
 8626WAT     H226121   1.609   6.756   8.849
 8627WAT      O26122   6.417   8.788   7.715
 8627WAT     H126123   6.366   8.803   7.800
 8627WAT     H226124   6.356   8.749   7.646
 8628WAT      O26125   1.877   9.384   1.825
 8628WAT     H126126   1.810   9.458   1.835
 8628WAT     H226127   1.830   9.300   1.800
 8629WAT      O26128   0.425   9.827   0.306
 8629WAT     H126129   0.387   9.870   0.387
 8629WAT     H226130   0.410   9.885   0.226
 8630WAT      O26131   7.723   1.758   3.532
 8630WAT     H126132   7.763   1.686   3.588
 8630WAT     H226133   7.784   1.837   3.529
 8631WAT      O26134   4.408   0.503   9.196
 8631WAT     H126135   4.357   0.484   9.112
 8631WAT     H226136   4.501   0.528   9.173
 8632WAT      O26137   3.950   2.584   2.179
 8632WAT     H126138   3.910   2.671   2.208
 8632WAT     H226139   3.877   2.520   2.157
 8633WAT      O26140   9.317   4.254   1.276
 8633WAT     H126141   9.320   4.337   1.220
 8633WAT     H226142   9.356   4.273   1.366
 8634WAT      O26143   8.216   6.153   4.251
 8634WAT     H126144   8.118   6.162   4.232
 8634WAT     H226145   8.232   6.168   4.348
 8635WAT      O26146   3.324   6.031   1.273
 8635WAT     H126147   3.396   5.980   1.321
 8635WAT     H226148   3.351   6.044   1.178
 8636WAT      O26149   5.220   9.767   4.233
 8636WAT     H126150   5.226   9.843   4.168
 8636WAT     H226151   5.213   9.802   4.326
 8637WAT      O26152   5.948   5.355   7.148
 8637WAT     H126153   5.890   5.278   7.121
 8637WAT     H226154   5.997   5.389   7.067
 8638WAT      O26155   3.302   8.031   9.216
 8638WAT     H126156   3.209   7.997   9.205
 8638WAT     H226157   3.304   8.098   9.290
 8639WAT      O26158   5.561   1.371   2.639
 8639WAT     H126159   5.468   1.339   2.658
 8639WAT     H226160   5.616   1.366   2.722
 8640WAT      O26161   4.102   0.878   1.413
 8640WAT     H126162   4.171   0.950   1.425
 8640WAT     H226163   4.015   0.920   1.386
 8641WAT      O26164   0.561   6.503   2.607
 8641WAT     H126165   0.606   6.552   2.532
 8641WAT     H226166   0.468   6.480   2.580
 8642WAT      O26167   2.232   5.162   0.004
 8642WAT     H126168   2.195   5.242  -0.043
 8642WAT     H226169   2.267   5.189   0.094
 8643WAT      O26170   0.464   0.951   3.908
 8643WAT     H126171   0.387   0.921   3.966
 8643WAT     H226172   0.438   0.945   3.812
 8644WAT      O26173   1.544   8.663   1.437
 8644WAT     H126174   1.543   8.566   1.461
 8644WAT     H226175   1.638   8.697   1.438
 8645WAT      O26176   6.025   7.147   6.947
 8645WAT     H126177   6.055   7.065   6.897
 8645WAT     H226178   5.946   7.187   6.900
 8646WAT      O26179   2.514   9.626   6.044
 8646WAT     H126180   2.432   9.588   6.001
 8646WAT     H226181   2.580   9.553   6.060
 8647WAT      O26182   0.209   0.647   4.102
 8647WAT     H126183   0.234   0.591   4.181
 8647WAT     H226184   0.190   0.587   4.024
 8648WAT      O26185   5.083   0.741   6.682
 8648WAT     H126186   5.091   0.684   6.600
 8648WAT     H226187   5.055   0.684   6.759
 8649WAT      O26188   0.169   2.009   3.322
 8649WAT     H126189   0.079   2.003   3.365
 8649WAT     H226190   0.179   1.936   3.254
 8650WAT      O26191   4.361   3.631   7.438
 8650WAT     H126192   4.437   3.585   7.391
 8650WAT     H226193   4.385   3.726   7.455
 8651WAT      O26194   8.309   1.994   4.698
 8651WAT     H126195   8.372   2.055   4.747
 8651WAT     H226196   8.282   2.037   4.612
 8652WAT      O26197   4.578   6.609   3.026
 8652WAT     H126198   4.498   6.660   3.058
 8652WAT     H226199   4.661   6.655   3.056
 8653WAT      O26200   6.760   4.672   3.940
 8653WAT     H126201   6.792   4.756   3.984
 8653WAT     H226202   6.762   4.683   3.841
 8654WAT      O26203   2.553   0.321   0.845
 8654WAT     H126204   2.596   0.231   0.856
 8654WAT     H226205   2.599   0.387   0.904
 8655WAT      O26206   2.115   7.556   8.568
 8655WAT     H126207   2.064   7.510   8.642
 8655WAT     H226208   2.086   7.518   8.480
 8656WAT      O26209   3.581   8.403   8.906
 8656WAT     H126210   3.596   8.361   8.995
 8656WAT     H226211   3.493   8.450   8.905
 8657WAT      O26212   2.722   6.193   0.595
 8657WAT     H126213   2.780   6.270   0.621
 8657WAT     H226214   2.687   6.207   0.502
 8658WAT      O26215   4.494   7.934   7.055
 8658WAT     H126216   4.487   7.978   6.966
 8658WAT     H226217   4.404   7.897   7.082
 8659WAT      O26218   7.564   2.708   7.880
 8659WAT     H126219   7.587   2.730   7.975
 8659WAT     H226220   7.576   2.790   7.823
 8660WAT      O26221   0.703   0.277   5.210
 8660WAT     H126222   0.750   0.275   5.299
 8660WAT     H226223   0.723   0.364   5.164
 8661WAT      O26224   4.592   0.963   7.686
 8661WAT     H126225   4.655   0.961   7.763
 8661WAT     H226226   4.521   0.894   7.698
 8662WAT      O26227   3.618   7.133   7.206
 8662WAT     H126228   3.612   7.160   7.302
 8662WAT     H226229   3.597   7.035   7.197
 8663WAT      O26230   2.168   2.740   3.083
 8663WAT     H126231   2.109   2.780   3.013
 8663WAT     H226232   2.200   2.651   3.052
 8664WAT      O26233   6.244   6.061   1.860
 8664WAT     H126234   6.320   6.049   1.796
 8664WAT     H226235   6.173   6.118   1.817
 8665WAT      O26236   7.543   0.729   7.536
 8665WAT     H126237   7.522   0.640   7.577
 8665WAT     H226238   7.632   0.724   7.490
 8666WAT      O26239   5.042   0.909   2.031
 8666WAT     H126240   5.039   0.862   1.943
 8666WAT     H226241   5.020   0.844   2.104
 8667WAT      O26242   7.693   5.617   3.345
 8667WAT     H126243   7.695   5.712   3.376
 8667WAT     H226244   7.599   5.590   3.325
 8668WAT      O26245   4.279   0.283   2.645
 8668WAT     H126246   4.307   0.260   2.738
 8668WAT     H226247   4.319   0.217   2.581
 8669WAT      O26248   8.280   2.917   6.903
 8669WAT     H126249   8.294   2.944   6.999
 8669WAT     H226250   8.240   2.825   6.900
 8670WAT      O26251   7.432   7.122   2.512
 8670WAT     H126252   7.366   7.196   2.500
 8670WAT     H226253   7.445   7.075   2.425
 8671WAT      O26254   3.827   8.389   4.160
 8671WAT     H126255   3.731   8.391   4.188
 8671WAT     H226256   3.835   8.341   4.072
 8672WAT      O26257   5.391   1.479   1.231
 8672WAT     H126258   5.310   1.421   1.228
 8672WAT     H226259   5.410   1.515   1.139
 8673WAT      O26260   9.527   8.895   9.100
 8673WAT     H126261   9.610   8.891   9.156
 8673WAT     H226262   9.540   8.961   9.025
 8674WAT      O26263   7.683   7.614   4.661
 8674WAT     H126264   7.589   7.585   4.640
 8674WAT     H226265   7.692   7.712   4.643
 8675WAT      O26266   7.128   9.303   4.952
 8675WAT     H126267   7.211   9.347   4.988
 8675WAT     H226268   7.109   9.337   4.860
 8676WAT      O26269   1.147   4.133   2.494
 8676WAT     H126270   1.093   4.131   2.410
 8676WAT     H226271   1.223   4.198   2.484
 8677WAT      O26272   8.729   3.079   9.655
 8677WAT     H126273   8.824   3.099   9.632
 8677WAT     H226274   8.714   3.098   9.752
 8678WAT      O26275   6.992   2.990   8.334
 8678WAT     H126276   7.074   3.027   8.291
 8678WAT     H226277   7.016   2.953   8.424
 8679WAT      O26278   4.777   7.434   7.730
 8679WAT     H126279   4.856   7.495   7.720
 8679WAT     H226280   4.719   7.468   7.803
 8680WAT      O26281   0.835   3.598   4.550
 8680WAT     H126282   0.877   3.563   4.634
 8680WAT     H226283   0.744   3.559   4.541
 8681WAT      O26284   8.950   6.173   6.956
 8681WAT     H126285   8.949   6.165   7.056
 8681WAT     H226286   8.929   6.267   6.930
 8682WAT      O26287   5.369   2.958   3.028
 8682WAT     H126288   5.401   3.037   3.080
 8682WAT     H226289   5.299   2.908   3.081
 8683WAT      O26290   7.301   4.243   7.102
 8683WAT     H126291   7.383   4.295   7.125
 8683WAT     H226292   7.232   4.305   7.062
 8684WAT      O26293   2.846   7.113   7.891
 8684WAT     H126294   2.866   7.060   7.808
 8684WAT     H226295   2.817   7.051   7.964
 8685WAT      O26296   6.436   1.420   1.147
 8685WAT     H126297   6.360   1.398   1.209
 8685WAT     H226298   6.523   1.407   1.195
 8686WAT      O26299   1.669   8.330   0.933
 8686WAT     H126300   1.656   8.324   1.032
 8686WAT     H226301   1.757   8.290   0.908
 8687WAT      O26302   7.225   0.332   7.306
 8687WAT     H126303   7.153   0.401   7.295
 8687WAT     H226304   7.223   0.296   7.399
 8688WAT      O26305   3.057   3.668   2.703
 8688WAT     H126306   2.979   3.679   2.641
 8688WAT     H226307   3.087   3.758   2.734
 8689WAT      O26308   5.251   1.287   5.218
 8689WAT     H126309   5.299   1.265   5.133
 8689WAT     H226310   5.285   1.228   5.291
 8690WAT      O26311   3.946   6.674   7.980
 8690WAT     H126312   3.996   6.591   8.003
 8690WAT     H226313   4.004   6.734   7.925
 8691WAT      O26314   3.500   3.397   0.194
 8691WAT     H126315   3.520   3.301   0.210
 8691WAT     H226316   3.428   3.404   0.125
 8692WAT      O26317   3.838   7.522   1.572
 8692WAT     H126318   3.894   7.439   1.581
 8692WAT     H226319   3.852   7.580   1.653
 8693WAT      O26320   2.914   2.791   6.409
 8693WAT     H126321   2.952   2.706   6.447
 8693WAT     H226322   2.825   2.809   6.452
 8694WAT      O26323   1.036   5.414   0.046
 8694WAT     H126324   1.059   5.402  -0.051
 8694WAT     H226325   1.035   5.511   0.068
 8695WAT      O26326   3.881   0.812   7.143
 8695WAT     H126327   3.967   0.854   7.112
 8695WAT     H226328   3.881   0.715   7.122
 8696WAT      O26329   7.672   0.137   0.928
 8696WAT     H126330   7.593   0.168   0.875
 8696WAT     H226331   7.755   0.156   0.876
 8697WAT      O26332   7.055   4.952   2.760
 8697WAT     H126333   6.997   5.024   2.797
 8697WAT     H226334   7.031   4.865   2.802
 8698WAT      O26335   2.182   2.335   4.935
 8698WAT     H126336   2.150   2.427   4.914
 8698WAT     H226337   2.104   2.278   4.961
 8699WAT      O26338   7.762   7.547   1.544
 8699WAT     H126339   7.718   7.632   1.513
 8699WAT     H226340   7.821   7.512   1.471
 8700WAT      O26341   7.858   2.407   0.978
 8700WAT     H126342   7.803   2.363   1.049
 8700WAT     H226343   7.954   2.405   1.005
 8701WAT      O26344   7.078   5.974   7.749
 8701WAT     H126345   6.983   5.981   7.781
 8701WAT     H226346   7.119   5.890   7.784
 8702WAT      O26347   3.267   7.608   1.366
 8702WAT     H126348   3.300   7.534   1.308
 8702WAT     H226349   3.343   7.669   1.388
 8703WAT      O26350   6.724   4.153   6.419
 8703WAT     H126351   6.799   4.114   6.365
 8703WAT     H226352   6.641   4.155   6.364
 8704WAT      O26353   3.333   2.306   4.713
 8704WAT     H126354   3.410   2.299   4.777
 8704WAT     H226355   3.298   2.400   4.714
 8705WAT      O26356   8.892   6.102   3.421
 8705WAT     H126357   8.945   6.019   3.407
 8705WAT     H226358   8.887   6.122   3.519
 8706WAT      O26359   0.810   9.724   8.743
 8706WAT     H126360   0.816   9.643   8.684
 8706WAT     H226361   0.714   9.742   8.765
 8707WAT      O26362   0.134   5.099   1.594
 8707WAT     H126363   0.229   5.116   1.567
 8707WAT     H226364   0.081   5.074   1.513
 8708WAT      O26365   0.380   4.660   1.174
 8708WAT     H126366   0.295   4.677   1.125
 8708WAT     H226367   0.453   4.638   1.109
 8709WAT      O26368   6.274   6.857   5.216
 8709WAT     H126369   6.305   6.806   5.136
 8709WAT     H226370   6.301   6.953   5.207
 8710WAT      O26371   8.864   0.677   8.462
 8710WAT     H126372   8.895   0.587   8.493
 8710WAT     H226373   8.883   0.687   8.365
 8711WAT      O26374   9.444   5.611   0.823
 8711WAT     H126375   9.403   5.527   0.859
 8711WAT     H226376   9.403   5.632   0.734
 8712WAT      O26377   8.528   0.650   1.590
 8712WAT     H126378   8.479   0.712   1.529
 8712WAT     H226379   8.517   0.681   1.685
 8713WAT      O26380   4.759   5.994   8.771
 8713WAT     H126381   4.757   6.076   8.714
 8713WAT     H226382   4.667   5.975   8.805
 8714WAT      O26383   8.371   7.695   4.804
 8714WAT     H126384   8.377   7.645   4.890
 8714WAT     H226385   8.279   7.734   4.794
 8715WAT      O26386   6.160   9.614   9.272
 8715WAT     H126387   6.179   9.672   9.351
 8715WAT     H226388   6.234   9.622   9.206
 8716WAT      O26389   4.376   9.612   2.728
 8716WAT     H126390   4.316   9.539   2.694
 8716WAT     H226391   4.429   9.650   2.652
 8717WAT      O26392   1.583   6.064   0.459
 8717WAT     H126393   1.637   6.022   0.532
 8717WAT     H226394   1.545   5.993   0.401
 8718WAT      O26395   6.502   0.130   4.543
 8718WAT     H126396   6.551   0.182   4.613
 8718WAT     H226397   6.568   0.079   4.488
 8719WAT      O26398   9.235   0.900   6.789
 8719WAT     H126399   9.306   0.834   6.763
 8719WAT     H226400   9.171   0.912   6.713
 8720WAT      O26401   9.855   5.010   1.378
 8720WAT     H126402   9.839   4.912   1.363
 8720WAT     H226403   9.796   5.063   1.318
 8721WAT      O26404   4.421   7.943   9.716
 8721WAT     H126405   4.491   7.966   9.648
 8721WAT     H226406   4.335   7.987   9.690
 8722WAT      O26407   9.581   7.283   1.506
 8722WAT     H126408   9.566   7.292   1.605
 8722WAT     H226409   9.638   7.202   1.488
 8723WAT      O26410   3.332   6.088   9.210
 8723WAT     H126411   3.299   6.089   9.115
 8723WAT     H226412   3.337   6.182   9.244
 8724WAT      O26413   3.435   5.622   9.409
 8724WAT     H126414   3.529   5.588   9.402
 8724WAT     H226415   3.435   5.722   9.407
 8725WAT      O26416   1.508   2.623   3.586
 8725WAT     H126417   1.577   2.553   3.604
 8725WAT     H226418   1.428   2.607   3.644
 8726WAT      O26419   6.148   7.041   8.659
 8726WAT     H126420   6.199   6.957   8.641
 8726WAT     H226421   6.193   7.093   8.731
 8727WAT      O26422   6.600   7.491   1.918
 8727WAT     H126423   6.534   7.424   1.883
 8727WAT     H226424   6.572   7.583   1.890
 8728WAT      O26425   5.793   4.139   9.360
 8728WAT     H126426   5.755   4.232   9.358
 8728WAT     H226427   5.726   4.077   9.401
 8729WAT      O26428   7.405   5.968   6.758
 8729WAT     H126429   7.336   5.962   6.829
 8729WAT     H226430   7.406   5.883   6.705
 8730WAT      O26431   1.217   2.222   4.586
 8730WAT     H126432   1.204   2.216   4.487
 8730WAT     H226433   1.133   2.254   4.629
 8731WAT      O26434   4.248   7.276   5.542
 8731WAT     H126435   4.288   7.203   5.486
 8731WAT     H226436   4.200   7.235   5.619
 8732WAT      O26437   3.525   9.721   6.194
 8732WAT     H126438   3.612   9.764   6.168
 8732WAT     H226439   3.450   9.783   6.171
 8733WAT      O26440   0.968   6.550   4.993
 8733WAT     H126441   1.003   6.639   4.965
 8733WAT     H226442   1.002   6.527   5.084
 8734WAT      O26443   2.552   4.602   5.966
 8734WAT     H126444   2.631   4.544   5.944
 8734WAT     H226445   2.472   4.545   5.981
 8735WAT      O26446   3.692   7.468   8.157
 8735WAT     H126447   3.694   7.568   8.150
 8735WAT     H226448   3.783   7.435   8.182
 8736WAT      O26449   3.482   7.673   7.173
 8736WAT     H126450   3.443   7.728   7.248
 8736WAT     H226451   3.507   7.582   7.208
 8737WAT      O26452   9.581   1.913   4.627
 8737WAT     H126453   9.665   1.885   4.673
 8737WAT     H226454   9.506   1.851   4.651
 8738WAT      O26455   6.713   0.085   5.128
 8738WAT     H126456   6.811   0.080   5.108
 8738WAT     H226457   6.698   0.155   5.198
 8739WAT      O26458   2.306   8.742   1.045
 8739WAT     H126459   2.354   8.798   0.977
 8739WAT     H226460   2.225   8.789   1.077
 8740WAT      O26461   6.703   8.848   1.075
 8740WAT     H126462   6.757   8.841   0.991
 8740WAT     H226463   6.648   8.931   1.072
 8741WAT      O26464   5.883   1.139   6.552
 8741WAT     H126465   5.849   1.131   6.459
 8741WAT     H226466   5.863   1.230   6.588
 8742WAT      O26467   8.558   0.848   0.974
 8742WAT     H126468   8.609   0.934   0.978
 8742WAT     H226469   8.615   0.777   0.932
 8743WAT      O26470   2.783   5.957   0.384
 8743WAT     H126471   2.753   6.050   0.365
 8743WAT     H226472   2.725   5.892   0.336
 8744WAT      O26473   6.848   5.024   8.029
 8744WAT     H126474   6.861   4.929   8.060
 8744WAT     H226475   6.915   5.082   8.076
 8745WAT      O26476   3.983   7.739   8.673
 8745WAT     H126477   3.899   7.732   8.727
 8745WAT     H226478   4.008   7.648   8.639
 8746WAT      O26479   2.669   9.650   7.465
 8746WAT     H126480   2.666   9.729   7.403
 8746WAT     H226481   2.754   9.653   7.518
 8747WAT      O26482   3.622   9.031   0.247
 8747WAT     H126483   3.611   8.971   0.326
 8747WAT     H226484   3.581   8.987   0.167
 8748WAT      O26485   2.276   4.830   3.365
 8748WAT     H126486   2.373   4.813   3.347
 8748WAT     H226487   2.259   4.826   3.464
 8749WAT      O26488   5.796   4.607   7.105
 8749WAT     H126489   5.820   4.523   7.152
 8749WAT     H226490   5.698   4.607   7.085
 8750WAT      O26491   7.566   5.560   6.801
 8750WAT     H126492   7.638   5.617   6.761
 8750WAT     H226493   7.608   5.484   6.851
 8751WAT      O26494   5.225   2.677   0.579
 8751WAT     H126495   5.160   2.601   0.568
 8751WAT     H226496   5.232   2.727   0.492
 8752WAT      O26497   5.949   8.159   2.687
 8752WAT     H126498   6.024   8.094   2.674
 8752WAT     H226499   5.867   8.109   2.713
 8753WAT      O26500   4.964   4.801   3.351
 8753WAT     H126501   5.020   4.723   3.378
 8753WAT     H226502   5.020   4.867   3.301
 8754WAT      O26503   0.416   8.013   6.608
 8754WAT     H126504   0.417   7.920   6.645
 8754WAT     H226505   0.443   8.012   6.512
 8755WAT      O26506   9.016   0.962   1.783
 8755WAT     H126507   8.916   0.960   1.791
 8755WAT     H226508   9.043   0.946   1.688
 8756WAT      O26509   7.626   1.015   3.000
 8756WAT     H126510   7.601   0.939   2.940
 8756WAT     H226511   7.584   1.099   2.968
 8757WAT      O26512   1.537   4.926   8.320
 8757WAT     H126513   1.521   5.014   8.365
 8757WAT     H226514   1.615   4.880   8.364
 8758WAT      O26515   6.462   4.982   1.942
 8758WAT     H126516   6.449   5.020   1.850
 8758WAT     H226517   6.378   4.996   1.996
 8759WAT      O26518   2.398   4.282   6.664
 8759WAT     H126519   2.494   4.264   6.643
 8759WAT     H226520   2.377   4.248   6.756
 8760WAT      O26521   5.947   0.508   1.199
 8760WAT     H126522   6.007   0.585   1.176
 8760WAT     H226523   5.998   0.441   1.254
 8761WAT      O26524   6.868   4.065   5.483
 8761WAT     H126525   6.809   4.028   5.555
 8761WAT     H226526   6.833   4.153   5.452
 8762WAT      O26527   5.799   3.241   9.795
 8762WAT     H126528   5.809   3.212   9.699
 8762WAT     H226529   5.703   3.263   9.814
 8763WAT      O26530   2.265   0.823   1.013
 8763WAT     H126531   2.303   0.840   0.923
 8763WAT     H226532   2.166   0.811   1.006
 8764WAT      O26533   2.514   0.630   4.453
 8764WAT     H126534   2.533   0.620   4.551
 8764WAT     H226535   2.592   0.596   4.400
 8765WAT      O26536   3.844   3.148   9.108
 8765WAT     H126537   3.794   3.107   9.185
 8765WAT     H226538   3.812   3.242   9.094
 8766WAT      O26539   7.473   5.379   1.402
 8766WAT     H126540   7.481   5.440   1.482
 8766WAT     H226541   7.394   5.319   1.414
 8767WAT      O26542   5.175   1.727   7.470
 8767WAT     H126543   5.241   1.669   7.518
 8767WAT     H226544   5.209   1.748   7.378
 8768WAT      O26545   0.487   6.872   6.102
 8768WAT     H126546   0.535   6.799   6.052
 8768WAT     H226547   0.401   6.836   6.138
 8769WAT      O26548   5.886   6.591   4.014
 8769WAT     H126549   5.861   6.663   3.950
 8769WAT     H226550   5.837   6.604   4.100
 8770WAT      O26551   5.828   4.424   8.672
 8770WAT     H126552   5.902   4.363   8.700
 8770WAT     H226553   5.742   4.394   8.713
 8771WAT      O26554   4.967   7.888   3.072
 8771WAT     H126555   4.949   7.912   2.976
 8771WAT     H226556   4.881   7.871   3.119
 8772WAT      O26557   3.713   5.441   7.028
 8772WAT     H126558   3.613   5.436   7.027
 8772WAT     H226559   3.749   5.389   7.105
 8773WAT      O26560   6.965   0.102   5.030
 8773WAT     H126561   7.048   0.157   5.035
 8773WAT     H226562   6.972   0.037   4.955
 8774WAT      O26563   7.186   6.273   5.065
 8774WAT     H126564   7.232   6.223   5.138
 8774WAT     H226565   7.253   6.320   5.008
 8775WAT      O26566   2.618   9.541   4.398
 8775WAT     H126567   2.645   9.452   4.360
 8775WAT     H226568   2.534   9.531   4.451
 8776WAT      O26569   2.698   8.373   8.074
 8776WAT     H126570   2.647   8.330   8.148
 8776WAT     H226571   2.638   8.389   7.996
 8777WAT      O26572   8.465   7.984   7.577
 8777WAT     H126573   8.513   7.992   7.490
 8777WAT     H226574   8.528   7.953   7.648
 8778WAT      O26575   6.756   8.039   2.466
 8778WAT     H126576   6.683   8.069   2.405
 8778WAT     H226577   6.834   8.009   2.412
 8779WAT      O26578   9.856   1.600   9.046
 8779WAT     H126579   9.931   1.605   9.112
 8779WAT     H226580   9.790   1.673   9.065
 8780WAT      O26581   3.623   6.635   1.682
 8780WAT     H126582   3.571   6.717   1.705
 8780WAT     H226583   3.562   6.556   1.681
 8781WAT      O26584   9.363   6.646   9.741
 8781WAT     H126585   9.278   6.699   9.736
 8781WAT     H226586   9.428   6.680   9.673
 8782WAT      O26587   1.432   4.653   0.953
 8782WAT     H126588   1.345   4.689   0.919
 8782WAT     H226589   1.507   4.692   0.900
 8783WAT      O26590   9.181   1.980   6.392
 8783WAT     H126591   9.221   1.963   6.482
 8783WAT     H226592   9.225   1.922   6.324
 8784WAT      O26593   6.602   9.472   7.656
 8784WAT     H126594   6.595   9.418   7.739
 8784WAT     H226595   6.579   9.416   7.577
 8785WAT      O26596   8.396   5.120   2.283
 8785WAT     H126597   8.452   5.085   2.209
 8785WAT     H226598   8.320   5.174   2.246
 8786WAT      O26599   2.261   7.140   3.826
 8786WAT     H126600   2.241   7.116   3.921
 8786WAT     H226601   2.243   7.238   3.813
 8787WAT      O26602   7.519   7.781   4.162
 8787WAT     H126603   7.584   7.824   4.224
 8787WAT     H226604   7.538   7.810   4.068
 8788WAT      O26605   9.455   7.701   3.613
 8788WAT     H126606   9.460   7.791   3.569
 8788WAT     H226607   9.371   7.655   3.586
 8789WAT      O26608   5.724   0.410   5.226
 8789WAT     H126609   5.667   0.329   5.215
 8789WAT     H226610   5.746   0.448   5.136
 8790WAT      O26611   8.739   3.786   2.253
 8790WAT     H126612   8.745   3.853   2.327
 8790WAT     H226613   8.724   3.833   2.166
 8791WAT      O26614   2.280   8.503   3.129
 8791WAT     H126615   2.225   8.483   3.210
 8791WAT     H226616   2.364   8.450   3.132
 8792WAT      O26617   8.512   1.231   1.956
 8792WAT     H126618   8.487   1.186   1.870
 8792WAT     H226619   8.479   1.325   1.955
 8793WAT      O26620   8.560   3.488   5.160
 8793WAT     H126621   8.577   3.394   5.130
 8793WAT     H226622   8.529   3.488   5.255
 8794WAT      O26623   2.226   8.744   9.530
 8794WAT     H126624   2.190   8.651   9.525
 8794WAT     H226625   2.319   8.741   9.566
 8795WAT      O26626   7.153   0.422   0.387
 8795WAT     H126627   7.197   0.340   0.423
 8795WAT     H226628   7.100   0.465   0.459
 8796WAT      O26629   8.390   2.632   3.962
 8796WAT     H126630   8.313   2.697   3.960
 8796WAT     H226631   8.415   2.608   3.868
 8797WAT      O26632   4.726   6.838   9.826
 8797WAT     H126633   4.769   6.811   9.913
 8797WAT     H226634   4.690   6.931   9.835
 8798WAT      O26635   8.630   2.788   9.653
 8798WAT     H126636   8.698   2.718   9.677
 8798WAT     H226637   8.675   2.860   9.600
 8799WAT      O26638   9.215   4.901   6.203
 8799WAT     H126639   9.206   4.928   6.299
 8799WAT     H226640   9.129   4.863   6.171
 8800WAT      O26641   3.114   5.868   4.923
 8800WAT     H126642   3.148   5.774   4.921
 8800WAT     H226643   3.155   5.916   5.001
 8801WAT      O26644   0.542   0.735   1.063
 8801WAT     H126645   0.521   0.711   1.158
 8801WAT     H226646   0.582   0.656   1.016
 8802WAT      O26647   7.737   9.446   0.284
 8802WAT     H126648   7.713   9.517   0.349
 8802WAT     H226649   7.746   9.486   0.193
 8803WAT      O26650   7.179   8.621   1.911
 8803WAT     H126651   7.113   8.648   1.841
 8803WAT     H226652   7.169   8.524   1.931
 8804WAT      O26653   2.491   0.114   9.708
 8804WAT     H126654   2.527   0.167   9.632
 8804WAT     H226655   2.510   0.162   9.794
 8805WAT      O26656   8.961   0.094   6.454
 8805WAT     H126657   9.051   0.061   6.484
 8805WAT     H226658   8.940   0.056   6.364
 8806WAT      O26659   0.730   0.664   8.146
 8806WAT     H126660   0.737   0.680   8.048
 8806WAT     H226661   0.634   0.669   8.174
 8807WAT      O26662   9.057   6.876   5.086
 8807WAT     H126663   9.120   6.829   5.147
 8807WAT     H226664   9.012   6.950   5.135
 8808WAT      O26665   8.210   0.992   0.561
 8808WAT     H126666   8.214   1.059   0.636
 8808WAT     H226667   8.289   0.931   0.567
 8809WAT      O26668   3.348   6.479   5.320
 8809WAT     H126669   3.276   6.516   5.380
 8809WAT     H226670   3.324   6.496   5.225
 8810WAT      O26671   5.555   3.765   0.843
 8810WAT     H126672   5.557   3.695   0.772
 8810WAT     H226673   5.488   3.836   0.818
 8811WAT      O26674   6.747   4.379   8.053
 8811WAT     H126675   6.699   4.411   7.972
 8811WAT     H226676   6.832   4.335   8.027
 8812WAT      O26677   0.187   9.503   1.460
 8812WAT     H126678   0.122   9.493   1.384
 8812WAT     H226679   0.180   9.595   1.498
 8813WAT      O26680   5.660   3.647   7.670
 8813WAT     H126681   5.697   3.606   7.754
 8813WAT     H226682   5.700   3.601   7.591
 8814WAT      O26683   7.176   0.649   3.459
 8814WAT     H126684   7.235   0.728   3.479
 8814WAT     H226685   7.165   0.641   3.360
 8815WAT      O26686   1.564   4.841   2.748
 8815WAT     H126687   1.536   4.781   2.823
 8815WAT     H226688   1.629   4.909   2.782
 8816WAT      O26689   8.597   6.617   5.307
 8816WAT     H126690   8.660   6.669   5.249
 8816WAT     H226691   8.650   6.558   5.367
 8817WAT      O26692   8.304   6.880   4.686
 8817WAT     H126693   8.247   6.951   4.728
 8817WAT     H226694   8.398   6.889   4.719
 8818WAT      O26695   9.617   1.852   3.616
 8818WAT     H126696   9.690   1.807   3.667
 8818WAT     H226697   9.627   1.832   3.518
 8819WAT      O26698   7.241   5.170   7.652
 8819WAT     H126699   7.163   5.233   7.656
 8819WAT     H226700   7.319   5.215   7.609
 8820WAT      O26701   5.594   6.763   4.644
 8820WAT     H126702   5.554   6.799   4.728
 8820WAT     H226703   5.584   6.663   4.642
 8821WAT      O26704   5.072   9.626   6.726
 8821WAT     H126705   5.006   9.701   6.716
 8821WAT     H226706   5.165   9.663   6.726
 8822WAT      O26707   4.606   6.785   8.229
 8822WAT     H126708   4.662   6.784   8.146
 8822WAT     H226709   4.630   6.864   8.285
 8823WAT      O26710   0.584   7.410   8.888
 8823WAT     H126711   0.608   7.455   8.802
 8823WAT     H226712   0.506   7.456   8.929
 8824WAT      O26713   9.616   9.461   9.816
 8824WAT     H126714   9.677   9.390   9.782
 8824WAT     H226715   9.668   9.523   9.875
 8825WAT      O26716   3.855   5.671   7.083
 8825WAT     H126717   3.884   5.633   7.170
 8825WAT     H226718   3.804   5.602   7.031
 8826WAT      O26719   4.173   8.714   1.103
 8826WAT     H126720   4.180   8.791   1.166
 8826WAT     H226721   4.249   8.716   1.039
 8827WAT      O26722   3.275   7.093   1.513
 8827WAT     H126723   3.215   7.015   1.498
 8827WAT     H226724   3.344   7.096   1.441
 8828WAT      O26725   5.428   7.994   0.316
 8828WAT     H126726   5.432   7.986   0.415
 8828WAT     H226727   5.501   7.940   0.274
 8829WAT      O26728   1.562   3.230   0.877
 8829WAT     H126729   1.477   3.179   0.886
 8829WAT     H226730   1.638   3.176   0.913
 8830WAT      O26731   3.791   2.127   0.074
 8830WAT     H126732   3.856   2.066   0.027
 8830WAT     H226733   3.700   2.087   0.072
 8831WAT      O26734   5.495   3.363   9.457
 8831WAT     H126735   5.547   3.437   9.500
 8831WAT     H226736   5.447   3.311   9.527
 8832WAT      O26737   9.597   3.089   1.478
 8832WAT     H126738   9.639   3.180   1.481
 8832WAT     H226739   9.507   3.092   1.521
 8833WAT      O26740   3.836   5.312   2.911
 8833WAT     H126741   3.884   5.262   2.984
 8833WAT     H226742   3.885   5.299   2.825
 8834WAT      O26743   8.706   5.082   4.674
 8834WAT     H126744   8.707   5.177   4.706
 8834WAT     H226745   8.612   5.051   4.662
 8835WAT      O26746   0.349   4.526   8.746
 8835WAT     H126747   0.402   4.446   8.773
 8835WAT     H226748   0.388   4.607   8.791
 8836WAT      O26749   1.571   2.286   9.345
 8836WAT     H126750   1.604   2.378   9.321
 8836WAT     H226751   1.500   2.258   9.279
 8837WAT      O26752   1.153   8.392   1.138
 8837WAT     H126753   1.150   8.340   1.223
 8837WAT     H226754   1.246   8.393   1.102
 8838WAT      O26755   6.471   7.407   0.830
 8838WAT     H126756   6.413   7.473   0.879
 8838WAT     H226757   6.436   7.395   0.737
 8839WAT      O26758   9.032   6.600   1.221
 8839WAT     H126759   9.104   6.614   1.289
 8839WAT     H226760   8.986   6.687   1.203
 8840WAT      O26761   4.488   4.602   7.825
 8840WAT     H126762   4.516   4.696   7.845
 8840WAT     H226763   4.389   4.600   7.809
 8841WAT      O26764   8.423   6.694   6.016
 8841WAT     H126765   8.496   6.752   6.052
 8841WAT     H226766   8.418   6.610   6.069
 8842WAT      O26767   3.344   7.021   6.896
 8842WAT     H126768   3.340   7.089   6.970
 8842WAT     H226769   3.426   7.035   6.842
 8843WAT      O26770   1.082   3.968   8.871
 8843WAT     H126771   1.096   3.928   8.780
 8843WAT     H226772   1.098   4.067   8.866
 8844WAT      O26773   2.496   6.814   9.434
 8844WAT     H126774   2.575   6.765   9.471
 8844WAT     H226775   2.499   6.909   9.463
 8845WAT      O26776   8.836   4.719   1.571
 8845WAT     H126777   8.744   4.682   1.582
 8845WAT     H226778   8.838   4.782   1.494
 8846WAT      O26779   0.484   4.612   0.261
 8846WAT     H126780   0.420   4.688   0.249
 8846WAT     H226781   0.492   4.590   0.358
 8847WAT      O26782   7.300   5.400   8.998
 8847WAT     H126783   7.210   5.374   9.034
 8847WAT     H226784   7.310   5.499   8.999
 8848WAT      O26785   2.783   9.709   9.323
 8848WAT     H126786   2.687   9.730   9.305
 8848WAT     H226787   2.832   9.794   9.344
 8849WAT      O26788   0.437   2.143   8.884
 8849WAT     H126789   0.358   2.098   8.843
 8849WAT     H226790   0.495   2.075   8.929
 8850WAT      O26791   2.718   7.412   7.273
 8850WAT     H126792   2.632   7.433   7.321
 8850WAT     H226793   2.737   7.314   7.281
 8851WAT      O26794   6.827   5.592   2.401
 8851WAT     H126795   6.864   5.684   2.413
 8851WAT     H226796   6.841   5.563   2.306
 8852WAT      O26797   9.876   4.429   8.396
 8852WAT     H126798   9.935   4.415   8.475
 8852WAT     H226799   9.909   4.508   8.343
 8853WAT      O26800   3.391   7.826   3.144
 8853WAT     H126801   3.324   7.889   3.105
 8853WAT     H226802   3.368   7.732   3.118
 8854WAT      O26803   5.008   0.641   9.693
 8854WAT     H126804   5.088   0.650   9.753
 8854WAT     H226805   4.972   0.548   9.699
 8855WAT      O26806   0.908   1.040   7.670
 8855WAT     H126807   0.881   1.117   7.613
 8855WAT     H226808   0.976   0.984   7.621
 8856WAT      O26809   2.616   1.374   3.115
 8856WAT     H126810   2.531   1.383   3.064
 8856WAT     H226811   2.606   1.419   3.204
 8857WAT      O26812   2.045   1.568   9.268
 8857WAT     H126813   2.070   1.529   9.357
 8857WAT     H226814   2.079   1.661   9.261
 8858WAT      O26815   6.245   1.347   1.310
 8858WAT     H126816   6.161   1.360   1.258
 8858WAT     H226817   6.240   1.398   1.396
 8859WAT      O26818   2.120   6.512   8.187
 8859WAT     H126819   2.059   6.474   8.117
 8859WAT     H226820   2.201   6.550   8.143
 8860WAT      O26821   1.696   1.254   9.646
 8860WAT     H126822   1.793   1.255   9.621
 8860WAT     H226823   1.641   1.276   9.565
 8861WAT      O26824   8.315   1.353   2.977
 8861WAT     H126825   8.343   1.269   3.023
 8861WAT     H226826   8.346   1.432   3.029
 8862WAT      O26827   6.975   3.979   3.038
 8862WAT     H126828   7.054   3.991   3.098
 8862WAT     H226829   7.000   4.000   2.944
 8863WAT      O26830   6.733   0.356   4.236
 8863WAT     H126831   6.756   0.446   4.198
 8863WAT     H226832   6.633   0.349   4.245
 8864WAT      O26833   3.327   6.589   3.895
 8864WAT     H126834   3.369   6.614   3.807
 8864WAT     H226835   3.303   6.672   3.945
 8865WAT      O26836   2.291   6.418   7.060
 8865WAT     H126837   2.348   6.347   7.103
 8865WAT     H226838   2.330   6.442   6.971
 8866WAT      O26839   7.532   3.863   1.541
 8866WAT     H126840   7.487   3.838   1.455
 8866WAT     H226841   7.462   3.879   1.611
 8867WAT      O26842   7.046   1.705   5.304
 8867WAT     H126843   7.142   1.720   5.324
 8867WAT     H226844   7.025   1.739   5.213
 8868WAT      O26845   7.305   3.538   1.088
 8868WAT     H126846   7.351   3.472   1.029
 8868WAT     H226847   7.256   3.605   1.031
 8869WAT      O26848   3.501   5.635   3.817
 8869WAT     H126849   3.527   5.540   3.800
 8869WAT     H226850   3.582   5.693   3.806
 8870WAT      O26851   9.646   9.260   0.234
 8870WAT     H126852   9.584   9.323   0.281
 8870WAT     H226853   9.634   9.168   0.271
 8871WAT      O26854   6.393   1.189   0.496
 8871WAT     H126855   6.424   1.179   0.402
 8871WAT     H226856   6.343   1.107   0.524
 8872WAT      O26857   0.505   7.338   2.870
 8872WAT     H126858   0.465   7.307   2.784
 8872WAT     H226859   0.490   7.436   2.882
 8873WAT      O26860   5.055   5.051   8.952
 8873WAT     H126861   5.081   4.967   8.999
 8873WAT     H226862   5.136   5.092   8.910
 8874WAT      O26863   6.933   7.254   5.418
 8874WAT     H126864   7.004   7.322   5.406
 8874WAT     H226865   6.935   7.219   5.512
 8875WAT      O26866   3.431   6.036   2.610
 8875WAT     H126867   3.391   5.985   2.533
 8875WAT     H226868   3.501   5.980   2.653
 8876WAT      O26869   2.620   8.121   3.337
 8876WAT     H126870   2.572   8.034   3.327
 8876WAT     H226871   2.711   8.114   3.295
 8877WAT      O26872   0.384   2.556   8.035
 8877WAT     H126873   0.351   2.579   7.944
 8877WAT     H226874   0.366   2.632   8.097
 8878WAT      O26875   0.925   9.646   8.265
 8878WAT     H126876   0.884   9.555   8.261
 8878WAT     H226877   0.855   9.716   8.247
 8879WAT      O26878   6.006   9.196   1.189
 8879WAT     H126879   5.997   9.281   1.240
 8879WAT     H226880   6.038   9.123   1.250
 8880WAT      O26881   2.121   0.110   5.495
 8880WAT     H126882   2.208   0.154   5.474
 8880WAT     H226883   2.128   0.061   5.582
 8881WAT      O26884   4.523   2.597   9.171
 8881WAT     H126885   4.473   2.594   9.258
 8881WAT     H226886   4.611   2.641   9.185
 8882WAT      O26887   9.272   3.875   8.206
 8882WAT     H126888   9.223   3.812   8.266
 8882WAT     H226889   9.214   3.953   8.184
 8883WAT      O26890   3.634   4.300   4.995
 8883WAT     H126891   3.535   4.306   4.986
 8883WAT     H226892   3.667   4.372   5.057
 8884WAT      O26893   9.552   5.930   3.684
 8884WAT     H126894   9.528   5.899   3.592
 8884WAT     H226895   9.471   5.924   3.743
 8885WAT      O26896   0.056   8.822   7.974
 8885WAT     H126897  -0.019   8.758   7.959
 8885WAT     H226898   0.139   8.788   7.930
 8886WAT      O26899   8.702   5.361   2.300
 8886WAT     H126900   8.657   5.346   2.388
 8886WAT     H226901   8.644   5.328   2.227
 8887WAT      O26902   0.110   5.990   8.375
 8887WAT     H126903   0.105   6.040   8.462
 8887WAT     H226904   0.176   6.035   8.315
 8888WAT      O26905   0.187   7.967   0.942
 8888WAT     H126906   0.172   8.058   0.903
 8888WAT     H226907   0.143   7.962   1.032
 8889WAT      O26908   2.747   7.094   9.644
 8889WAT     H126909   2.819   7.141   9.695
 8889WAT     H226910   2.705   7.157   9.579
 8890WAT      O26911   8.560   2.335   3.699
 8890WAT     H126912   8.598   2.427   3.691
 8890WAT     H226913   8.475   2.338   3.752
 8891WAT      O26914   4.736   4.159   4.923
 8891WAT     H126915   4.773   4.093   4.857
 8891WAT     H226916   4.653   4.200   4.885
 8892WAT      O26917   2.393   8.337   1.763
 8892WAT     H126918   2.482   8.383   1.758
 8892WAT     H226919   2.406   8.242   1.790
 8893WAT      O26920   1.733   5.340   2.391
 8893WAT     H126921   1.796   5.394   2.336
 8893WAT     H226922   1.647   5.389   2.401
 8894WAT      O26923   1.346   1.198   9.041
 8894WAT     H126924   1.258   1.202   9.089
 8894WAT     H226925   1.342   1.260   8.962
 8895WAT      O26926   2.912   2.794   4.781
 8895WAT     H126927   2.963   2.795   4.695
 8895WAT     H226928   2.970   2.756   4.853
 8896WAT      O26929   8.497   2.630   0.674
 8896WAT     H126930   8.462   2.547   0.631
 8896WAT     H226931   8.472   2.709   0.619
 8897WAT      O26932   1.589   2.768   5.699
 8897WAT     H126933   1.495   2.743   5.674
 8897WAT     H226934   1.587   2.824   5.782
 8898WAT      O26935   3.906   2.777   1.233
 8898WAT     H126936   3.857   2.753   1.150
 8898WAT     H226937   4.003   2.756   1.222
 8899WAT      O26938   3.318   0.359   8.718
 8899WAT     H126939   3.281   0.268   8.736
 8899WAT     H226940   3.331   0.407   8.805
 8900WAT      O26941   2.058   7.985   5.429
 8900WAT     H126942   2.147   7.943   5.446
 8900WAT     H226943   2.048   8.066   5.487
 8901WAT      O26944   8.354   1.800   0.476
 8901WAT     H126945   8.316   1.892   0.475
 8901WAT     H226946   8.447   1.803   0.514
 8902WAT      O26947   9.480   3.467   5.370
 8902WAT     H126948   9.444   3.477   5.463
 8902WAT     H226949   9.492   3.370   5.349
 8903WAT      O26950   1.506   0.011   3.130
 8903WAT     H126951   1.521  -0.025   3.037
 8903WAT     H226952   1.418   0.058   3.134
 8904WAT      O26953   8.126   1.482   5.862
 8904WAT     H126954   8.148   1.577   5.883
 8904WAT     H226955   8.059   1.478   5.787
 8905WAT      O26956   1.197   9.002   2.534
 8905WAT     H126957   1.295   8.994   2.514
 8905WAT     H226958   1.148   9.029   2.451
 8906WAT      O26959   7.443   4.669   6.086
 8906WAT     H126960   7.370   4.690   6.022
 8906WAT     H226961   7.418   4.700   6.178
 8907WAT      O26962   3.389   3.186   9.570
 8907WAT     H126963   3.377   3.087   9.579
 8907WAT     H226964   3.457   3.205   9.499
 8908WAT      O26965   8.461   2.522   1.270
 8908WAT     H126966   8.371   2.565   1.256
 8908WAT     H226967   8.452   2.423   1.261
 8909WAT      O26968   7.645   5.129   3.194
 8909WAT     H126969   7.737   5.096   3.212
 8909WAT     H226970   7.589   5.054   3.157
 8910WAT      O26971   0.642   2.539   2.858
 8910WAT     H126972   0.719   2.602   2.865
 8910WAT     H226973   0.631   2.490   2.944
 8911WAT      O26974   5.203   2.783   7.216
 8911WAT     H126975   5.189   2.684   7.222
 8911WAT     H226976   5.229   2.808   7.122
 8912WAT      O26977   2.998   3.232   7.526
 8912WAT     H126978   3.060   3.310   7.528
 8912WAT     H226979   3.051   3.148   7.513
 8913WAT      O26980   0.036   5.673   0.097
 8913WAT     H126981  -0.054   5.714   0.079
 8913WAT     H226982   0.030   5.573   0.086
 8914WAT      O26983   9.685   3.410   6.879
 8914WAT     H126984   9.609   3.437   6.819
 8914WAT     H226985   9.739   3.340   6.833
 8915WAT      O26986   7.065   9.321   2.624
 8915WAT     H126987   7.082   9.245   2.562
 8915WAT     H226988   6.982   9.304   2.677
 8916WAT      O26989   1.731   5.779   1.061
 8916WAT     H126990   1.668   5.764   0.985
 8916WAT     H226991   1.813   5.725   1.047
 8917WAT      O26992   3.099   8.578   5.637
 8917WAT     H126993   3.012   8.572   5.588
 8917WAT     H226994   3.088   8.540   5.729
 8918WAT      O26995   0.228   5.139   0.678
 8918WAT     H126996   0.222   5.229   0.721
 8918WAT     H226997   0.244   5.149   0.580
 8919WAT      O26998   1.855   6.552   8.696
 8919WAT     H126999   1.816   6.482   8.637
 8919WAT     H227000   1.875   6.634   8.643
 8920WAT      O27001   8.989   9.422   8.053
 8920WAT     H127002   8.891   9.443   8.050
 8920WAT     H227003   9.029   9.432   7.962
 8921WAT      O27004   0.378   1.774   9.795
 8921WAT     H127005   0.306   1.789   9.727
 8921WAT     H227006   0.381   1.851   9.858
 8922WAT      O27007   4.279   2.670   5.862
 8922WAT     H127008   4.367   2.710   5.885
 8922WAT     H227009   4.289   2.571   5.850
 8923WAT      O27010   6.067   0.150   2.998
 8923WAT     H127011   6.105   0.167   3.089
 8923WAT     H227012   6.122   0.081   2.951
 8924WAT      O27013   4.521   0.317   0.276
 8924WAT     H127014   4.442   0.257   0.283
 8924WAT     H227015   4.551   0.321   0.180
 8925WAT      O27016   8.224   8.833   5.947
 8925WAT     H127017   8.133   8.867   5.923
 8925WAT     H227018   8.259   8.776   5.873
 8926WAT      O27019   0.099   9.201   3.717
 8926WAT     H127020   0.147   9.281   3.680
 8926WAT     H227021   0.135   9.181   3.808
 8927WAT      O27022   4.479   3.875   8.510
 8927WAT     H127023   4.482   3.872   8.610
 8927WAT     H227024   4.419   3.950   8.481
 8928WAT      O27025   6.371   1.939   2.426
 8928WAT     H127026   6.289   1.928   2.371
 8928WAT     H227027   6.452   1.927   2.369
 8929WAT      O27028   6.292   5.068   7.989
 8929WAT     H127029   6.289   5.009   8.070
 8929WAT     H227030   6.209   5.124   7.987
 8930WAT      O27031   5.309   5.705   8.242
 8930WAT     H127032   5.272   5.719   8.150
 8930WAT     H227033   5.334   5.608   8.253
 8931WAT      O27034   2.846   9.436   2.200
 8931WAT     H127035   2.912   9.362   2.187
 8931WAT     H227036   2.792   9.419   2.282
 8932WAT      O27037   6.512   3.000   9.221
 8932WAT     H127038   6.558   3.067   9.163
 8932WAT     H227039   6.516   3.031   9.316
 8933WAT      O27040   9.234   2.189   1.801
 8933WAT     H127041   9.192   2.274   1.833
 8933WAT     H227042   9.175   2.112   1.824
 8934WAT      O27043   3.894   1.729   7.806
 8934WAT     H127044   3.910   1.800   7.737
 8934WAT     H227045   3.819   1.757   7.866
 8935WAT      O27046   5.399   0.237   5.682
 8935WAT     H127047   5.351   0.153   5.657
 8935WAT     H227048   5.494   0.231   5.652
 8936WAT      O27049   6.268   1.566   7.655
 8936WAT     H127050   6.175   1.530   7.666
 8936WAT     H227051   6.294   1.564   7.558
 8937WAT      O27052   6.764   0.338   0.487
 8937WAT     H127053   6.828   0.273   0.528
 8937WAT     H227054   6.674   0.295   0.476
 8938WAT      O27055   4.293   4.723   7.429
 8938WAT     H127056   4.201   4.754   7.406
 8938WAT     H227057   4.342   4.798   7.474
 8939WAT      O27058   2.037   6.366   6.249
 8939WAT     H127059   2.043   6.307   6.168
 8939WAT     H227060   2.127   6.404   6.269
 8940WAT      O27061   9.660   7.208   7.303
 8940WAT     H127062   9.736   7.192   7.366
 8940WAT     H227063   9.689   7.188   7.209
 8941WAT      O27064   9.301   1.512   7.431
 8941WAT     H127065   9.244   1.481   7.354
 8941WAT     H227066   9.394   1.477   7.420
 8942WAT      O27067   6.886   0.172   8.508
 8942WAT     H127068   6.954   0.213   8.447
 8942WAT     H227069   6.838   0.099   8.459
 8943WAT      O27070   7.008   4.247   8.023
 8943WAT     H127071   7.102   4.281   8.029
 8943WAT     H227072   6.982   4.206   8.111
 8944WAT      O27073   7.320   1.374   3.913
 8944WAT     H127074   7.247   1.443   3.906
 8944WAT     H227075   7.282   1.284   3.890
 8945WAT      O27076   6.232   5.726   8.117
 8945WAT     H127077   6.239   5.819   8.155
 8945WAT     H227078   6.189   5.730   8.027
 8946WAT      O27079   1.362   8.597   4.692
 8946WAT     H127080   1.364   8.499   4.671
 8946WAT     H227081   1.281   8.638   4.650
 8947WAT      O27082   5.833   3.218   3.327
 8947WAT     H127083   5.840   3.268   3.241
 8947WAT     H227084   5.779   3.270   3.393
 8948WAT      O27085   5.162   5.477   3.626
 8948WAT     H127086   5.164   5.482   3.726
 8948WAT     H227087   5.088   5.417   3.597
 8949WAT      O27088   1.179   0.362   3.955
 8949WAT     H127089   1.253   0.421   3.986
 8949WAT     H227090   1.161   0.291   4.023
 8950WAT      O27091   5.295   7.658   4.300
 8950WAT     H127092   5.387   7.624   4.280
 8950WAT     H227093   5.245   7.590   4.352
 8951WAT      O27094   1.087   2.389   6.355
 8951WAT     H127095   1.033   2.311   6.384
 8951WAT     H227096   1.184   2.364   6.353
 8952WAT      O27097   3.113   2.872   9.403
 8952WAT     H127098   3.044   2.860   9.332
 8952WAT     H227099   3.188   2.927   9.367
 8953WAT      O27100   9.244   8.764   2.157
 8953WAT     H127101   9.260   8.862   2.163
 8953WAT     H227102   9.285   8.718   2.237
 8954WAT      O27103   9.299   2.762   1.668
 8954WAT     H127104   9.353   2.711   1.735
 8954WAT     H227105   9.355   2.779   1.587
 8955WAT      O27106   6.872   5.741   5.630
 8955WAT     H127107   6.955   5.740   5.574
 8955WAT     H227108   6.860   5.651   5.673
 8956WAT      O27109   4.402   7.656   4.522
 8956WAT     H127110   4.388   7.678   4.425
 8956WAT     H227111   4.313   7.641   4.565
 8957WAT      O27112   1.819   8.826   2.309
 8957WAT     H127113   1.732   8.787   2.339
 8957WAT     H227114   1.886   8.753   2.293
 8958WAT      O27115   1.314   5.853   4.961
 8958WAT     H127116   1.238   5.914   4.985
 8958WAT     H227117   1.392   5.873   5.021
 8959WAT      O27118   2.141   8.591   4.368
 8959WAT     H127119   2.073   8.530   4.327
 8959WAT     H227120   2.121   8.602   4.465
 8960WAT      O27121   5.597   7.819   7.967
 8960WAT     H127122   5.517   7.877   7.950
 8960WAT     H227123   5.680   7.867   7.938
 8961WAT      O27124   5.827   1.739   5.540
 8961WAT     H127125   5.879   1.703   5.617
 8961WAT     H227126   5.852   1.689   5.457
 8962WAT      O27127   5.244   6.773   8.995
 8962WAT     H127128   5.177   6.725   9.051
 8962WAT     H227129   5.239   6.871   9.013
 8963WAT      O27130   3.826   6.778   2.845
 8963WAT     H127131   3.794   6.776   2.940
 8963WAT     H227132   3.748   6.772   2.783
 8964WAT      O27133   1.723   7.077   0.740
 8964WAT     H127134   1.738   6.984   0.773
 8964WAT     H227135   1.810   7.127   0.741
 8965WAT      O27136   1.998   5.174   5.368
 8965WAT     H127137   1.939   5.230   5.427
 8965WAT     H227138   1.997   5.079   5.400
 8966WAT      O27139   9.154   8.173   0.376
 8966WAT     H127140   9.201   8.240   0.319
 8966WAT     H227141   9.056   8.192   0.377
 8967WAT      O27142   4.623   5.979   8.308
 8967WAT     H127143   4.525   5.968   8.322
 8967WAT     H227144   4.656   5.909   8.245
 8968WAT      O27145   5.407   6.827   6.479
 8968WAT     H127146   5.404   6.727   6.472
 8968WAT     H227147   5.429   6.853   6.573
 8969WAT      O27148   7.091   2.353   3.263
 8969WAT     H127149   7.146   2.374   3.344
 8969WAT     H227150   7.069   2.438   3.215
 8970WAT      O27151   7.342   4.274   4.900
 8970WAT     H127152   7.432   4.240   4.928
 8970WAT     H227153   7.351   4.327   4.815
 8971WAT      O27154   0.686   9.216   2.969
 8971WAT     H127155   0.774   9.249   3.002
 8971WAT     H227156   0.692   9.118   2.950
 8972WAT      O27157   7.489   7.347   0.583
 8972WAT     H127158   7.436   7.267   0.553
 8972WAT     H227159   7.456   7.428   0.535
 8973WAT      O27160   3.369   6.220   2.347
 8973WAT     H127161   3.463   6.204   2.374
 8973WAT     H227162   3.358   6.316   2.319
 8974WAT      O27163   4.006   8.613   9.509
 8974WAT     H127164   4.060   8.567   9.580
 8974WAT     H227165   4.059   8.688   9.470
 8975WAT      O27166   4.400   5.509   2.527
 8975WAT     H127167   4.339   5.459   2.588
 8975WAT     H227168   4.491   5.468   2.531
 8976WAT      O27169   8.554   5.977   5.395
 8976WAT     H127170   8.571   5.915   5.472
 8976WAT     H227171   8.593   6.067   5.415
 8977WAT      O27172   5.933   7.875   1.771
 8977WAT     H127173   5.976   7.943   1.711
 8977WAT     H227174   5.848   7.843   1.729
 8978WAT      O27175   9.716   9.427   3.167
 8978WAT     H127176   9.809   9.392   3.162
 8978WAT     H227177   9.716   9.526   3.156
 8979WAT      O27178   7.310   4.146   6.447
 8979WAT     H127179   7.376   4.165   6.520
 8979WAT     H227180   7.231   4.206   6.458
 8980WAT      O27181   6.357   7.112   5.257
 8980WAT     H127182   6.322   7.168   5.331
 8980WAT     H227183   6.408   7.169   5.193
 8981WAT      O27184   9.091   2.776   9.640
 8981WAT     H127185   9.090   2.792   9.541
 8981WAT     H227186   9.129   2.855   9.686
 8982WAT      O27187   7.123   7.005   9.315
 8982WAT     H127188   7.082   7.058   9.390
 8982WAT     H227189   7.051   6.978   9.251
 8983WAT      O27190   4.385   5.107   2.489
 8983WAT     H127191   4.440   5.030   2.520
 8983WAT     H227192   4.377   5.174   2.563
 8984WAT      O27193   2.844   8.680   8.699
 8984WAT     H127194   2.853   8.763   8.754
 8984WAT     H227195   2.870   8.600   8.754
 8985WAT      O27196   3.813   4.205   2.563
 8985WAT     H127197   3.839   4.288   2.514
 8985WAT     H227198   3.843   4.211   2.658
 8986WAT      O27199   4.037   7.525   8.313
 8986WAT     H127200   3.999   7.440   8.276
 8986WAT     H227201   4.135   7.514   8.328
 8987WAT      O27202   7.188   0.150   1.365
 8987WAT     H127203   7.103   0.098   1.359
 8987WAT     H227204   7.230   0.157   1.275
 8988WAT      O27205   0.670   1.150   8.300
 8988WAT     H127206   0.662   1.051   8.306
 8988WAT     H227207   0.730   1.183   8.372
 8989WAT      O27208   8.717   6.356   4.121
 8989WAT     H127209   8.753   6.367   4.213
 8989WAT     H227210   8.644   6.288   4.121
 8990WAT      O27211   8.634   7.672   1.363
 8990WAT     H127212   8.538   7.651   1.342
 8990WAT     H227213   8.644   7.770   1.378
 8991WAT      O27214   7.958   1.682   1.476
 8991WAT     H127215   7.968   1.660   1.573
 8991WAT     H227216   7.989   1.605   1.421
 8992WAT      O27217   6.683   3.569   6.109
 8992WAT     H127218   6.659   3.594   6.015
 8992WAT     H227219   6.679   3.469   6.118
 8993WAT      O27220   4.000   7.785   3.368
 8993WAT     H127221   4.012   7.711   3.302
 8993WAT     H227222   4.052   7.765   3.451
 8994WAT      O27223   6.445   6.740   5.412
 8994WAT     H127224   6.380   6.801   5.367
 8994WAT     H227225   6.409   6.712   5.501
 8995WAT      O27226   7.155   2.120   8.044
 8995WAT     H127227   7.086   2.165   8.100
 8995WAT     H227228   7.236   2.179   8.038
 8996WAT      O27229   2.592   3.041   1.104
 8996WAT     H127230   2.548   3.074   1.021
 8996WAT     H227231   2.523   3.001   1.164
 8997WAT      O27232   1.358   7.598   6.800
 8997WAT     H127233   1.452   7.613   6.831
 8997WAT     H227234   1.348   7.630   6.705
 8998WAT      O27235   1.504   0.587   1.668
 8998WAT     H127236   1.528   0.632   1.754
 8998WAT     H227237   1.577   0.524   1.642
 8999WAT      O27238   4.952   6.089   0.596
 8999WAT     H127239   4.864   6.049   0.622
 8999WAT     H227240   5.022   6.019   0.594
 9000WAT      O27241   6.919   2.037   6.801
 9000WAT     H127242   6.891   2.082   6.886
 9000WAT     H227243   6.846   2.047   6.733
 9001WAT      O27244   5.312   1.470   9.836
 9001WAT     H127245   5.378   1.539   9.806
 9001WAT     H227246   5.304   1.474   9.936
 9002WAT      O27247   2.040   4.161   2.746
 9002WAT     H127248   2.103   4.106   2.691
 9002WAT     H227249   2.031   4.252   2.705
 9003WAT      O27250   8.190   8.396   4.319
 9003WAT     H127251   8.209   8.305   4.283
 9003WAT     H227252   8.254   8.417   4.393
 9004WAT      O27253   0.310   6.892   8.489
 9004WAT     H127254   0.378   6.943   8.436
 9004WAT     H227255   0.227   6.881   8.435
 9005WAT      O27256   5.951   2.104   4.272
 9005WAT     H127257   5.988   2.016   4.242
 9005WAT     H227258   6.019   2.152   4.327
 9006WAT      O27259   4.869   4.540   3.918
 9006WAT     H127260   4.917   4.531   3.831
 9006WAT     H227261   4.932   4.521   3.993
 9007WAT      O27262   4.755   2.335   2.992
 9007WAT     H127263   4.748   2.244   3.032
 9007WAT     H227264   4.759   2.327   2.892
 9008WAT      O27265   3.286   4.867   5.094
 9008WAT     H127266   3.328   4.947   5.052
 9008WAT     H227267   3.187   4.872   5.084
 9009WAT      O27268   1.556   9.810   6.741
 9009WAT     H127269   1.501   9.727   6.748
 9009WAT     H227270   1.497   9.889   6.732
 9010WAT      O27271   5.911   5.494   9.174
 9010WAT     H127272   5.845   5.523   9.243
 9010WAT     H227273   5.893   5.543   9.088
 9011WAT      O27274   8.871   4.766   4.620
 9011WAT     H127275   8.773   4.775   4.637
 9011WAT     H227276   8.894   4.812   4.534
 9012WAT      O27277   4.415   6.907   6.327
 9012WAT     H127278   4.413   6.954   6.238
 9012WAT     H227279   4.507   6.911   6.364
 9013WAT      O27280   8.738   2.656   0.074
 9013WAT     H127281   8.778   2.665  -0.018
 9013WAT     H227282   8.696   2.743   0.100
 9014WAT      O27283   4.328   1.047   0.556
 9014WAT     H127284   4.422   1.078   0.565
 9014WAT     H227285   4.324   0.970   0.492
 9015WAT      O27286   4.411   4.255   5.589
 9015WAT     H127287   4.388   4.176   5.532
 9015WAT     H227288   4.329   4.284   5.640
 9016WAT      O27289   1.745   8.445   4.684
 9016WAT     H127290   1.704   8.443   4.593
 9016WAT     H227291   1.777   8.353   4.708
 9017WAT      O27292   1.788   9.577   0.295
 9017WAT     H127293   1.740   9.493   0.273
 9017WAT     H227294   1.873   9.581   0.243
 9018WAT      O27295   4.174   8.555   9.820
 9018WAT     H127296   4.218   8.631   9.867
 9018WAT     H227297   4.122   8.500   9.886
 9019WAT      O27298   1.767   6.390   6.289
 9019WAT     H127299   1.731   6.430   6.373
 9019WAT     H227300   1.866   6.380   6.297
 9020WAT      O27301   0.197   2.853   4.833
 9020WAT     H127302   0.198   2.754   4.845
 9020WAT     H227303   0.107   2.889   4.857
 9021WAT      O27304   0.347   8.670   6.561
 9021WAT     H127305   0.430   8.726   6.563
 9021WAT     H227306   0.355   8.602   6.487
 9022WAT      O27307   0.790   7.873   9.724
 9022WAT     H127308   0.807   7.844   9.630
 9022WAT     H227309   0.720   7.815   9.765
 9023WAT      O27310   3.735   3.636   2.134
 9023WAT     H127311   3.700   3.725   2.107
 9023WAT     H227312   3.682   3.600   2.211
 9024WAT      O27313   8.853   2.660   9.709
 9024WAT     H127314   8.873   2.577   9.657
 9024WAT     H227315   8.932   2.720   9.708
 9025WAT      O27316   1.814   4.807   1.605
 9025WAT     H127317   1.877   4.731   1.589
 9025WAT     H227318   1.747   4.780   1.675
 9026WAT      O27319   6.441   8.980   8.170
 9026WAT     H127320   6.399   8.998   8.259
 9026WAT     H227321   6.376   8.930   8.111
 9027WAT      O27322   7.016   5.597   6.845
 9027WAT     H127323   6.989   5.682   6.800
 9027WAT     H227324   7.071   5.619   6.926
 9028WAT      O27325   9.133   4.461   6.398
 9028WAT     H127326   9.124   4.430   6.303
 9028WAT     H227327   9.180   4.391   6.451
 9029WAT      O27328   1.781   3.500   5.111
 9029WAT     H127329   1.737   3.419   5.071
 9029WAT     H227330   1.720   3.541   5.178
 9030WAT      O27331   1.033   5.220   6.433
 9030WAT     H127332   0.997   5.301   6.480
 9030WAT     H227333   0.997   5.217   6.340
 9031WAT      O27334   5.829   8.963   6.906
 9031WAT     H127335   5.753   9.001   6.854
 9031WAT     H227336   5.909   8.953   6.846
 9032WAT      O27337   5.397   0.728   3.388
 9032WAT     H127338   5.399   0.817   3.433
 9032WAT     H227339   5.303   0.692   3.391
 9033WAT      O27340   5.980   1.919   0.132
 9033WAT     H127341   5.916   1.934   0.208
 9033WAT     H227342   5.981   1.999   0.072
 9034WAT      O27343   0.176   2.149   5.774
 9034WAT     H127344   0.177   2.155   5.874
 9034WAT     H227345   0.098   2.094   5.745
 9035WAT      O27346   4.191   1.481   5.338
 9035WAT     H127347   4.146   1.512   5.421
 9035WAT     H227348   4.283   1.520   5.333
 9036WAT      O27349   5.128   2.607   5.555
 9036WAT     H127350   5.217   2.653   5.560
 9036WAT     H227351   5.060   2.661   5.604
 9037WAT      O27352   5.496   5.736   3.225
 9037WAT     H127353   5.562   5.789   3.278
 9037WAT     H227354   5.410   5.786   3.216
 9038WAT      O27355   0.838   5.274   3.857
 9038WAT     H127356   0.790   5.354   3.820
 9038WAT     H227357   0.915   5.251   3.797
 9039WAT      O27358   1.730   2.318   8.165
 9039WAT     H127359   1.755   2.289   8.258
 9039WAT     H227360   1.633   2.299   8.149
 9040WAT      O27361   5.381   0.880   2.674
 9040WAT     H127362   5.373   0.923   2.764
 9040WAT     H227363   5.478   0.867   2.653
 9041WAT      O27364   2.451   3.723   6.189
 9041WAT     H127365   2.531   3.668   6.166
 9041WAT     H227366   2.417   3.768   6.106
 9042WAT      O27367   1.687   7.230   1.453
 9042WAT     H127368   1.631   7.269   1.527
 9042WAT     H227369   1.716   7.138   1.479
 9043WAT      O27370   4.681   7.561   4.190
 9043WAT     H127371   4.763   7.548   4.246
 9043WAT     H227372   4.656   7.657   4.190
 9044WAT      O27373   5.691   6.278   4.354
 9044WAT     H127374   5.644   6.333   4.284
 9044WAT     H227375   5.784   6.312   4.366
 9045WAT      O27376   4.283   4.402   8.767
 9045WAT     H127377   4.225   4.390   8.848
 9045WAT     H227378   4.325   4.493   8.769
 9046WAT      O27379   6.450   8.048   3.461
 9046WAT     H127380   6.383   8.028   3.389
 9046WAT     H227381   6.540   8.016   3.432
 9047WAT      O27382   3.430   8.747   7.803
 9047WAT     H127383   3.343   8.743   7.850
 9047WAT     H227384   3.481   8.828   7.834
 9048WAT      O27385   5.726   3.622   1.720
 9048WAT     H127386   5.803   3.664   1.769
 9048WAT     H227387   5.675   3.563   1.782
 9049WAT      O27388   3.436   4.089   4.082
 9049WAT     H127389   3.494   4.079   4.163
 9049WAT     H227390   3.436   4.003   4.030
 9050WAT      O27391   3.139   0.181   8.825
 9050WAT     H127392   3.114   0.257   8.884
 9050WAT     H227393   3.177   0.107   8.881
 9051WAT      O27394   8.781   3.697   7.774
 9051WAT     H127395   8.846   3.638   7.821
 9051WAT     H227396   8.688   3.679   7.807
 9052WAT      O27397   6.976   6.639   7.203
 9052WAT     H127398   6.904   6.704   7.227
 9052WAT     H227399   6.953   6.593   7.117
 9053WAT      O27400   2.129   1.399   4.155
 9053WAT     H127401   2.106   1.470   4.222
 9053WAT     H227402   2.131   1.310   4.201
 9054WAT      O27403   7.341   2.310   8.728
 9054WAT     H127404   7.358   2.218   8.693
 9054WAT     H227405   7.364   2.313   8.825
 9055WAT      O27406   8.224   2.663   1.608
 9055WAT     H127407   8.252   2.711   1.692
 9055WAT     H227408   8.131   2.629   1.620
 9056WAT      O27409   4.063   3.481   7.455
 9056WAT     H127410   4.095   3.560   7.507
 9056WAT     H227411   4.129   3.407   7.463
 9057WAT      O27412   2.957   5.262   6.025
 9057WAT     H127413   3.008   5.176   6.033
 9057WAT     H227414   3.019   5.338   6.044
 9058WAT      O27415   5.955   1.003   9.773
 9058WAT     H127416   6.043   1.049   9.759
 9058WAT     H227417   5.886   1.070   9.800
 9059WAT      O27418   5.779   9.446   1.098
 9059WAT     H127419   5.751   9.372   1.037
 9059WAT     H227420   5.704   9.510   1.111
 9060WAT      O27421   4.534   5.501   0.820
 9060WAT     H127422   4.618   5.450   0.798
 9060WAT     H227423   4.493   5.462   0.902
 9061WAT      O27424   1.910   6.629   6.425
 9061WAT     H127425   1.987   6.593   6.372
 9061WAT     H227426   1.905   6.582   6.513
 9062WAT      O27427   1.185   9.343   1.494
 9062WAT     H127428   1.269   9.343   1.440
 9062WAT     H227429   1.185   9.263   1.554
 9063WAT      O27430   6.337   3.774   2.890
 9063WAT     H127431   6.285   3.842   2.839
 9063WAT     H227432   6.428   3.765   2.851
 9064WAT      O27433   1.754   9.102   8.474
 9064WAT     H127434   1.813   9.055   8.539
 9064WAT     H227435   1.807   9.128   8.393
 9065WAT      O27436   0.730   3.661   6.622
 9065WAT     H127437   0.827   3.655   6.645
 9065WAT     H227438   0.718   3.728   6.548
 9066WAT      O27439   6.649   4.876   2.352
 9066WAT     H127440   6.565   4.844   2.307
 9066WAT     H227441   6.691   4.801   2.402
 9067WAT      O27442   9.667   8.709   6.073
 9067WAT     H127443   9.568   8.715   6.061
 9067WAT     H227444   9.695   8.613   6.074
 9068WAT      O27445   0.575   0.066   7.770
 9068WAT     H127446   0.616  -0.018   7.807
 9068WAT     H227447   0.503   0.097   7.832
 9069WAT      O27448   4.826   8.065   5.500
 9069WAT     H127449   4.747   8.015   5.464
 9069WAT     H227450   4.876   8.107   5.424
 9070WAT      O27451   3.866   0.372   1.939
 9070WAT     H127452   3.917   0.379   1.853
 9070WAT     H227453   3.769   0.360   1.918
 9071WAT      O27454   6.330   5.059   9.271
 9071WAT     H127455   6.334   5.100   9.180
 9071WAT     H227456   6.346   5.129   9.340
 9072WAT      O27457   0.623   7.405   3.684
 9072WAT     H127458   0.662   7.342   3.617
 9072WAT     H227459   0.684   7.483   3.696
 9073WAT      O27460   1.051   9.368   6.512
 9073WAT     H127461   0.971   9.410   6.470
 9073WAT     H227462   1.021   9.305   6.584
 9074WAT      O27463   7.216   9.478   1.284
 9074WAT     H127464   7.178   9.399   1.234
 9074WAT     H227465   7.303   9.504   1.243
 9075WAT      O27466   0.617   7.078   1.663
 9075WAT     H127467   0.555   7.093   1.739
 9075WAT     H227468   0.665   7.164   1.642
 9076WAT      O27469   5.804   6.663   0.448
 9076WAT     H127470   5.750   6.634   0.369
 9076WAT     H227471   5.777   6.756   0.474
 9077WAT      O27472   0.459   1.578   4.589
 9077WAT     H127473   0.519   1.622   4.522
 9077WAT     H227474   0.409   1.504   4.544
 9078WAT      O27475   7.499   8.613   5.735
 9078WAT     H127476   7.515   8.664   5.820
 9078WAT     H227477   7.553   8.653   5.661
 9079WAT      O27478   2.903   6.455   4.007
 9079WAT     H127479   2.999   6.461   3.980
 9079WAT     H227480   2.890   6.377   4.067
 9080WAT      O27481   8.560   5.090   1.896
 9080WAT     H127482   8.605   5.033   1.827
 9080WAT     H227483   8.498   5.154   1.851
 9081WAT      O27484   1.039   6.482   9.589
 9081WAT     H127485   1.010   6.400   9.640
 9081WAT     H227486   0.993   6.484   9.500
 9082WAT      O27487   4.944   0.754   8.118
 9082WAT     H127488   5.036   0.717   8.134
 9082WAT     H227489   4.877   0.701   8.170
 9083WAT      O27490   0.145   0.294   1.303
 9083WAT     H127491   0.235   0.251   1.305
 9083WAT     H227492   0.136   0.348   1.219
 9084WAT      O27493   0.061   5.933   5.823
 9084WAT     H127494   0.015   6.011   5.865
 9084WAT     H227495   0.009   5.850   5.843
 9085WAT      O27496   2.315   1.310   2.746
 9085WAT     H127497   2.408   1.331   2.777
 9085WAT     H227498   2.249   1.359   2.803
 9086WAT      O27499   2.061   8.736   3.428
 9086WAT     H127500   2.041   8.659   3.368
 9086WAT     H227501   1.978   8.760   3.480
 9087WAT      O27502   8.375   6.882   3.023
 9087WAT     H127503   8.296   6.923   3.070
 9087WAT     H227504   8.366   6.782   3.023
 9088WAT      O27505   3.022   0.892   6.430
 9088WAT     H127506   3.083   0.868   6.506
 9088WAT     H227507   3.076   0.914   6.349
 9089WAT      O27508   8.541   3.554   8.203
 9089WAT     H127509   8.502   3.561   8.294
 9089WAT     H227510   8.576   3.643   8.174
 9090WAT      O27511   6.003   4.394   7.000
 9090WAT     H127512   5.986   4.467   6.934
 9090WAT     H227513   6.042   4.315   6.953
 9091WAT      O27514   0.741   7.781   6.861
 9091WAT     H127515   0.812   7.837   6.903
 9091WAT     H227516   0.651   7.812   6.893
 9092WAT      O27517   6.408   6.172   4.625
 9092WAT     H127518   6.345   6.245   4.600
 9092WAT     H227519   6.446   6.189   4.716
 9093WAT      O27520   2.428   4.926   7.179
 9093WAT     H127521   2.399   4.856   7.244
 9093WAT     H227522   2.426   4.888   7.086
 9094WAT      O27523   6.921   6.072   5.530
 9094WAT     H127524   6.878   6.072   5.620
 9094WAT     H227525   7.018   6.093   5.539
 9095WAT      O27526   9.751   9.210   3.353
 9095WAT     H127527   9.849   9.208   3.374
 9095WAT     H227528   9.730   9.291   3.299
 9096WAT      O27529   2.285   7.414   7.020
 9096WAT     H127530   2.297   7.326   7.066
 9096WAT     H227531   2.188   7.436   7.016
 9097WAT      O27532   4.864   5.066   1.649
 9097WAT     H127533   4.795   5.030   1.712
 9097WAT     H227534   4.851   5.028   1.558
 9098WAT      O27535   0.592   0.086   2.959
 9098WAT     H127536   0.505   0.102   2.911
 9098WAT     H227537   0.579   0.015   3.027
 9099WAT      O27538   7.050   3.545   8.487
 9099WAT     H127539   7.051   3.531   8.586
 9099WAT     H227540   7.000   3.630   8.466
 9100WAT      O27541   1.470   5.481   4.337
 9100WAT     H127542   1.416   5.445   4.260
 9100WAT     H227543   1.415   5.549   4.386
 9101WAT      O27544   4.365   9.376   1.527
 9101WAT     H127545   4.352   9.389   1.626
 9101WAT     H227546   4.315   9.446   1.477
 9102WAT      O27547   6.949   7.189   9.767
 9102WAT     H127548   6.850   7.197   9.754
 9102WAT     H227549   6.983   7.113   9.712
 9103WAT      O27550   8.653   4.802   8.119
 9103WAT     H127551   8.561   4.777   8.089
 9103WAT     H227552   8.684   4.737   8.189
 9104WAT      O27553   0.270   4.217   2.784
 9104WAT     H127554   0.354   4.194   2.734
 9104WAT     H227555   0.277   4.182   2.877
 9105WAT      O27556   1.148   6.939   3.120
 9105WAT     H127557   1.200   6.854   3.118
 9105WAT     H227558   1.173   6.996   3.042
 9106WAT      O27559   4.575   7.273   3.718
 9106WAT     H127560   4.478   7.298   3.714
 9106WAT     H227561   4.601   7.258   3.813
 9107WAT      O27562   6.589   2.269   9.588
 9107WAT     H127563   6.670   2.259   9.647
 9107WAT     H227564   6.592   2.358   9.543
 9108WAT      O27565   5.117   4.856   4.712
 9108WAT     H127566   5.017   4.860   4.712
 9108WAT     H227567   5.148   4.801   4.635
 9109WAT      O27568   2.778   1.038   3.455
 9109WAT     H127569   2.765   1.130   3.419
 9109WAT     H227570   2.768   1.039   3.555
 9110WAT      O27571   4.473   6.943   5.542
 9110WAT     H127572   4.527   6.971   5.621
 9110WAT     H227573   4.446   7.023   5.489
 9111WAT      O27574   7.047   6.493   6.529
 9111WAT     H127575   6.974   6.521   6.468
 9111WAT     H227576   7.119   6.447   6.477
 9112WAT      O27577   4.240   8.172   2.396
 9112WAT     H127578   4.323   8.195   2.346
 9112WAT     H227579   4.214   8.247   2.456
 9113WAT      O27580   4.506   6.548   8.202
 9113WAT     H127581   4.564   6.629   8.213
 9113WAT     H227582   4.548   6.470   8.249
 9114WAT      O27583   2.387   8.498   3.532
 9114WAT     H127584   2.447   8.461   3.603
 9114WAT     H227585   2.342   8.580   3.567
 9115WAT      O27586   0.928   3.543   0.859
 9115WAT     H127587   0.869   3.524   0.937
 9115WAT     H227588   0.903   3.631   0.818
 9116WAT      O27589   9.805   0.420   0.905
 9116WAT     H127590   9.805   0.336   0.850
 9116WAT     H227591   9.792   0.499   0.844
 9117WAT      O27592   4.678   5.622   8.919
 9117WAT     H127593   4.611   5.612   8.992
 9117WAT     H227594   4.740   5.697   8.942
 9118WAT      O27595   2.997   4.484   9.365
 9118WAT     H127596   3.026   4.560   9.424
 9118WAT     H227597   3.065   4.411   9.368
 9119WAT      O27598   3.490   1.963   3.286
 9119WAT     H127599   3.472   1.978   3.189
 9119WAT     H227600   3.579   1.919   3.298
 9120WAT      O27601   4.700   4.594   7.384
 9120WAT     H127602   4.702   4.555   7.475
 9120WAT     H227603   4.684   4.693   7.390
 9121WAT      O27604   6.125   9.485   7.874
 9121WAT     H127605   6.086   9.440   7.794
 9121WAT     H227606   6.206   9.538   7.846
 9122WAT      O27607   8.192   2.756   9.625
 9122WAT     H127608   8.119   2.740   9.691
 9122WAT     H227609   8.244   2.837   9.652
 9123WAT      O27610   0.224   9.057   1.616
 9123WAT     H127611   0.213   8.960   1.636
 9123WAT     H227612   0.322   9.079   1.611
 9124WAT      O27613   4.203   5.833   2.111
 9124WAT     H127614   4.125   5.887   2.145
 9124WAT     H227615   4.282   5.849   2.170
 9125WAT      O27616   1.757   7.707   7.996
 9125WAT     H127617   1.790   7.614   7.985
 9125WAT     H227618   1.665   7.706   8.034
 9126WAT      O27619   7.251   7.900   6.170
 9126WAT     H127620   7.181   7.944   6.114
 9126WAT     H227621   7.334   7.887   6.116
 9127WAT      O27622   6.577   9.079   8.532
 9127WAT     H127623   6.671   9.112   8.520
 9127WAT     H227624   6.552   9.085   8.629
 9128WAT      O27625   9.514   4.062   3.453
 9128WAT     H127626   9.575   3.992   3.416
 9128WAT     H227627   9.560   4.150   3.451
 9129WAT      O27628   8.525   1.381   9.838
 9129WAT     H127629   8.497   1.459   9.782
 9129WAT     H227630   8.446   1.348   9.891
 9130WAT      O27631   9.414   9.440   8.670
 9130WAT     H127632   9.480   9.463   8.741
 9130WAT     H227633   9.457   9.450   8.580
 9131WAT      O27634   8.800   7.765   1.838
 9131WAT     H127635   8.847   7.854   1.843
 9131WAT     H227636   8.743   7.754   1.919
 9132WAT      O27637   5.026   0.551   8.602
 9132WAT     H127638   4.932   0.524   8.584
 9132WAT     H227639   5.039   0.646   8.572
 9133WAT      O27640   7.920   8.400   4.772
 9133WAT     H127641   7.850   8.381   4.703
 9133WAT     H227642   7.875   8.431   4.856
 9134WAT      O27643   9.630   5.556   6.198
 9134WAT     H127644   9.574   5.629   6.159
 9134WAT     H227645   9.655   5.579   6.292
 9135WAT      O27646   8.396   4.981   2.560
 9135WAT     H127647   8.474   4.920   2.545
 9135WAT     H227648   8.396   5.054   2.492
 9136WAT      O27649   9.870   7.771   7.490
 9136WAT     H127650   9.964   7.778   7.525
 9136WAT     H227651   9.841   7.859   7.455
 9137WAT      O27652   2.284   2.979   4.848
 9137WAT     H127653   2.276   3.078   4.852
 9137WAT     H227654   2.364   2.950   4.900
 9138WAT      O27655   2.266   3.647   1.541
 9138WAT     H127656   2.340   3.584   1.519
 9138WAT     H227657   2.282   3.688   1.631
 9139WAT      O27658   6.582   1.375   2.407
 9139WAT     H127659   6.651   1.317   2.451
 9139WAT     H227660   6.621   1.418   2.325
 9140WAT      O27661   3.760   8.589   4.529
 9140WAT     H127662   3.855   8.582   4.559
 9140WAT     H227663   3.722   8.677   4.559
 9141WAT      O27664   6.284   7.065   1.011
 9141WAT     H127665   6.376   7.093   1.039
 9141WAT     H227666   6.290   6.988   0.947
 9142WAT      O27667   0.114   3.206   4.388
 9142WAT     H127668   0.202   3.238   4.421
 9142WAT     H227669   0.062   3.282   4.350
 9143WAT      O27670   9.040   4.082   4.170
 9143WAT     H127671   9.080   4.163   4.214
 9143WAT     H227672   9.060   4.083   4.073
 9144WAT      O27673   3.486   4.976   7.315
 9144WAT     H127674   3.571   4.927   7.331
 9144WAT     H227675   3.471   4.986   7.216
 9145WAT      O27676   0.652   9.581   2.749
 9145WAT     H127677   0.609   9.581   2.658
 9145WAT     H227678   0.583   9.563   2.818
 9146WAT      O27679   0.756   9.613   9.836
 9146WAT     H127680   0.660   9.618   9.864
 9146WAT     H227681   0.813   9.598   9.917
 9147WAT      O27682   2.899   4.069   5.088
 9147WAT     H127683   2.867   4.087   5.180
 9147WAT     H227684   2.821   4.053   5.028
 9148WAT      O27685   4.468   9.190   0.915
 9148WAT     H127686   4.450   9.288   0.920
 9148WAT     H227687   4.410   9.142   0.981
 9149WAT      O27688   9.734   0.608   2.363
 9149WAT     H127689   9.828   0.640   2.373
 9149WAT     H227690   9.733   0.509   2.353
 9150WAT      O27691   5.405   6.052   3.396
 9150WAT     H127692   5.370   6.141   3.425
 9150WAT     H227693   5.329   5.995   3.364
 9151WAT      O27694   5.958   7.828   9.547
 9151WAT     H127695   6.032   7.789   9.602
 9151WAT     H227696   5.908   7.895   9.602
 9152WAT      O27697   0.137   2.152   3.850
 9152WAT     H127698   0.091   2.188   3.769
 9152WAT     H227699   0.207   2.217   3.880
 9153WAT      O27700   9.802   4.272   3.193
 9153WAT     H127701   9.772   4.194   3.139
 9153WAT     H227702   9.876   4.245   3.254
 9154WAT      O27703   5.690   2.143   1.946
 9154WAT     H127704   5.723   2.236   1.930
 9154WAT     H227705   5.766   2.079   1.944
 9155WAT      O27706   8.233   2.472   6.317
 9155WAT     H127707   8.300   2.444   6.248
 9155WAT     H227708   8.242   2.413   6.398
 9156WAT      O27709   5.862   3.778   3.271
 9156WAT     H127710   5.901   3.714   3.338
 9156WAT     H227711   5.876   3.741   3.179
 9157WAT      O27712   8.109   0.490   7.705
 9157WAT     H127713   8.032   0.533   7.752
 9157WAT     H227714   8.171   0.450   7.772
 9158WAT      O27715   6.188   8.256   2.827
 9158WAT     H127716   6.190   8.156   2.836
 9158WAT     H227717   6.106   8.283   2.776
 9159WAT      O27718   3.396   0.786   7.445
 9159WAT     H127719   3.423   0.819   7.535
 9159WAT     H227720   3.426   0.851   7.375
 9160WAT      O27721   6.308   8.334   2.573
 9160WAT     H127722   6.280   8.299   2.663
 9160WAT     H227723   6.407   8.341   2.570
 9161WAT      O27724   0.655   3.754   8.470
 9161WAT     H127725   0.754   3.743   8.475
 9161WAT     H227726   0.613   3.718   8.554
 9162WAT      O27727   4.773   5.804   2.871
 9162WAT     H127728   4.677   5.797   2.842
 9162WAT     H227729   4.832   5.814   2.790
 9163WAT      O27730   3.230   3.567   0.138
 9163WAT     H127731   3.213   3.665   0.147
 9163WAT     H227732   3.260   3.547   0.044
 9164WAT      O27733   0.229   1.513   5.174
 9164WAT     H127734   0.235   1.420   5.139
 9164WAT     H227735   0.311   1.565   5.149
 9165WAT      O27736   0.136   4.694   8.599
 9165WAT     H127737   0.115   4.604   8.637
 9165WAT     H227738   0.234   4.703   8.586
 9166WAT      O27739   8.981   0.412   3.432
 9166WAT     H127740   8.920   0.430   3.509
 9166WAT     H227741   9.071   0.452   3.451
 9167WAT      O27742   3.210   6.023   5.426
 9167WAT     H127743   3.270   6.100   5.406
 9167WAT     H227744   3.253   5.964   5.495
 9168WAT      O27745   7.590   2.250   2.862
 9168WAT     H127746   7.656   2.274   2.790
 9168WAT     H227747   7.498   2.250   2.823
 9169WAT      O27748   0.628   1.664   2.270
 9169WAT     H127749   0.701   1.621   2.217
 9169WAT     H227750   0.545   1.609   2.265
 9170WAT      O27751   0.165   9.012   7.762
 9170WAT     H127752   0.068   9.014   7.786
 9170WAT     H227753   0.203   8.922   7.784
 9171WAT      O27754   8.158   7.907   9.734
 9171WAT     H127755   8.197   7.958   9.657
 9171WAT     H227756   8.097   7.966   9.786
 9172WAT      O27757   4.327   0.749   5.653
 9172WAT     H127758   4.426   0.743   5.644
 9172WAT     H227759   4.301   0.733   5.748
 9173WAT      O27760   2.633   3.470   6.578
 9173WAT     H127761   2.674   3.460   6.487
 9173WAT     H227762   2.534   3.457   6.572
 9174WAT      O27763   5.794   0.141   3.537
 9174WAT     H127764   5.773   0.182   3.449
 9174WAT     H227765   5.740   0.184   3.609
 9175WAT      O27766   0.944   2.902   4.470
 9175WAT     H127767   0.952   2.803   4.464
 9175WAT     H227768   0.991   2.935   4.552
 9176WAT      O27769   0.786   1.646   7.337
 9176WAT     H127770   0.828   1.697   7.262
 9176WAT     H227771   0.841   1.564   7.357
 9177WAT      O27772   3.958   8.257   2.530
 9177WAT     H127773   3.952   8.181   2.465
 9177WAT     H227774   4.010   8.332   2.489
 9178WAT      O27775   7.182   9.475   2.172
 9178WAT     H127776   7.241   9.531   2.113
 9178WAT     H227777   7.093   9.464   2.128
 9179WAT      O27778   9.664   3.093   6.170
 9179WAT     H127779   9.624   3.183   6.188
 9179WAT     H227780   9.755   3.088   6.210
 9180WAT      O27781   8.299   9.299   4.956
 9180WAT     H127782   8.314   9.365   4.883
 9180WAT     H227783   8.212   9.318   5.001
 9181WAT      O27784   3.480   0.283   6.857
 9181WAT     H127785   3.386   0.271   6.891
 9181WAT     H227786   3.502   0.380   6.856
 9182WAT      O27787   2.659   4.682   4.612
 9182WAT     H127788   2.580   4.722   4.566
 9182WAT     H227789   2.636   4.662   4.707
 9183WAT      O27790   0.211   1.351   5.412
 9183WAT     H127791   0.168   1.430   5.367
 9183WAT     H227792   0.293   1.325   5.361
 9184WAT      O27793   2.343   0.478   1.418
 9184WAT     H127794   2.322   0.567   1.377
 9184WAT     H227795   2.383   0.418   1.348
 9185WAT      O27796   6.765   2.444   4.504
 9185WAT     H127797   6.689   2.398   4.550
 9185WAT     H227798   6.850   2.396   4.524
 9186WAT      O27799   4.358   1.300   2.744
 9186WAT     H127800   4.298   1.242   2.799
 9186WAT     H227801   4.444   1.315   2.793
 9187WAT      O27802   8.058   2.320   5.063
 9187WAT     H127803   8.034   2.243   5.122
 9187WAT     H227804   7.997   2.320   4.984
 9188WAT      O27805   4.346   1.045   3.299
 9188WAT     H127806   4.362   0.991   3.382
 9188WAT     H227807   4.320   1.138   3.325
 9189WAT      O27808   1.096   9.386   0.402
 9189WAT     H127809   1.053   9.476   0.395
 9189WAT     H227810   1.194   9.394   0.386
 9190WAT      O27811   6.489   2.179   0.827
 9190WAT     H127812   6.482   2.120   0.907
 9190WAT     H227813   6.422   2.253   0.835
 9191WAT      O27814   0.567   2.272   5.091
 9191WAT     H127815   0.546   2.370   5.090
 9191WAT     H227816   0.487   2.220   5.063
 9192WAT      O27817   0.154   1.785   3.139
 9192WAT     H127818   0.113   1.862   3.091
 9192WAT     H227819   0.238   1.758   3.093
 9193WAT      O27820   2.007   4.617   0.348
 9193WAT     H127821   2.025   4.524   0.317
 9193WAT     H227822   1.912   4.641   0.330
 9194WAT      O27823   1.253   0.060   6.366
 9194WAT     H127824   1.260   0.003   6.284
 9194WAT     H227825   1.342   0.064   6.411
 9195WAT      O27826   0.633   8.770   4.774
 9195WAT     H127827   0.557   8.734   4.829
 9195WAT     H227828   0.624   8.869   4.765
 9196WAT      O27829   7.834   5.488   0.645
 9196WAT     H127830   7.774   5.480   0.725
 9196WAT     H227831   7.921   5.529   0.673
 9197WAT      O27832   2.892   0.514   6.598
 9197WAT     H127833   2.979   0.524   6.646
 9197WAT     H227834   2.875   0.417   6.581
 9198WAT      O27835   2.872   1.335   1.150
 9198WAT     H127836   2.905   1.249   1.188
 9198WAT     H227837   2.800   1.317   1.083
 9199WAT      O27838   0.159   9.155   3.405
 9199WAT     H127839   0.154   9.255   3.405
 9199WAT     H227840   0.254   9.127   3.419
 9200WAT      O27841   9.455   7.616   9.427
 9200WAT     H127842   9.522   7.550   9.462
 9200WAT     H227843   9.502   7.697   9.394
 9201WAT      O27844   9.743   5.445   4.194
 9201WAT     H127845   9.736   5.410   4.288
 9201WAT     H227846   9.767   5.542   4.195
 9202WAT      O27847   8.725   3.980   6.841
 9202WAT     H127848   8.640   3.931   6.822
 9202WAT     H227849   8.763   3.947   6.927
 9203WAT      O27850   0.424   2.792   4.662
 9203WAT     H127851   0.355   2.846   4.709
 9203WAT     H227852   0.392   2.771   4.569
 9204WAT      O27853   9.280   0.267   9.462
 9204WAT     H127854   9.194   0.217   9.455
 9204WAT     H227855   9.345   0.214   9.516
 9205WAT      O27856   7.237   8.100   4.280
 9205WAT     H127857   7.186   8.132   4.359
 9205WAT     H227858   7.320   8.156   4.269
 9206WAT      O27859   4.271   0.357   6.897
 9206WAT     H127860   4.288   0.377   6.993
 9206WAT     H227861   4.173   0.337   6.884
 9207WAT      O27862   6.742   8.116   8.976
 9207WAT     H127863   6.810   8.184   9.000
 9207WAT     H227864   6.754   8.034   9.032
 9208WAT      O27865   5.616   0.493   3.418
 9208WAT     H127866   5.546   0.448   3.363
 9208WAT     H227867   5.577   0.571   3.466
 9209WAT      O27868   6.419   9.701   7.227
 9209WAT     H127869   6.501   9.678   7.280
 9209WAT     H227870   6.410   9.801   7.223
 9210WAT      O27871   4.868   9.431   6.472
 9210WAT     H127872   4.872   9.372   6.552
 9210WAT     H227873   4.839   9.522   6.499
 9211WAT      O27874   0.522   1.424   4.191
 9211WAT     H127875   0.600   1.431   4.254
 9211WAT     H227876   0.529   1.339   4.138
 9212WAT      O27877   9.293   1.417   8.468
 9212WAT     H127878   9.212   1.382   8.421
 9212WAT     H227879   9.265   1.471   8.548
 9213WAT      O27880   0.014   8.731   0.313
 9213WAT     H127881  -0.027   8.713   0.402
 9213WAT     H227882   0.018   8.829   0.297
 9214WAT      O27883   6.410   2.769   0.167
 9214WAT     H127884   6.464   2.719   0.234
 9214WAT     H227885   6.462   2.776   0.081
 9215WAT      O27886   2.565   3.469   1.746
 9215WAT     H127887   2.504   3.472   1.667
 9215WAT     H227888   2.635   3.539   1.737
 9216WAT      O27889   9.782   8.483   6.763
 9216WAT     H127890   9.845   8.436   6.700
 9216WAT     H227891   9.739   8.560   6.716
 9217WAT      O27892   6.467   2.049   9.466
 9217WAT     H127893   6.377   2.057   9.424
 9217WAT     H227894   6.497   2.139   9.499
 9218WAT      O27895   7.535   5.059   4.840
 9218WAT     H127896   7.481   4.998   4.899
 9218WAT     H227897   7.495   5.150   4.841
 9219WAT      O27898   4.633   9.012   8.380
 9219WAT     H127899   4.584   8.939   8.429
 9219WAT     H227900   4.731   8.995   8.385
 9220WAT      O27901   0.467   2.826   5.728
 9220WAT     H127902   0.520   2.900   5.687
 9220WAT     H227903   0.423   2.772   5.656
 9221WAT      O27904   5.178   7.411   1.088
 9221WAT     H127905   5.174   7.495   1.143
 9221WAT     H227906   5.202   7.434   0.993
 9222WAT      O27907   5.249   3.788   3.848
 9222WAT     H127908   5.164   3.742   3.874
 9222WAT     H227909   5.323   3.720   3.843
 9223WAT      O27910   5.944   9.566   3.674
 9223WAT     H127911   5.877   9.628   3.634
 9223WAT     H227912   6.032   9.578   3.629
 9224WAT      O27913   7.925   1.035   5.895
 9224WAT     H127914   7.880   0.953   5.928
 9224WAT     H227915   7.954   1.092   5.972
 9225WAT      O27916   8.386   9.310   6.626
 9225WAT     H127917   8.467   9.343   6.577
 9225WAT     H227918   8.320   9.272   6.561
 9226WAT      O27919   5.679   1.076   8.764
 9226WAT     H127920   5.767   1.095   8.722
 9226WAT     H227921   5.675   1.119   8.854
 9227WAT      O27922   4.011   9.569   0.220
 9227WAT     H127923   3.970   9.515   0.146
 9227WAT     H227924   4.104   9.597   0.194
 9228WAT      O27925   7.212   8.499   5.411
 9228WAT     H127926   7.226   8.460   5.503
 9228WAT     H227927   7.168   8.430   5.353
 9229WAT      O27928   0.654   1.788   4.398
 9229WAT     H127929   0.743   1.744   4.400
 9229WAT     H227930   0.654   1.862   4.331
 9230WAT      O27931   0.831   0.148   1.849
 9230WAT     H127932   0.902   0.196   1.900
 9230WAT     H227933   0.749   0.205   1.845
 9231WAT      O27934   0.500   9.035   1.116
 9231WAT     H127935   0.550   8.999   1.195
 9231WAT     H227936   0.419   9.084   1.148
 9232WAT      O27937   8.902   8.712   8.728
 9232WAT     H127938   8.905   8.622   8.772
 9232WAT     H227939   8.957   8.709   8.644
 9233WAT      O27940   7.696   3.320   2.599
 9233WAT     H127941   7.750   3.391   2.644
 9233WAT     H227942   7.747   3.283   2.522
 9234WAT      O27943   8.575   8.282   3.091
 9234WAT     H127944   8.615   8.353   3.149
 9234WAT     H227945   8.632   8.200   3.096
 9235WAT      O27946   2.073   0.894   1.674
 9235WAT     H127947   2.146   0.884   1.606
 9235WAT     H227948   2.112   0.927   1.760
 9236WAT      O27949   4.026   2.279   2.249
 9236WAT     H127950   3.949   2.221   2.222
 9236WAT     H227951   4.010   2.373   2.219
 9237WAT      O27952   7.927   9.401   7.294
 9237WAT     H127953   8.024   9.410   7.317
 9237WAT     H227954   7.876   9.477   7.334
 9238WAT      O27955   2.936   2.618   7.182
 9238WAT     H127956   3.002   2.546   7.205
 9238WAT     H227957   2.844   2.581   7.188
 9239WAT      O27958   6.221   4.140   0.538
 9239WAT     H127959   6.143   4.163   0.596
 9239WAT     H227960   6.190   4.128   0.444
 9240WAT      O27961   8.652   4.352   1.064
 9240WAT     H127962   8.721   4.375   1.132
 9240WAT     H227963   8.618   4.260   1.081
 9241WAT      O27964   8.267   7.215   6.575
 9241WAT     H127965   8.342   7.243   6.515
 9241WAT     H227966   8.249   7.117   6.562
 9242WAT      O27967   7.148   0.018   7.857
 9242WAT     H127968   7.150  -0.079   7.835
 9242WAT     H227969   7.094   0.067   7.788
 9243WAT      O27970   0.749   5.268   1.483
 9243WAT     H127971   0.717   5.177   1.455
 9243WAT     H227972   0.841   5.260   1.522
 9244WAT      O27973   1.765   3.311   7.751
 9244WAT     H127974   1.842   3.249   7.766
 9244WAT     H227975   1.759   3.376   7.826
 9245WAT      O27976   8.207   7.899   2.098
 9245WAT     H127977   8.306   7.888   2.089
 9245WAT     H227978   8.168   7.817   2.141
 9246WAT      O27979   8.472   1.032   1.222
 9246WAT     H127980   8.392   1.014   1.164
 9246WAT     H227981   8.554   1.040   1.165
 9247WAT      O27982   2.232   5.991   1.457
 9247WAT     H127983   2.141   5.986   1.497
 9247WAT     H227984   2.301   5.987   1.530
 9248WAT      O27985   6.361   1.712   1.161
 9248WAT     H127986   6.389   1.618   1.139
 9248WAT     H227987   6.288   1.710   1.229
 9249WAT      O27988   8.682   0.341   6.147
 9249WAT     H127989   8.596   0.291   6.157
 9249WAT     H227990   8.708   0.344   6.050
 9250WAT      O27991   2.322   2.064   9.077
 9250WAT     H127992   2.308   2.128   9.002
 9250WAT     H227993   2.263   2.089   9.154
 9251WAT      O27994   9.314   8.648   0.492
 9251WAT     H127995   9.294   8.623   0.587
 9251WAT     H227996   9.247   8.605   0.432
 9252WAT      O27997   8.203   2.877   3.960
 9252WAT     H127998   8.124   2.848   4.015
 9252WAT     H227999   8.178   2.957   3.905
 9253WAT      O28000   2.035   5.042   3.935
 9253WAT     H128001   1.948   5.029   3.886
 9253WAT     H228002   2.075   4.953   3.956
 9254WAT      O28003   9.683   0.053   9.049
 9254WAT     H128004   9.696   0.150   9.027
 9254WAT     H228005   9.674   0.001   8.964
 9255WAT      O28006   1.146   1.845   2.149
 9255WAT     H128007   1.066   1.906   2.154
 9255WAT     H228008   1.206   1.874   2.075
 9256WAT      O28009   8.367   3.759   6.306
 9256WAT     H128010   8.417   3.726   6.386
 9256WAT     H228011   8.422   3.828   6.259
 9257WAT      O28012   8.224   8.681   4.857
 9257WAT     H128013   8.253   8.597   4.811
 9257WAT     H228014   8.127   8.696   4.841
 9258WAT      O28015   8.450   0.227   6.279
 9258WAT     H128016   8.385   0.295   6.313
 9258WAT     H228017   8.438   0.141   6.330
 9259WAT      O28018   1.816   8.142   3.601
 9259WAT     H128019   1.722   8.151   3.633
 9259WAT     H228020   1.818   8.082   3.521
 9260WAT      O28021   4.494   3.459   0.622
 9260WAT     H128022   4.410   3.513   0.610
 9260WAT     H228023   4.471   3.362   0.626
 9261WAT      O28024   2.993   7.882   3.967
 9261WAT     H128025   2.931   7.901   4.043
 9261WAT     H228026   2.941   7.868   3.883
 9262WAT      O28027   9.597   7.431   3.791
 9262WAT     H128028   9.609   7.524   3.825
 9262WAT     H228029   9.657   7.416   3.713
 9263WAT      O28030   7.480   6.984   9.769
 9263WAT     H128031   7.445   6.891   9.755
 9263WAT     H228032   7.567   6.994   9.720
 9264WAT      O28033   3.608   0.816   7.253
 9264WAT     H128034   3.702   0.823   7.221
 9264WAT     H228035   3.604   0.751   7.329
 9265WAT      O28036   7.120   1.697   6.336
 9265WAT     H128037   7.129   1.796   6.350
 9265WAT     H228038   7.181   1.668   6.262
 9266WAT      O28039   6.409   3.697   0.974
 9266WAT     H128040   6.420   3.743   1.063
 9266WAT     H228041   6.363   3.759   0.910
 9267WAT      O28042   6.930   7.641   7.365
 9267WAT     H128043   6.991   7.720   7.365
 9267WAT     H228044   6.941   7.590   7.280
 9268WAT      O28045   3.609   4.475   9.708
 9268WAT     H128046   3.537   4.542   9.692
 9268WAT     H228047   3.572   4.383   9.699
 9269WAT      O28048   3.134   0.442   1.997
 9269WAT     H128049   3.071   0.481   2.063
 9269WAT     H228050   3.211   0.400   2.044
 9270WAT      O28051   7.346   2.811   8.560
 9270WAT     H128052   7.267   2.842   8.507
 9270WAT     H228053   7.346   2.855   8.649
 9271WAT      O28054   0.275   2.219   5.281
 9271WAT     H128055   0.336   2.269   5.342
 9271WAT     H228056   0.216   2.159   5.335
 9272WAT      O28057   6.729   5.766   4.442
 9272WAT     H128058   6.709   5.853   4.487
 9272WAT     H228059   6.670   5.756   4.361
 9273WAT      O28060   9.467   1.139   3.034
 9273WAT     H128061   9.449   1.084   2.952
 9273WAT     H228062   9.391   1.201   3.050
 9274WAT      O28063   1.787   4.668   3.270
 9274WAT     H128064   1.869   4.623   3.303
 9274WAT     H228065   1.812   4.748   3.216
 9275WAT      O28066   5.715   5.454   8.341
 9275WAT     H128067   5.808   5.482   8.322
 9275WAT     H228068   5.695   5.469   8.438
 9276WAT      O28069   3.600   4.976   9.667
 9276WAT     H128070   3.598   4.960   9.766
 9276WAT     H228071   3.517   4.937   9.626
 9277WAT      O28072   9.265   2.066   4.265
 9277WAT     H128073   9.249   2.007   4.185
 9277WAT     H228074   9.361   2.060   4.292
 9278WAT      O28075   3.747   2.206   5.290
 9278WAT     H128076   3.756   2.116   5.247
 9278WAT     H228077   3.765   2.277   5.221
 9279WAT      O28078   6.092   3.730   8.903
 9279WAT     H128079   6.016   3.756   8.962
 9279WAT     H228080   6.135   3.647   8.939
 9280WAT      O28081   6.433   3.278   2.974
 9280WAT     H128082   6.376   3.358   2.955
 9280WAT     H228083   6.527   3.307   2.990
 9281WAT      O28084   6.851   4.112   8.729
 9281WAT     H128085   6.874   4.075   8.819
 9281WAT     H228086   6.920   4.083   8.663
 9282WAT      O28087   7.748   0.359   9.434
 9282WAT     H128088   7.766   0.328   9.527
 9282WAT     H228089   7.800   0.303   9.370
 9283WAT      O28090   6.652   7.447   7.072
 9283WAT     H128091   6.659   7.348   7.080
 9283WAT     H228092   6.577   7.480   7.129
 9284WAT      O28093   5.213   7.345   8.366
 9284WAT     H128094   5.164   7.422   8.324
 9284WAT     H228095   5.298   7.377   8.406
 9285WAT      O28096   4.425   0.873   1.500
 9285WAT     H128097   4.406   0.952   1.559
 9285WAT     H228098   4.505   0.824   1.535
 9286WAT      O28099   9.080   4.442   2.593
 9286WAT     H128100   9.006   4.499   2.630
 9286WAT     H228101   9.079   4.353   2.637
 9287WAT      O28102   9.242   1.456   2.878
 9287WAT     H128103   9.330   1.486   2.841
 9287WAT     H228104   9.173   1.526   2.862
 9288WAT      O28105   5.866   5.830   9.158
 9288WAT     H128106   5.932   5.862   9.226
 9288WAT     H228107   5.788   5.788   9.204
 9289WAT      O28108   8.177   5.555   3.892
 9289WAT     H128109   8.261   5.608   3.905
 9289WAT     H228110   8.099   5.617   3.886
 9290WAT      O28111   8.742   7.166   3.367
 9290WAT     H128112   8.644   7.163   3.385
 9290WAT     H228113   8.768   7.257   3.336
 9291WAT      O28114   8.738   1.981   7.676
 9291WAT     H128115   8.672   2.015   7.743
 9291WAT     H228116   8.825   2.027   7.688
 9292WAT      O28117   5.258   7.218   8.809
 9292WAT     H128118   5.350   7.204   8.771
 9292WAT     H228119   5.192   7.167   8.754
 9293WAT      O28120   7.473   8.434   5.360
 9293WAT     H128121   7.504   8.484   5.279
 9293WAT     H228122   7.374   8.449   5.372
 9294WAT      O28123   0.612   6.503   5.155
 9294WAT     H128124   0.515   6.515   5.175
 9294WAT     H228125   0.624   6.479   5.059
 9295WAT      O28126   2.531   5.153   9.675
 9295WAT     H128127   2.446   5.107   9.698
 9295WAT     H228128   2.608   5.100   9.711
 9296WAT      O28129   6.260   8.260   6.284
 9296WAT     H128130   6.274   8.170   6.325
 9296WAT     H228131   6.165   8.269   6.255
 9297WAT      O28132   7.289   9.686   2.558
 9297WAT     H128133   7.202   9.684   2.508
 9297WAT     H228134   7.346   9.759   2.521
 9298WAT      O28135   2.259   9.201   2.066
 9298WAT     H128136   2.166   9.204   2.032
 9298WAT     H228137   2.272   9.118   2.120
 9299WAT      O28138   8.469   6.254   4.209
 9299WAT     H128139   8.477   6.349   4.239
 9299WAT     H228140   8.374   6.225   4.217
 9300WAT      O28141   0.255   4.353   0.734
 9300WAT     H128142   0.197   4.434   0.725
 9300WAT     H228143   0.287   4.325   0.643
 9301WAT      O28144   5.995   4.409   5.900
 9301WAT     H128145   5.971   4.480   5.966
 9301WAT     H228146   6.031   4.329   5.948
 9302WAT      O28147   7.348   4.087   4.273
 9302WAT     H128148   7.285   4.161   4.251
 9302WAT     H228149   7.432   4.097   4.220
 9303WAT      O28150   2.050   1.556   1.505
 9303WAT     H128151   2.123   1.564   1.573
 9303WAT     H228152   1.996   1.640   1.504
 9304WAT      O28153   6.282   5.299   5.603
 9304WAT     H128154   6.342   5.337   5.673
 9304WAT     H228155   6.274   5.200   5.615
 9305WAT      O28156   2.411   0.304   2.433
 9305WAT     H128157   2.353   0.318   2.514
 9305WAT     H228158   2.486   0.243   2.458
 9306WAT      O28159   8.399   5.368   7.752
 9306WAT     H128160   8.381   5.451   7.803
 9306WAT     H228161   8.339   5.295   7.783
 9307WAT      O28162   8.659   7.857   5.059
 9307WAT     H128163   8.654   7.831   4.963
 9307WAT     H228164   8.661   7.957   5.066
 9308WAT      O28165   2.576   8.677   7.746
 9308WAT     H128166   2.605   8.686   7.842
 9308WAT     H228167   2.526   8.591   7.734
 9309WAT      O28168   4.323   7.929   5.670
 9309WAT     H128169   4.344   7.850   5.612
 9309WAT     H228170   4.395   7.940   5.738
 9310WAT      O28171   0.474   5.416   6.375
 9310WAT     H128172   0.548   5.411   6.441
 9310WAT     H228173   0.511   5.407   6.282
 9311WAT      O28174   5.630   9.352   2.243
 9311WAT     H128175   5.644   9.350   2.342
 9311WAT     H228176   5.718   9.334   2.197
 9312WAT      O28177   5.458   2.632   0.027
 9312WAT     H128178   5.496   2.721   0.052
 9312WAT     H228179   5.362   2.644  -0.001
 9313WAT      O28180   6.990   9.142   3.373
 9313WAT     H128181   6.941   9.223   3.340
 9313WAT     H228182   6.984   9.069   3.305
 9314WAT      O28183   2.884   8.750   1.799
 9314WAT     H128184   2.807   8.809   1.774
 9314WAT     H228185   2.932   8.721   1.716
 9315WAT      O28186   1.733   9.183   2.925
 9315WAT     H128187   1.740   9.116   2.999
 9315WAT     H228188   1.766   9.142   2.840
 9316WAT      O28189   0.695   5.733   3.188
 9316WAT     H128190   0.644   5.819   3.189
 9316WAT     H228191   0.793   5.752   3.184
 9317WAT      O28192   2.131   0.165   5.037
 9317WAT     H128193   2.217   0.133   5.075
 9317WAT     H228194   2.081   0.217   5.107
 9318WAT      O28195   3.376   0.151   0.326
 9318WAT     H128196   3.434   0.164   0.407
 9318WAT     H228197   3.345   0.239   0.292
 9319WAT      O28198   2.573   9.138   7.647
 9319WAT     H128199   2.633   9.062   7.674
 9319WAT     H228200   2.485   9.102   7.616
 9320WAT      O28201   1.911   6.547   2.501
 9320WAT     H128202   1.875   6.629   2.456
 9320WAT     H228203   1.956   6.573   2.586
 9321WAT      O28204   9.251   4.953   3.834
 9321WAT     H128205   9.303   4.870   3.816
 9321WAT     H228206   9.275   4.989   3.924
 9322WAT      O28207   4.431   9.140   6.738
 9322WAT     H128208   4.521   9.114   6.772
 9322WAT     H228209   4.372   9.164   6.815
 9323WAT      O28210   9.240   3.694   0.428
 9323WAT     H128211   9.204   3.602   0.417
 9323WAT     H228212   9.169   3.761   0.405
 9324WAT      O28213   8.504   4.333   9.222
 9324WAT     H128214   8.545   4.248   9.189
 9324WAT     H228215   8.423   4.312   9.278
 9325WAT      O28216   7.560   7.477   6.487
 9325WAT     H128217   7.639   7.416   6.487
 9325WAT     H228218   7.494   7.446   6.555
 9326WAT      O28219   1.958   7.571   1.097
 9326WAT     H128220   1.932   7.561   1.001
 9326WAT     H228221   2.023   7.646   1.107
 9327WAT      O28222   9.445   4.115   3.033
 9327WAT     H128223   9.384   4.090   2.958
 9327WAT     H228224   9.531   4.065   3.025
 9328WAT      O28225   5.278   2.770   2.809
 9328WAT     H128226   5.328   2.841   2.759
 9328WAT     H228227   5.341   2.720   2.867
 9329WAT      O28228   1.472   8.654   3.807
 9329WAT     H128229   1.428   8.685   3.891
 9329WAT     H228230   1.542   8.719   3.779
 9330WAT      O28231   0.335   7.053   0.860
 9330WAT     H128232   0.289   6.969   0.888
 9330WAT     H228233   0.404   7.033   0.790
 9331WAT      O28234   7.942   7.090   1.145
 9331WAT     H128235   7.973   7.185   1.154
 9331WAT     H228236   7.884   7.067   1.222
 9332WAT      O28237   3.229   5.956   5.686
 9332WAT     H128238   3.185   5.882   5.736
 9332WAT     H228239   3.324   5.966   5.717
 9333WAT      O28240   2.145   8.850   1.574
 9333WAT     H128241   2.190   8.763   1.555
 9333WAT     H228242   2.086   8.875   1.497
 9334WAT      O28243   8.340   6.546   2.801
 9334WAT     H128244   8.324   6.451   2.827
 9334WAT     H228245   8.301   6.563   2.711
 9335WAT      O28246   2.389   2.511   8.200
 9335WAT     H128247   2.360   2.596   8.154
 9335WAT     H228248   2.467   2.472   8.151
 9336WAT      O28249   7.647   7.907   4.654
 9336WAT     H128250   7.561   7.911   4.705
 9336WAT     H228251   7.671   7.998   4.622
 9337WAT      O28252   1.187   4.871   5.900
 9337WAT     H128253   1.197   4.772   5.907
 9337WAT     H228254   1.170   4.909   5.991
 9338WAT      O28255   4.771   9.164   4.040
 9338WAT     H128256   4.732   9.220   3.967
 9338WAT     H228257   4.870   9.158   4.028
 9339WAT      O28258   6.849   2.331   2.250
 9339WAT     H128259   6.896   2.386   2.319
 9339WAT     H228260   6.905   2.327   2.167
 9340WAT      O28261   7.623   5.040   7.393
 9340WAT     H128262   7.549   5.017   7.331
 9340WAT     H228263   7.643   5.138   7.387
 9341WAT      O28264   0.938   1.212   8.949
 9341WAT     H128265   0.981   1.296   8.915
 9341WAT     H228266   0.898   1.162   8.873
 9342WAT      O28267   6.970   7.543   7.621
 9342WAT     H128268   6.981   7.444   7.628
 9342WAT     H228269   6.960   7.568   7.524
 9343WAT      O28270   7.205   9.210   4.548
 9343WAT     H128271   7.293   9.176   4.516
 9343WAT     H228272   7.143   9.221   4.471
 9344WAT      O28273   1.385   9.077   0.567
 9344WAT     H128274   1.345   9.085   0.476
 9344WAT     H228275   1.376   9.164   0.615
 9345WAT      O28276   2.599   8.394   9.573
 9345WAT     H128277   2.596   8.461   9.647
 9345WAT     H228278   2.555   8.432   9.491
 9346WAT      O28279   2.351   5.576   5.732
 9346WAT     H128280   2.444   5.610   5.714
 9346WAT     H228281   2.356   5.484   5.770
 9347WAT      O28282   3.035   2.002   5.370
 9347WAT     H128283   2.960   1.940   5.390
 9347WAT     H228284   3.122   1.956   5.386
 9348WAT      O28285   5.469   2.077   3.205
 9348WAT     H128286   5.374   2.047   3.218
 9348WAT     H228287   5.472   2.177   3.204
 9349WAT      O28288   7.295   4.081   6.857
 9349WAT     H128289   7.197   4.063   6.849
 9349WAT     H228290   7.313   4.135   6.939
 9350WAT      O28291   0.507   7.847   6.945
 9350WAT     H128292   0.502   7.907   7.025
 9350WAT     H228293   0.422   7.797   6.935
 9351WAT      O28294  -0.001   7.835   3.054
 9351WAT     H128295   0.070   7.790   3.001
 9351WAT     H228296   0.005   7.934   3.042
 9352WAT      O28297   6.263   0.594   7.782
 9352WAT     H128298   6.201   0.527   7.741
 9352WAT     H228299   6.351   0.549   7.801
 9353WAT      O28300   6.357   5.654   6.634
 9353WAT     H128301   6.423   5.580   6.619
 9353WAT     H228302   6.369   5.724   6.564
 9354WAT      O28303   6.212   0.764   1.812
 9354WAT     H128304   6.216   0.752   1.713
 9354WAT     H228305   6.168   0.684   1.853
 9355WAT      O28306   3.845   1.530   1.873
 9355WAT     H128307   3.796   1.451   1.910
 9355WAT     H228308   3.944   1.514   1.879
 9356WAT      O28309   8.833   8.001   4.385
 9356WAT     H128310   8.882   7.948   4.317
 9356WAT     H228311   8.803   7.940   4.459
 9357WAT      O28312   2.759   1.128   2.321
 9357WAT     H128313   2.661   1.114   2.333
 9357WAT     H228314   2.775   1.186   2.241
 9358WAT      O28315   2.150   7.050   5.274
 9358WAT     H128316   2.187   7.143   5.276
 9358WAT     H228317   2.090   7.040   5.194
 9359WAT      O28318   5.985   9.830   4.096
 9359WAT     H128319   6.065   9.818   4.154
 9359WAT     H228320   6.015   9.840   4.000
 9360WAT      O28321   6.243   3.648   4.529
 9360WAT     H128322   6.307   3.598   4.588
 9360WAT     H228323   6.200   3.584   4.465
 9361WAT      O28324   6.285   4.823   1.718
 9361WAT     H128325   6.279   4.839   1.816
 9361WAT     H228326   6.193   4.831   1.678
 9362WAT      O28327   8.738   7.964   5.955
 9362WAT     H128328   8.771   8.056   5.977
 9362WAT     H228329   8.639   7.962   5.962
 9363WAT      O28330   3.456   5.278   8.544
 9363WAT     H128331   3.493   5.193   8.506
 9363WAT     H228332   3.490   5.356   8.492
 9364WAT      O28333   3.683   9.309   8.057
 9364WAT     H128334   3.777   9.291   8.027
 9364WAT     H228335   3.659   9.248   8.132
 9365WAT      O28336   1.583   2.406   4.865
 9365WAT     H128337   1.524   2.410   4.784
 9365WAT     H228338   1.624   2.315   4.871
 9366WAT      O28339   4.256   6.079   0.924
 9366WAT     H128340   4.269   6.066   1.022
 9366WAT     H228341   4.259   6.177   0.903
 9367WAT      O28342   3.477   9.134   2.686
 9367WAT     H128343   3.470   9.216   2.743
 9367WAT     H228344   3.572   9.103   2.684
 9368WAT      O28345   5.162   6.988   3.956
 9368WAT     H128346   5.170   6.889   3.969
 9368WAT     H228347   5.125   7.007   3.865
 9369WAT      O28348   6.785   5.852   6.869
 9369WAT     H128349   6.846   5.885   6.797
 9369WAT     H228350   6.836   5.841   6.954
 9370WAT      O28351   4.206   8.248   9.461
 9370WAT     H128352   4.116   8.274   9.428
 9370WAT     H228353   4.246   8.323   9.512
 9371WAT      O28354   3.191   7.925   4.650
 9371WAT     H128355   3.145   7.927   4.562
 9371WAT     H228356   3.290   7.934   4.637
 9372WAT      O28357   6.491   3.440   3.310
 9372WAT     H128358   6.402   3.443   3.355
 9372WAT     H228359   6.543   3.362   3.346
 9373WAT      O28360   9.844   8.574   7.994
 9373WAT     H128361   9.825   8.545   7.900
 9373WAT     H228362   9.804   8.508   8.058
 9374WAT      O28363   9.040   9.024   0.101
 9374WAT     H128364   8.940   9.027   0.114
 9374WAT     H228365   9.074   9.116   0.084
 9375WAT      O28366   8.552   7.919   5.438
 9375WAT     H128367   8.492   7.896   5.361
 9375WAT     H228368   8.620   7.986   5.408
 9376WAT      O28369   7.414   2.143   0.023
 9376WAT     H128370   7.408   2.079  -0.054
 9376WAT     H228371   7.335   2.130   0.083
 9377WAT      O28372   6.200   7.997   2.318
 9377WAT     H128373   6.174   7.984   2.414
 9377WAT     H228374   6.168   7.919   2.264
 9378WAT      O28375   3.289   6.471   6.615
 9378WAT     H128376   3.345   6.553   6.602
 9378WAT     H228377   3.249   6.445   6.527
 9379WAT      O28378   5.814   5.312   9.601
 9379WAT     H128379   5.770   5.222   9.609
 9379WAT     H228380   5.754   5.382   9.640
 9380WAT      O28381   3.866   2.422   9.490
 9380WAT     H128382   3.936   2.355   9.464
 9380WAT     H228383   3.889   2.461   9.579
 9381WAT      O28384   7.790   5.032   8.605
 9381WAT     H128385   7.877   5.008   8.562
 9381WAT     H228386   7.798   5.121   8.650
 9382WAT      O28387   5.197   4.324   0.205
 9382WAT     H128388   5.161   4.244   0.156
 9382WAT     H228389   5.166   4.408   0.160
 9383WAT      O28390   2.397   3.278   2.176
 9383WAT     H128391   2.428   3.369   2.149
 9383WAT     H228392   2.473   3.213   2.167
 9384WAT      O28393   7.308   0.676   4.865
 9384WAT     H128394   7.379   0.648   4.930
 9384WAT     H228395   7.258   0.596   4.834
 9385WAT      O28396   2.381   6.972   5.658
 9385WAT     H128397   2.324   6.902   5.700
 9385WAT     H228398   2.325   7.050   5.633
 9386WAT      O28399   2.419   1.150   7.968
 9386WAT     H128400   2.378   1.110   7.886
 9386WAT     H228401   2.517   1.160   7.954
 9387WAT      O28402   2.284   5.632   2.600
 9387WAT     H128403   2.185   5.629   2.590
 9387WAT     H228404   2.325   5.560   2.543
 9388WAT      O28405   0.428   1.238   6.121
 9388WAT     H128406   0.397   1.144   6.136
 9388WAT     H228407   0.348   1.297   6.107
 9389WAT      O28408   6.808   6.488   2.696
 9389WAT     H128409   6.907   6.488   2.703
 9389WAT     H228410   6.781   6.510   2.602
 9390WAT      O28411   9.105   1.883   3.504
 9390WAT     H128412   9.165   1.824   3.449
 9390WAT     H228413   9.060   1.950   3.445
 9391WAT      O28414   0.863   2.766   3.266
 9391WAT     H128415   0.886   2.849   3.316
 9391WAT     H228416   0.775   2.777   3.221
 9392WAT      O28417   0.670   6.143   6.664
 9392WAT     H128418   0.645   6.072   6.729
 9392WAT     H228419   0.588   6.193   6.636
 9393WAT      O28420   5.601   5.412   6.259
 9393WAT     H128421   5.700   5.422   6.259
 9393WAT     H228422   5.577   5.316   6.243
 9394WAT      O28423   5.431   6.363   2.904
 9394WAT     H128424   5.463   6.324   2.990
 9394WAT     H228425   5.357   6.307   2.866
 9395WAT      O28426   6.002   3.101   1.010
 9395WAT     H128427   6.014   3.147   1.098
 9395WAT     H228428   6.054   3.015   1.011
 9396WAT      O28429   2.871   3.570   7.443
 9396WAT     H128430   2.889   3.515   7.524
 9396WAT     H228431   2.895   3.517   7.361
 9397WAT      O28432   3.834   9.803   8.138
 9397WAT     H128433   3.900   9.752   8.193
 9397WAT     H228434   3.769   9.849   8.198
 9398WAT      O28435   3.597   5.004   8.172
 9398WAT     H128436   3.690   5.034   8.189
 9398WAT     H228437   3.595   4.904   8.162
 9399WAT      O28438   0.168   2.724   1.404
 9399WAT     H128439   0.087   2.697   1.352
 9399WAT     H228440   0.179   2.663   1.483
 9400WAT      O28441   6.799   9.772   8.852
 9400WAT     H128442   6.726   9.836   8.829
 9400WAT     H228443   6.780   9.730   8.941
 9401WAT      O28444   4.463   1.883   3.769
 9401WAT     H128445   4.377   1.875   3.719
 9401WAT     H228446   4.450   1.940   3.850
 9402WAT      O28447   9.328   6.898   2.249
 9402WAT     H128448   9.234   6.909   2.280
 9402WAT     H228449   9.386   6.871   2.326
 9403WAT      O28450   0.400   4.650   7.530
 9403WAT     H128451   0.308   4.615   7.548
 9403WAT     H228452   0.465   4.607   7.592
 9404WAT      O28453   0.180   8.115   6.746
 9404WAT     H128454   0.213   8.131   6.839
 9404WAT     H228455   0.257   8.098   6.685
 9405WAT      O28456   7.934   1.708   9.693
 9405WAT     H128457   7.948   1.609   9.690
 9405WAT     H228458   7.883   1.737   9.612
 9406WAT      O28459   1.341   7.036   9.631
 9406WAT     H128460   1.255   7.076   9.662
 9406WAT     H228461   1.349   7.048   9.532
 9407WAT      O28462   2.494   8.925   4.526
 9407WAT     H128463   2.513   8.863   4.450
 9407WAT     H228464   2.395   8.935   4.536
 9408WAT      O28465   2.285   0.900   3.382
 9408WAT     H128466   2.383   0.896   3.361
 9408WAT     H228467   2.273   0.921   3.479
 9409WAT      O28468   1.415   9.736   2.880
 9409WAT     H128469   1.451   9.698   2.794
 9409WAT     H228470   1.360   9.817   2.860
 9410WAT      O28471   5.913   3.721   4.122
 9410WAT     H128472   5.855   3.794   4.157
 9410WAT     H228473   6.002   3.759   4.097
 9411WAT      O28474   8.112   7.139   3.542
 9411WAT     H128475   8.150   7.186   3.622
 9411WAT     H228476   8.124   7.197   3.461
 9412WAT      O28477   1.990   4.682   8.748
 9412WAT     H128478   2.046   4.751   8.701
 9412WAT     H228479   1.948   4.722   8.828
 9413WAT      O28480   2.403   7.503   9.886
 9413WAT     H128481   2.498   7.515   9.860
 9413WAT     H228482   2.359   7.437   9.825
 9414WAT      O28483   9.159   5.385   0.225
 9414WAT     H128484   9.156   5.302   0.169
 9414WAT     H228485   9.212   5.455   0.178
 9415WAT      O28486   5.444   6.260   3.159
 9415WAT     H128487   5.383   6.182   3.177
 9415WAT     H228488   5.412   6.339   3.211
 9416WAT      O28489   3.407   2.767   9.666
 9416WAT     H128490   3.422   2.803   9.758
 9416WAT     H228491   3.483   2.707   9.641
 9417WAT      O28492   5.714   1.614   3.712
 9417WAT     H128493   5.764   1.641   3.794
 9417WAT     H228494   5.736   1.519   3.688
 9418WAT      O28495   9.472   5.776   0.550
 9418WAT     H128496   9.376   5.803   0.560
 9418WAT     H228497   9.530   5.855   0.570
 9419WAT      O28498   1.949   8.482   0.784
 9419WAT     H128499   2.038   8.501   0.826
 9419WAT     H228500   1.877   8.529   0.834
 9420WAT      O28501   6.275   5.662   1.597
 9420WAT     H128502   6.322   5.615   1.672
 9420WAT     H228503   6.331   5.657   1.514
 9421WAT      O28504   2.702   5.466   9.292
 9421WAT     H128505   2.629   5.432   9.351
 9421WAT     H228506   2.791   5.439   9.331
 9422WAT      O28507   1.219   9.809   6.112
 9422WAT     H128508   1.139   9.783   6.058
 9422WAT     H228509   1.266   9.886   6.069
 9423WAT      O28510   1.975   4.941   4.933
 9423WAT     H128511   2.039   4.908   5.002
 9423WAT     H228512   1.890   4.969   4.977
 9424WAT      O28513   9.287   9.081   8.530
 9424WAT     H128514   9.229   9.032   8.595
 9424WAT     H228515   9.293   9.030   8.445
 9425WAT      O28516   5.093   9.574   0.109
 9425WAT     H128517   5.178   9.591   0.158
 9425WAT     H228518   5.076   9.647   0.043
 9426WAT      O28519   2.766   8.408   5.134
 9426WAT     H128520   2.811   8.497   5.132
 9426WAT     H228521   2.667   8.420   5.135
 9427WAT      O28522   6.586   7.764   2.229
 9427WAT     H128523   6.537   7.850   2.217
 9427WAT     H228524   6.679   7.773   2.193
 9428WAT      O28525   7.061   0.863   5.555
 9428WAT     H128526   7.055   0.962   5.538
 9428WAT     H228527   7.145   0.843   5.604
 9429WAT      O28528   0.752   5.474   3.273
 9429WAT     H128529   0.731   5.569   3.250
 9429WAT     H228530   0.668   5.420   3.275
 9430WAT      O28531   9.187   1.044   7.552
 9430WAT     H128532   9.270   1.068   7.501
 9430WAT     H228533   9.122   1.120   7.546
 9431WAT      O28534   4.005   4.398   0.460
 9431WAT     H128535   3.960   4.340   0.391
 9431WAT     H228536   3.971   4.373   0.550
 9432WAT      O28537   5.806   0.690   9.030
 9432WAT     H128538   5.782   0.785   9.047
 9432WAT     H228539   5.860   0.655   9.106
 9433WAT      O28540   0.472   0.711   5.339
 9433WAT     H128541   0.455   0.658   5.422
 9433WAT     H228542   0.570   0.720   5.324
 9434WAT      O28543   2.122   9.580   6.798
 9434WAT     H128544   2.141   9.541   6.708
 9434WAT     H228545   2.148   9.515   6.869
 9435WAT      O28546   3.197   0.352   0.202
 9435WAT     H128547   3.128   0.293   0.161
 9435WAT     H228548   3.152   0.417   0.263
 9436WAT      O28549   1.724   6.792   7.523
 9436WAT     H128550   1.796   6.728   7.550
 9436WAT     H228551   1.676   6.824   7.605
 9437WAT      O28552   9.235   7.704   9.571
 9437WAT     H128553   9.284   7.622   9.542
 9437WAT     H228554   9.281   7.785   9.534
 9438WAT      O28555   5.783   2.510   0.344
 9438WAT     H128556   5.794   2.458   0.259
 9438WAT     H228557   5.712   2.468   0.400
 9439WAT      O28558   7.658   5.058   6.968
 9439WAT     H128559   7.744   5.107   6.960
 9439WAT     H228560   7.591   5.096   6.904
 9440WAT      O28561   7.275   7.114   1.313
 9440WAT     H128562   7.318   7.055   1.381
 9440WAT     H228563   7.344   7.149   1.250
 9441WAT      O28564   7.668   0.288   2.050
 9441WAT     H128565   7.633   0.209   2.101
 9441WAT     H228566   7.768   0.288   2.053
 9442WAT      O28567   7.935   0.137   0.626
 9442WAT     H128568   7.969   0.164   0.716
 9442WAT     H228569   7.882   0.211   0.586
 9443WAT      O28570   1.974   0.225   7.318
 9443WAT     H128571   1.992   0.231   7.220
 9443WAT     H228572   1.967   0.318   7.356
 9444WAT      O28573   4.841   2.497   7.663
 9444WAT     H128574   4.897   2.455   7.735
 9444WAT     H228575   4.795   2.577   7.699
 9445WAT      O28576   8.351   7.427   0.010
 9445WAT     H128577   8.269   7.414   0.065
 9445WAT     H228578   8.326   7.462  -0.080
 9446WAT      O28579   9.180   4.297   7.390
 9446WAT     H128580   9.197   4.203   7.361
 9446WAT     H228581   9.242   4.359   7.341
 9447WAT      O28582   9.771   9.367   4.904
 9447WAT     H128583   9.859   9.323   4.921
 9447WAT     H228584   9.706   9.298   4.871
 9448WAT      O28585   5.243   5.716   6.404
 9448WAT     H128586   5.316   5.658   6.438
 9448WAT     H228587   5.166   5.715   6.468
 9449WAT      O28588   2.983   8.142   1.101
 9449WAT     H128589   3.058   8.201   1.130
 9449WAT     H228590   2.980   8.138   1.001
 9450WAT      O28591   2.061   0.919   9.653
 9450WAT     H128592   1.990   0.946   9.718
 9450WAT     H228593   2.020   0.866   9.578
 9451WAT      O28594   3.037   1.911   9.467
 9451WAT     H128595   2.974   1.852   9.417
 9451WAT     H228596   3.049   1.997   9.416
 9452WAT      O28597   3.335   8.780   7.142
 9452WAT     H128598   3.244   8.805   7.110
 9452WAT     H228599   3.400   8.853   7.120
 9453WAT      O28600   5.877   1.640   5.267
 9453WAT     H128601   5.795   1.585   5.279
 9453WAT     H228602   5.869   1.694   5.183
 9454WAT      O28603   9.124   5.349   9.327
 9454WAT     H128604   9.062   5.276   9.357
 9454WAT     H228605   9.210   5.309   9.297
 9455WAT      O28606   8.790   0.935   2.609
 9455WAT     H128607   8.839   0.987   2.680
 9455WAT     H228608   8.837   0.947   2.522
 9456WAT      O28609   7.737   8.288   0.275
 9456WAT     H128610   7.659   8.349   0.277
 9456WAT     H228611   7.708   8.195   0.297
 9457WAT      O28612   4.629   3.959   2.020
 9457WAT     H128613   4.577   4.001   2.094
 9457WAT     H228614   4.573   3.954   1.937
 9458WAT      O28615   3.973   9.005   7.151
 9458WAT     H128616   3.970   9.005   7.251
 9458WAT     H228617   3.891   8.961   7.115
 9459WAT      O28618   6.827   1.793   1.652
 9459WAT     H128619   6.768   1.783   1.733
 9459WAT     H228620   6.900   1.858   1.673
 9460WAT      O28621   4.858   3.359   1.618
 9460WAT     H128622   4.766   3.371   1.656
 9460WAT     H228623   4.919   3.323   1.689
 9461WAT      O28624   1.069   7.662   8.921
 9461WAT     H128625   0.991   7.687   8.979
 9461WAT     H228626   1.048   7.686   8.826
 9462WAT      O28627   6.303   5.415   4.793
 9462WAT     H128628   6.324   5.333   4.847
 9462WAT     H228629   6.347   5.408   4.703
 9463WAT      O28630   6.056   3.428   1.877
 9463WAT     H128631   5.971   3.379   1.897
 9463WAT     H228632   6.039   3.497   1.807
 9464WAT      O28633   2.964   0.587   2.544
 9464WAT     H128634   2.933   0.506   2.594
 9464WAT     H228635   2.984   0.661   2.609
 9465WAT      O28636   6.019   8.656   5.577
 9465WAT     H128637   6.017   8.731   5.643
 9465WAT     H228638   5.936   8.658   5.520
 9466WAT      O28639   6.601   8.848   8.861
 9466WAT     H128640   6.523   8.785   8.858
 9466WAT     H228641   6.568   8.941   8.848
 9467WAT      O28642   3.663   2.608   4.035
 9467WAT     H128643   3.713   2.569   3.957
 9467WAT     H228644   3.672   2.708   4.033
 9468WAT      O28645   3.936   3.016   7.630
 9468WAT     H128646   3.845   3.031   7.593
 9468WAT     H228647   3.964   3.095   7.683
 9469WAT      O28648   6.367   9.470   0.308
 9469WAT     H128649   6.318   9.388   0.337
 9469WAT     H228650   6.365   9.538   0.381
 9470WAT      O28651   3.742   8.420   3.057
 9470WAT     H128652   3.700   8.467   2.979
 9470WAT     H228653   3.698   8.331   3.070
 9471WAT      O28654   5.170   2.340   5.533
 9471WAT     H128655   5.200   2.293   5.616
 9471WAT     H228656   5.158   2.438   5.552
 9472WAT      O28657   4.413   7.811   8.280
 9472WAT     H128658   4.497   7.783   8.233
 9472WAT     H228659   4.437   7.866   8.360
 9473WAT      O28660   5.341   9.472   4.694
 9473WAT     H128661   5.380   9.537   4.629
 9473WAT     H228662   5.244   9.491   4.707
 9474WAT      O28663   4.514   6.308   2.240
 9474WAT     H128664   4.593   6.368   2.229
 9474WAT     H228665   4.542   6.222   2.282
 9475WAT      O28666   2.120   2.653   8.909
 9475WAT     H128667   2.165   2.664   8.998
 9475WAT     H228668   2.038   2.710   8.906
 9476WAT      O28669   7.241   6.880   2.145
 9476WAT     H128670   7.235   6.971   2.104
 9476WAT     H228671   7.273   6.815   2.077
 9477WAT      O28672   4.885   0.726   4.226
 9477WAT     H128673   4.850   0.687   4.311
 9477WAT     H228674   4.833   0.689   4.149
 9478WAT      O28675   3.315   9.544   0.347
 9478WAT     H128676   3.281   9.637   0.361
 9478WAT     H228677   3.282   9.510   0.258
 9479WAT      O28678   6.324   7.026   6.772
 9479WAT     H128679   6.323   6.961   6.848
 9479WAT     H228680   6.345   6.977   6.687
 9480WAT      O28681   0.114   0.488   7.928
 9480WAT     H128682   0.136   0.538   8.012
 9480WAT     H228683   0.099   0.392   7.949
 9481WAT      O28684   9.282   2.617   7.861
 9481WAT     H128685   9.376   2.619   7.896
 9481WAT     H228686   9.284   2.619   7.761
 9482WAT      O28687   5.605   8.630   2.186
 9482WAT     H128688   5.690   8.608   2.138
 9482WAT     H228689   5.545   8.550   2.186
 9483WAT      O28690   4.585   9.631   2.916
 9483WAT     H128691   4.512   9.627   2.848
 9483WAT     H228692   4.671   9.603   2.875
 9484WAT      O28693   3.587   8.986   9.028
 9484WAT     H128694   3.658   8.966   9.096
 9484WAT     H228695   3.506   9.022   9.075
 9485WAT      O28696   6.877   8.060   0.218
 9485WAT     H128697   6.887   8.034   0.314
 9485WAT     H228698   6.799   8.011   0.178
 9486WAT      O28699   5.046   5.602   7.159
 9486WAT     H128700   5.132   5.579   7.205
 9486WAT     H228701   4.983   5.644   7.224
 9487WAT      O28702   9.466   7.211   9.856
 9487WAT     H128703   9.542   7.216   9.920
 9487WAT     H228704   9.447   7.115   9.833
 9488WAT      O28705   5.730   2.945   7.386
 9488WAT     H128706   5.664   2.882   7.427
 9488WAT     H228707   5.779   2.993   7.458
 9489WAT      O28708   0.536   7.980   2.929
 9489WAT     H128709   0.608   7.933   2.980
 9489WAT     H228710   0.568   8.070   2.900
 9490WAT      O28711   3.487   7.732   1.115
 9490WAT     H128712   3.398   7.724   1.071
 9490WAT     H228713   3.476   7.762   1.209
 9491WAT      O28714   1.204   6.248   5.898
 9491WAT     H128715   1.143   6.206   5.966
 9491WAT     H228716   1.157   6.252   5.810
 9492WAT      O28717   3.195   5.789   4.179
 9492WAT     H128718   3.210   5.750   4.088
 9492WAT     H228719   3.252   5.870   4.189
 9493WAT      O28720   1.391   1.605   0.963
 9493WAT     H128721   1.416   1.511   0.986
 9493WAT     H228722   1.452   1.668   1.011
 9494WAT      O28723   5.070   5.627   6.830
 9494WAT     H128724   4.994   5.588   6.883
 9494WAT     H228725   5.155   5.581   6.855
 9495WAT      O28726   3.057   4.924   0.836
 9495WAT     H128727   3.085   4.921   0.740
 9495WAT     H228728   3.055   4.832   0.874
 9496WAT      O28729   2.386   3.717   3.711
 9496WAT     H128730   2.398   3.621   3.687
 9496WAT     H228731   2.358   3.768   3.629
 9497WAT      O28732   5.965   5.055   8.955
 9497WAT     H128733   5.902   5.086   8.883
 9497WAT     H228734   5.966   5.122   9.029
 9498WAT      O28735   2.153   9.287   7.999
 9498WAT     H128736   2.123   9.374   7.959
 9498WAT     H228737   2.099   9.212   7.960
 9499WAT      O28738   6.067   6.802   9.454
 9499WAT     H128739   6.014   6.882   9.430
 9499WAT     H228740   6.008   6.721   9.453
 9500WAT      O28741   6.346   5.980   9.523
 9500WAT     H128742   6.270   6.033   9.486
 9500WAT     H228743   6.356   5.999   9.621
 9501WAT      O28744   9.180   6.617   7.142
 9501WAT     H128745   9.255   6.562   7.105
 9501WAT     H228746   9.206   6.652   7.232
 9502WAT      O28747   7.276   1.531   3.141
 9502WAT     H128748   7.344   1.594   3.103
 9502WAT     H228749   7.285   1.528   3.241
 9503WAT      O28750   9.778   7.004   5.930
 9503WAT     H128751   9.802   7.100   5.919
 9503WAT     H228752   9.690   6.986   5.887
 9504WAT      O28753   9.518   1.355   4.136
 9504WAT     H128754   9.533   1.258   4.116
 9504WAT     H228755   9.592   1.389   4.195
 9505WAT      O28756   1.399   3.924   9.156
 9505WAT     H128757   1.364   3.832   9.174
 9505WAT     H228758   1.410   3.937   9.058
 9506WAT      O28759   3.931   5.787   0.355
 9506WAT     H128760   4.005   5.830   0.305
 9506WAT     H228761   3.854   5.771   0.294
 9507WAT      O28762   1.089   6.690   0.758
 9507WAT     H128763   0.999   6.651   0.740
 9507WAT     H228764   1.159   6.620   0.746
 9508WAT      O28765   9.448   9.724   6.513
 9508WAT     H128766   9.530   9.723   6.457
 9508WAT     H228767   9.473   9.734   6.609
 9509WAT      O28768   2.817   1.051   5.006
 9509WAT     H128769   2.788   0.961   5.038
 9509WAT     H228770   2.739   1.100   4.969
 9510WAT      O28771   6.950   2.552   6.924
 9510WAT     H128772   6.969   2.550   6.826
 9510WAT     H228773   6.855   2.523   6.940
 9511WAT      O28774   1.775   6.352   8.903
 9511WAT     H128775   1.789   6.402   8.817
 9511WAT     H228776   1.689   6.380   8.944
 9512WAT      O28777   0.970   9.576   1.903
 9512WAT     H128778   0.973   9.569   2.002
 9512WAT     H228779   1.014   9.661   1.874
 9513WAT      O28780   1.710   7.452   1.829
 9513WAT     H128781   1.785   7.389   1.811
 9513WAT     H228782   1.734   7.543   1.794
 9514WAT      O28783   3.811   1.294   0.158
 9514WAT     H128784   3.835   1.229   0.230
 9514WAT     H228785   3.800   1.385   0.199
 9515WAT      O28786   4.885   5.359   5.274
 9515WAT     H128787   4.985   5.359   5.271
 9515WAT     H228788   4.854   5.375   5.368
 9516WAT      O28789   3.917   9.789   6.337
 9516WAT     H128790   3.868   9.860   6.287
 9516WAT     H228791   3.855   9.712   6.356
 9517WAT      O28792   7.921   9.807   3.399
 9517WAT     H128793   7.892   9.714   3.424
 9517WAT     H228794   7.924   9.864   3.481
 9518WAT      O28795   8.740   9.264   9.124
 9518WAT     H128796   8.685   9.336   9.082
 9518WAT     H228797   8.692   9.225   9.202
 9519WAT      O28798   9.528   1.860   7.379
 9519WAT     H128799   9.442   1.809   7.372
 9519WAT     H228800   9.528   1.936   7.313
 9520WAT      O28801   7.175   7.538   4.309
 9520WAT     H128802   7.179   7.439   4.322
 9520WAT     H228803   7.133   7.580   4.390
 9521WAT      O28804   7.876   7.328   1.695
 9521WAT     H128805   7.903   7.280   1.611
 9521WAT     H228806   7.817   7.405   1.672
 9522WAT      O28807   0.488   6.809   7.859
 9522WAT     H128808   0.461   6.857   7.776
 9522WAT     H228809   0.558   6.862   7.907
 9523WAT      O28810   0.925   6.106   7.787
 9523WAT     H128811   1.003   6.109   7.850
 9523WAT     H228812   0.931   6.023   7.732
 9524WAT      O28813   8.589   0.174   7.152
 9524WAT     H128814   8.545   0.140   7.235
 9524WAT     H228815   8.684   0.144   7.150
 9525WAT      O28816   8.473   1.373   5.107
 9525WAT     H128817   8.416   1.299   5.071
 9525WAT     H228818   8.440   1.460   5.072
 9526WAT      O28819   5.597   9.754   2.081
 9526WAT     H128820   5.565   9.806   2.159
 9526WAT     H228821   5.696   9.766   2.070
 9527WAT      O28822   2.138   2.107   2.920
 9527WAT     H128823   2.212   2.163   2.883
 9527WAT     H228824   2.172   2.053   2.998
 9528WAT      O28825   6.618   9.484   4.641
 9528WAT     H128826   6.601   9.563   4.583
 9528WAT     H228827   6.672   9.512   4.721
 9529WAT      O28828   5.942   9.353   3.073
 9529WAT     H128829   5.879   9.427   3.095
 9529WAT     H228830   5.890   9.269   3.056
 9530WAT      O28831   6.138   3.077   2.632
 9530WAT     H128832   6.208   3.071   2.560
 9530WAT     H228833   6.126   3.172   2.660
 9531WAT      O28834   6.626   2.189   8.980
 9531WAT     H128835   6.636   2.227   8.888
 9531WAT     H228836   6.590   2.260   9.041
 9532WAT      O28837   1.088   8.981   3.679
 9532WAT     H128838   1.017   8.926   3.636
 9532WAT     H228839   1.165   8.991   3.616
 9533WAT      O28840   9.716   3.904   3.377
 9533WAT     H128841   9.673   3.819   3.408
 9533WAT     H228842   9.750   3.891   3.283
 9534WAT      O28843   7.737   6.012   3.992
 9534WAT     H128844   7.659   5.968   4.035
 9534WAT     H228845   7.711   6.044   3.900
 9535WAT      O28846   7.358   8.100   3.607
 9535WAT     H128847   7.414   8.036   3.660
 9535WAT     H228848   7.328   8.056   3.522
 9536WAT      O28849   9.531   4.687   6.447
 9536WAT     H128850   9.605   4.754   6.456
 9536WAT     H228851   9.503   4.682   6.352
 9537WAT      O28852   3.619   2.738   5.888
 9537WAT     H128853   3.532   2.717   5.843
 9537WAT     H228854   3.688   2.757   5.818
 9538WAT      O28855   6.492   4.690   1.609
 9538WAT     H128856   6.572   4.708   1.666
 9538WAT     H228857   6.415   4.745   1.641
 9539WAT      O28858   4.885   1.951   3.682
 9539WAT     H128859   4.846   2.041   3.663
 9539WAT     H228860   4.881   1.932   3.780
 9540WAT      O28861   1.142   8.676   9.180
 9540WAT     H128862   1.098   8.698   9.267
 9540WAT     H228863   1.089   8.716   9.105
 9541WAT      O28864   6.273   1.674   3.364
 9541WAT     H128865   6.343   1.719   3.309
 9541WAT     H228866   6.287   1.697   3.461
 9542WAT      O28867   4.205   4.314   1.396
 9542WAT     H128868   4.123   4.368   1.375
 9542WAT     H228869   4.209   4.297   1.494
 9543WAT      O28870   4.236   7.465   2.157
 9543WAT     H128871   4.263   7.394   2.092
 9543WAT     H228872   4.286   7.549   2.136
 9544WAT      O28873   0.890   1.948   0.327
 9544WAT     H128874   0.965   1.952   0.261
 9544WAT     H228875   0.925   1.959   0.419
 9545WAT      O28876   7.578   2.911   7.689
 9545WAT     H128877   7.576   3.008   7.666
 9545WAT     H228878   7.563   2.857   7.606
 9546WAT      O28879   4.587   3.075   5.732
 9546WAT     H128880   4.605   3.039   5.640
 9546WAT     H228881   4.560   3.171   5.725
 9547WAT      O28882   7.999   0.553   9.082
 9547WAT     H128883   7.902   0.577   9.085
 9547WAT     H228884   8.049   0.624   9.031
 9548WAT      O28885   3.407   4.212   9.383
 9548WAT     H128886   3.425   4.139   9.317
 9548WAT     H228887   3.431   4.300   9.343
 9549WAT      O28888   1.790   6.524   5.204
 9549WAT     H128889   1.852   6.461   5.157
 9549WAT     H228890   1.697   6.488   5.201
 9550WAT      O28891   2.259   0.841   9.022
 9550WAT     H128892   2.339   0.886   9.063
 9550WAT     H228893   2.270   0.835   8.923
 9551WAT      O28894   2.480   3.113   6.189
 9551WAT     H128895   2.405   3.179   6.199
 9551WAT     H228896   2.494   3.066   6.276
 9552WAT      O28897   3.194   3.292   2.299
 9552WAT     H128898   3.118   3.227   2.298
 9552WAT     H228899   3.235   3.294   2.390
 9553WAT      O28900   7.845   7.742   4.147
 9553WAT     H128901   7.883   7.823   4.101
 9553WAT     H228902   7.769   7.769   4.206
 9554WAT      O28903   6.430   8.268   5.438
 9554WAT     H128904   6.377   8.263   5.354
 9554WAT     H228905   6.409   8.190   5.496
 9555WAT      O28906   1.370   2.969   0.561
 9555WAT     H128907   1.308   3.047   0.554
 9555WAT     H228908   1.317   2.885   0.574
 9556WAT      O28909   2.093   9.688   4.278
 9556WAT     H128910   2.021   9.735   4.329
 9556WAT     H228911   2.182   9.720   4.308
 9557WAT      O28912   0.305   3.604   9.424
 9557WAT     H128913   0.252   3.632   9.343
 9557WAT     H228914   0.391   3.563   9.395
 9558WAT      O28915   0.751   5.384   5.336
 9558WAT     H128916   0.750   5.300   5.390
 9558WAT     H228917   0.677   5.445   5.366
 9559WAT      O28918   8.705   7.153   0.570
 9559WAT     H128919   8.730   7.099   0.650
 9559WAT     H228920   8.662   7.094   0.501
 9560WAT      O28921   1.154   7.820   3.192
 9560WAT     H128922   1.135   7.731   3.150
 9560WAT     H228923   1.253   7.835   3.194
 9561WAT      O28924   3.242   7.347   4.071
 9561WAT     H128925   3.198   7.392   4.148
 9561WAT     H228926   3.329   7.307   4.101
 9562WAT      O28927   3.796   1.840   3.277
 9562WAT     H128928   3.855   1.789   3.213
 9562WAT     H228929   3.806   1.802   3.369
 9563WAT      O28930   8.004   9.616   4.219
 9563WAT     H128931   8.052   9.638   4.134
 9563WAT     H228932   7.953   9.531   4.208
 9564WAT      O28933   2.303   5.829   2.874
 9564WAT     H128934   2.379   5.841   2.810
 9564WAT     H228935   2.306   5.901   2.943
 9565WAT      O28936   1.220   2.828   6.999
 9565WAT     H128937   1.165   2.819   6.916
 9565WAT     H228938   1.173   2.782   7.074
 9566WAT      O28939   8.827   1.646   8.945
 9566WAT     H128940   8.878   1.607   8.868
 9566WAT     H228941   8.764   1.717   8.911
 9567WAT      O28942   7.564   1.943   6.525
 9567WAT     H128943   7.520   1.952   6.435
 9567WAT     H228944   7.506   1.982   6.595
 9568WAT      O28945   8.437   2.292   0.056
 9568WAT     H128946   8.342   2.320   0.070
 9568WAT     H228947   8.467   2.319  -0.035
 9569WAT      O28948   6.108   7.462   8.625
 9569WAT     H128949   6.093   7.363   8.631
 9569WAT     H228950   6.202   7.483   8.651
 9570WAT      O28951   7.053   6.481   4.001
 9570WAT     H128952   7.081   6.393   3.965
 9570WAT     H228953   7.007   6.468   4.089
 9571WAT      O28954   5.700   5.414   8.072
 9571WAT     H128955   5.700   5.409   8.172
 9571WAT     H228956   5.711   5.322   8.034
 9572WAT      O28957   5.497   3.988   0.323
 9572WAT     H128958   5.514   3.894   0.292
 9572WAT     H228959   5.409   3.992   0.370
 9573WAT      O28960   4.108   3.712   5.843
 9573WAT     H128961   4.018   3.669   5.850
 9573WAT     H228962   4.174   3.663   5.900
 9574WAT      O28963   6.312   0.750   1.097
 9574WAT     H128964   6.381   0.781   1.161
 9574WAT     H228965   6.311   0.809   1.016
 9575WAT      O28966   0.834   1.150   5.244
 9575WAT     H128967   0.873   1.237   5.215
 9575WAT     H228968   0.786   1.107   5.168
 9576WAT      O28969   7.139   3.299   3.983
 9576WAT     H128970   7.153   3.200   3.989
 9576WAT     H228971   7.223   3.343   3.953
 9577WAT      O28972   5.127   8.874   2.444
 9577WAT     H128973   5.039   8.922   2.447
 9577WAT     H228974   5.180   8.895   2.526
 9578WAT      O28975   4.332   3.206   1.331
 9578WAT     H128976   4.315   3.290   1.383
 9578WAT     H228977   4.414   3.161   1.366
 9579WAT      O28978   9.056   9.431   2.518
 9579WAT     H128979   9.075   9.386   2.430
 9579WAT     H228980   8.997   9.510   2.502
 9580WAT      O28981   1.705   5.795   5.767
 9580WAT     H128982   1.707   5.724   5.696
 9580WAT     H228983   1.766   5.768   5.842
 9581WAT      O28984   9.373   8.237   1.201
 9581WAT     H128985   9.325   8.213   1.285
 9581WAT     H228986   9.361   8.164   1.134
 9582WAT      O28987   0.113   3.280   1.428
 9582WAT     H128988   0.181   3.241   1.365
 9582WAT     H228989   0.076   3.207   1.485
 9583WAT      O28990   3.426   1.983   3.041
 9583WAT     H128991   3.343   2.026   3.007
 9583WAT     H228992   3.423   1.885   3.023
 9584WAT      O28993   2.113   4.989   3.166
 9584WAT     H128994   2.069   5.071   3.201
 9584WAT     H228995   2.179   4.955   3.234
 9585WAT      O28996   3.142   6.662   5.474
 9585WAT     H128997   3.179   6.709   5.394
 9585WAT     H228998   3.159   6.717   5.556
 9586WAT      O28999   3.649   4.452   3.024
 9586WAT     H129000   3.587   4.394   2.970
 9586WAT     H229001   3.618   4.454   3.119
 9587WAT      O29002   9.563   9.390   7.603
 9587WAT     H129003   9.615   9.304   7.600
 9587WAT     H229004   9.611   9.459   7.549
 9588WAT      O29005   5.567   6.324   6.428
 9588WAT     H129006   5.551   6.247   6.366
 9588WAT     H229007   5.658   6.362   6.411
 9589WAT      O29008   7.019   1.163   4.011
 9589WAT     H129009   7.087   1.100   4.049
 9589WAT     H229010   6.992   1.133   3.919
 9590WAT      O29011   1.164   9.496   7.284
 9590WAT     H129012   1.205   9.464   7.370
 9590WAT     H229013   1.078   9.448   7.269
 9591WAT      O29014   3.996   4.489   1.649
 9591WAT     H129015   4.003   4.565   1.584
 9591WAT     H229016   3.942   4.518   1.728
 9592WAT      O29017   4.013   9.842   4.003
 9592WAT     H129018   3.935   9.789   4.036
 9592WAT     H229019   4.085   9.780   3.972
 9593WAT      O29020   2.247   0.188   4.057
 9593WAT     H129021   2.238   0.095   4.022
 9593WAT     H229022   2.329   0.231   4.019
 9594WAT      O29023   4.406   7.388   8.779
 9594WAT     H129024   4.492   7.343   8.756
 9594WAT     H229025   4.395   7.470   8.724
 9595WAT      O29026   4.279   8.093   3.689
 9595WAT     H129027   4.316   8.061   3.776
 9595WAT     H229028   4.343   8.072   3.615
 9596WAT      O29029   3.564   2.978   0.045
 9596WAT     H129030   3.661   2.966   0.027
 9596WAT     H229031   3.551   3.043   0.120
 9597WAT      O29032   3.785   8.284   1.634
 9597WAT     H129033   3.726   8.347   1.582
 9597WAT     H229034   3.825   8.217   1.571
 9598WAT      O29035   2.702   2.369   0.350
 9598WAT     H129036   2.789   2.419   0.342
 9598WAT     H229037   2.708   2.284   0.298
 9599WAT      O29038   0.054   7.560   1.861
 9599WAT     H129039   0.097   7.470   1.860
 9599WAT     H229040   0.116   7.627   1.819
 9600WAT      O29041   5.626   0.892   9.126
 9600WAT     H129042   5.643   0.989   9.141
 9600WAT     H229043   5.528   0.873   9.132
 9601WAT      O29044   8.659   2.349   1.514
 9601WAT     H129045   8.744   2.367   1.564
 9601WAT     H229046   8.598   2.428   1.522
 9602WAT      O29047   4.594   4.310   9.828
 9602WAT     H129048   4.558   4.284   9.918
 9602WAT     H229049   4.518   4.327   9.765
 9603WAT      O29050   8.730   7.340   2.742
 9603WAT     H129051   8.667   7.285   2.688
 9603WAT     H229052   8.824   7.314   2.720
 9604WAT      O29053   4.572   9.299   0.474
 9604WAT     H129054   4.562   9.237   0.552
 9604WAT     H229055   4.538   9.254   0.391
 9605WAT      O29056   5.022   8.830   5.412
 9605WAT     H129057   4.967   8.914   5.406
 9605WAT     H229058   5.043   8.811   5.508
 9606WAT      O29059   9.806   1.570   2.262
 9606WAT     H129060   9.743   1.556   2.339
 9606WAT     H229061   9.842   1.482   2.232
 9607WAT      O29062   9.624   7.716   3.826
 9607WAT     H129063   9.576   7.690   3.741
 9607WAT     H229064   9.633   7.815   3.830
 9608WAT      O29065   0.803   5.699   8.709
 9608WAT     H129066   0.802   5.767   8.782
 9608WAT     H229067   0.778   5.610   8.746
 9609WAT      O29068   7.166   7.642   0.659
 9609WAT     H129069   7.089   7.623   0.599
 9609WAT     H229070   7.249   7.655   0.604
 9610WAT      O29071   5.961   8.442   1.509
 9610WAT     H129072   6.035   8.429   1.575
 9610WAT     H229073   5.876   8.460   1.558
 9611WAT      O29074   5.245   1.215   0.985
 9611WAT     H129075   5.179   1.290   0.992
 9611WAT     H229076   5.266   1.180   1.077
 9612WAT      O29077   2.206   7.644   5.418
 9612WAT     H129078   2.205   7.686   5.327
 9612WAT     H229079   2.300   7.622   5.443
 9613WAT      O29080   4.009   6.941   2.710
 9613WAT     H129081   3.940   6.879   2.748
 9613WAT     H229082   3.964   7.008   2.651
 9614WAT      O29083   9.022   1.181   0.818
 9614WAT     H129084   9.112   1.160   0.854
 9614WAT     H229085   8.984   1.260   0.867
 9615WAT      O29086   7.975   3.158   2.998
 9615WAT     H129087   7.890   3.106   2.987
 9615WAT     H229088   7.959   3.253   2.971
 9616WAT      O29089   3.634   9.385   4.940
 9616WAT     H129090   3.733   9.377   4.931
 9616WAT     H229091   3.611   9.406   5.035
 9617WAT      O29092   3.485   5.584   5.907
 9617WAT     H129093   3.504   5.636   5.825
 9617WAT     H229094   3.388   5.593   5.931
 9618WAT      O29095   7.305   9.777   6.469
 9618WAT     H129096   7.309   9.859   6.412
 9618WAT     H229097   7.352   9.794   6.556
 9619WAT      O29098   8.750   8.105   3.750
 9619WAT     H129099   8.810   8.032   3.781
 9619WAT     H229100   8.791   8.193   3.773
 9620WAT      O29101   9.673   5.124   3.957
 9620WAT     H129102   9.766   5.151   3.984
 9620WAT     H229103   9.671   5.026   3.937
 9621WAT      O29104   0.225   1.478   2.405
 9621WAT     H129105   0.224   1.569   2.445
 9621WAT     H229106   0.137   1.434   2.422
 9622WAT      O29107   6.025   0.933   2.359
 9622WAT     H129108   6.041   0.842   2.398
 9622WAT     H229109   5.934   0.965   2.386
 9623WAT      O29110   5.650   0.240   4.936
 9623WAT     H129111   5.676   0.334   4.959
 9623WAT     H229112   5.586   0.206   5.004
 9624WAT      O29113   6.510   9.268   2.955
 9624WAT     H129114   6.539   9.274   2.859
 9624WAT     H229115   6.427   9.213   2.961
 9625WAT      O29116   1.363   1.217   4.716
 9625WAT     H129117   1.394   1.227   4.621
 9625WAT     H229118   1.276   1.265   4.728
 9626WAT      O29119   6.478   0.661   0.160
 9626WAT     H129120   6.461   0.584   0.222
 9626WAT     H229121   6.391   0.696   0.125
 9627WAT      O29122   7.038   0.680   5.209
 9627WAT     H129123   7.054   0.606   5.273
 9627WAT     H229124   7.043   0.645   5.115
 9628WAT      O29125   1.282   5.698   0.696
 9628WAT     H129126   1.253   5.791   0.719
 9628WAT     H229127   1.204   5.636   0.704
 9629WAT      O29128   4.700   6.471   6.876
 9629WAT     H129129   4.794   6.440   6.863
 9629WAT     H229130   4.637   6.393   6.865
 9630WAT      O29131   0.671   9.660   1.021
 9630WAT     H129132   0.708   9.573   1.053
 9630WAT     H229133   0.655   9.721   1.098
 9631WAT      O29134   9.310   1.803   2.640
 9631WAT     H129135   9.402   1.764   2.644
 9631WAT     H229136   9.276   1.799   2.546
 9632WAT      O29137   4.187   1.161   7.446
 9632WAT     H129138   4.285   1.153   7.464
 9632WAT     H229139   4.139   1.177   7.532
 9633WAT      O29140   6.923   4.453   4.056
 9633WAT     H129141   6.987   4.512   4.105
 9633WAT     H229142   6.841   4.505   4.032
 9634WAT      O29143   0.101   1.991   0.456
 9634WAT     H129144   0.062   1.916   0.404
 9634WAT     H229145   0.139   1.956   0.542
 9635WAT      O29146   6.050   7.009   0.210
 9635WAT     H129147   6.019   7.102   0.190
 9635WAT     H229148   5.994   6.943   0.161
 9636WAT      O29149   8.904   4.366   4.463
 9636WAT     H129150   8.887   4.414   4.377
 9636WAT     H229151   8.819   4.327   4.498
 9637WAT      O29152   4.434   9.247   8.886
 9637WAT     H129153   4.406   9.317   8.820
 9637WAT     H229154   4.402   9.273   8.977
 9638WAT      O29155   1.837   7.125   2.263
 9638WAT     H129156   1.873   7.162   2.177
 9638WAT     H229157   1.743   7.093   2.249
 9639WAT      O29158   9.059   8.303   9.370
 9639WAT     H129159   9.143   8.354   9.351
 9639WAT     H229160   9.077   8.205   9.362
 9640WAT      O29161   6.710   7.009   8.346
 9640WAT     H129162   6.635   7.000   8.280
 9640WAT     H229163   6.763   6.925   8.347
 9641WAT      O29164   9.535   0.560   1.430
 9641WAT     H129165   9.477   0.539   1.508
 9641WAT     H229166   9.622   0.599   1.461
 9642WAT      O29167   5.759   1.861   7.693
 9642WAT     H129168   5.855   1.879   7.714
 9642WAT     H229169   5.733   1.909   7.610
 9643WAT      O29170   0.184   5.271   7.610
 9643WAT     H129171   0.095   5.251   7.651
 9643WAT     H229172   0.182   5.361   7.567
 9644WAT      O29173   5.041   7.369   7.960
 9644WAT     H129174   5.129   7.417   7.970
 9644WAT     H229175   4.967   7.436   7.962
 9645WAT      O29176   2.372   8.109   0.687
 9645WAT     H129177   2.277   8.093   0.713
 9645WAT     H229178   2.379   8.111   0.587
 9646WAT      O29179   9.480   0.031   5.077
 9646WAT     H129180   9.539  -0.038   5.117
 9646WAT     H229181   9.406   0.053   5.141
 9647WAT      O29182   6.668   7.084   1.634
 9647WAT     H129183   6.729   7.005   1.633
 9647WAT     H229184   6.665   7.125   1.542
 9648WAT      O29185   5.563   2.397   0.441
 9648WAT     H129186   5.466   2.384   0.460
 9648WAT     H229187   5.618   2.349   0.510
 9649WAT      O29188   1.291   7.371   1.783
 9649WAT     H129189   1.253   7.450   1.735
 9649WAT     H229190   1.329   7.401   1.870
 9650WAT      O29191   0.328   0.515   5.177
 9650WAT     H129192   0.353   0.514   5.081
 9650WAT     H229193   0.381   0.585   5.225
 9651WAT      O29194   6.225   7.566   6.474
 9651WAT     H129195   6.226   7.652   6.524
 9651WAT     H229196   6.154   7.506   6.510
 9652WAT      O29197   4.109   4.642   1.891
 9652WAT     H129198   4.090   4.696   1.809
 9652WAT     H229199   4.032   4.581   1.910
 9653WAT      O29200   1.281   3.133   9.043
 9653WAT     H129201   1.355   3.186   9.001
 9653WAT     H229202   1.314   3.091   9.127
 9654WAT      O29203   3.340   2.721   3.944
 9654WAT     H129204   3.436   2.719   3.916
 9654WAT     H229205   3.284   2.680   3.872
 9655WAT      O29206   6.141   8.080   1.272
 9655WAT     H129207   6.137   7.982   1.249
 9655WAT     H229208   6.151   8.090   1.371
 9656WAT      O29209   6.285   2.965   3.545
 9656WAT     H129210   6.238   2.884   3.579
 9656WAT     H229211   6.244   2.994   3.458
 9657WAT      O29212   9.730   9.093   2.453
 9657WAT     H129213   9.818   9.092   2.406
 9657WAT     H229214   9.663   9.141   2.397
 9658WAT      O29215   7.451   0.424   6.312
 9658WAT     H129216   7.441   0.466   6.402
 9658WAT     H229217   7.487   0.331   6.322
 9659WAT      O29218   2.537   9.162   2.292
 9659WAT     H129219   2.619   9.134   2.243
 9659WAT     H229220   2.516   9.095   2.363
 9660WAT      O29221   4.834   6.066   2.916
 9660WAT     H129222   4.824   5.967   2.906
 9660WAT     H229223   4.786   6.112   2.840
 9661WAT      O29224   3.374   3.249   9.844
 9661WAT     H129225   3.276   3.238   9.860
 9661WAT     H229226   3.395   3.226   9.749
 9662WAT      O29227   8.467   3.827   3.352
 9662WAT     H129228   8.480   3.789   3.444
 9662WAT     H229229   8.497   3.922   3.351
 9663WAT      O29230   6.566   4.038   3.648
 9663WAT     H129231   6.626   4.052   3.726
 9663WAT     H229232   6.595   3.957   3.597
 9664WAT      O29233   5.814   1.469   8.550
 9664WAT     H129234   5.724   1.441   8.583
 9664WAT     H229235   5.862   1.389   8.514
 9665WAT      O29236   6.393   1.885   3.574
 9665WAT     H129237   6.303   1.928   3.575
 9665WAT     H229238   6.453   1.935   3.512
 9666WAT      O29239   6.585   1.281   2.731
 9666WAT     H129240   6.674   1.316   2.762
 9666WAT     H229241   6.529   1.357   2.699
 9667WAT      O29242   1.344   0.818   8.895
 9667WAT     H129243   1.401   0.866   8.961
 9667WAT     H229244   1.317   0.880   8.822
 9668WAT      O29245   1.955   1.877   1.324
 9668WAT     H129246   1.912   1.832   1.402
 9668WAT     H229247   1.916   1.968   1.312
 9669WAT      O29248   4.210   6.356   5.791
 9669WAT     H129249   4.293   6.346   5.845
 9669WAT     H229250   4.235   6.381   5.697
 9670WAT      O29251   7.572   4.145   4.925
 9670WAT     H129252   7.634   4.093   4.867
 9670WAT     H229253   7.563   4.100   5.013
 9671WAT      O29254   2.200   6.066   8.064
 9671WAT     H129255   2.289   6.038   8.027
 9671WAT     H229256   2.212   6.143   8.126
 9672WAT      O29257   6.916   7.486   7.139
 9672WAT     H129258   6.820   7.480   7.111
 9672WAT     H229259   6.975   7.456   7.064
 9673WAT      O29260   2.269   7.907   1.786
 9673WAT     H129261   2.346   7.965   1.814
 9673WAT     H229262   2.199   7.964   1.742
 9674WAT      O29263   3.250   6.833   0.967
 9674WAT     H129264   3.153   6.814   0.951
 9674WAT     H229265   3.287   6.886   0.891
 9675WAT      O29266   7.729   4.025   1.884
 9675WAT     H129267   7.691   4.095   1.823
 9675WAT     H229268   7.754   3.944   1.830
 9676WAT      O29269   9.579   0.025   0.554
 9676WAT     H129270   9.524   0.057   0.477
 9676WAT     H229271   9.636   0.100   0.588
 9677WAT      O29272   1.967   6.856   5.927
 9677WAT     H129273   1.927   6.766   5.911
 9677WAT     H229274   2.046   6.847   5.987
 9678WAT      O29275   7.645   2.042   3.842
 9678WAT     H129276   7.679   2.130   3.874
 9678WAT     H229277   7.593   1.998   3.915
 9679WAT      O29278   8.286   2.476   3.394
 9679WAT     H129279   8.367   2.503   3.446
 9679WAT     H229280   8.248   2.557   3.349
 9680WAT      O29281   4.403   8.389   8.678
 9680WAT     H129282   4.388   8.487   8.667
 9680WAT     H229283   4.377   8.341   8.594
 9681WAT      O29284   3.095   8.142   3.255
 9681WAT     H129285   3.148   8.081   3.196
 9681WAT     H229286   3.138   8.231   3.259
 9682WAT      O29287   2.340   2.548   3.310
 9682WAT     H129288   2.381   2.625   3.262
 9682WAT     H229289   2.392   2.465   3.292
 9683WAT      O29290   4.471   7.461   5.969
 9683WAT     H129291   4.563   7.473   6.006
 9683WAT     H229292   4.463   7.369   5.929
 9684WAT      O29293   5.790   8.994   5.512
 9684WAT     H129294   5.723   9.065   5.493
 9684WAT     H229295   5.823   8.956   5.426
 9685WAT      O29296   6.282   9.375   3.520
 9685WAT     H129297   6.250   9.332   3.604
 9685WAT     H229298   6.317   9.304   3.458
 9686WAT      O29299   4.257   3.059   7.895
 9686WAT     H129300   4.224   3.013   7.977
 9686WAT     H229301   4.231   3.006   7.814
 9687WAT      O29302   4.879   3.088   8.936
 9687WAT     H129303   4.868   3.107   8.839
 9687WAT     H229304   4.830   3.156   8.990
 9688WAT      O29305   2.014   7.792   2.700
 9688WAT     H129306   2.023   7.856   2.624
 9688WAT     H229307   2.099   7.792   2.754
 9689WAT      O29308   7.222   4.762   7.311
 9689WAT     H129309   7.205   4.809   7.398
 9689WAT     H229310   7.298   4.698   7.322
 9690WAT      O29311   6.167   4.491   5.550
 9690WAT     H129312   6.086   4.442   5.583
 9690WAT     H229313   6.248   4.457   5.597
 9691WAT      O29314   9.805   7.174   1.772
 9691WAT     H129315   9.891   7.221   1.791
 9691WAT     H229316   9.730   7.241   1.774
 9692WAT      O29317   7.624   8.185   6.150
 9692WAT     H129318   7.724   8.177   6.151
 9692WAT     H229319   7.599   8.281   6.149
 9693WAT      O29320   3.264   2.555   1.903
 9693WAT     H129321   3.191   2.603   1.951
 9693WAT     H229322   3.235   2.531   1.811
 9694WAT      O29323   6.914   8.431   3.916
 9694WAT     H129324   7.004   8.420   3.957
 9694WAT     H229325   6.924   8.451   3.818
 9695WAT      O29326   4.162   4.188   7.721
 9695WAT     H129327   4.118   4.270   7.684
 9695WAT     H229328   4.129   4.170   7.814
 9696WAT      O29329   0.859   7.327   2.304
 9696WAT     H129330   0.801   7.293   2.379
 9696WAT     H229331   0.803   7.335   2.221
 9697WAT      O29332   0.258   1.176   3.240
 9697WAT     H129333   0.332   1.176   3.172
 9697WAT     H229334   0.197   1.253   3.222
 9698WAT      O29335   5.795   8.549   5.944
 9698WAT     H129336   5.818   8.534   5.848
 9698WAT     H229337   5.853   8.492   6.002
 9699WAT      O29338   1.350   0.527   9.386
 9699WAT     H129339   1.274   0.588   9.411
 9699WAT     H229340   1.419   0.579   9.336
 9700WAT      O29341   7.697   6.696   6.455
 9700WAT     H129342   7.709   6.615   6.513
 9700WAT     H229343   7.744   6.682   6.368
 9701WAT      O29344   4.155   4.857   5.445
 9701WAT     H129345   4.181   4.799   5.368
 9701WAT     H229346   4.216   4.936   5.450
 9702WAT      O29347   0.730   8.028   5.285
 9702WAT     H129348   0.680   8.114   5.284
 9702WAT     H229349   0.671   7.955   5.250
 9703WAT      O29350   4.849   9.237   5.151
 9703WAT     H129351   4.763   9.195   5.119
 9703WAT     H229352   4.833   9.334   5.170
 9704WAT      O29353   0.956   9.219   2.525
 9704WAT     H129354   0.881   9.280   2.499
 9704WAT     H229355   0.992   9.174   2.443
 9705WAT      O29356   4.136   7.433   1.800
 9705WAT     H129357   4.086   7.398   1.721
 9705WAT     H229358   4.076   7.432   1.880
 9706WAT      O29359   1.006   2.958   5.140
 9706WAT     H129360   0.964   2.918   5.222
 9706WAT     H229361   1.095   2.997   5.165
 9707WAT      O29362   4.043   4.568   4.981
 9707WAT     H129363   3.965   4.530   4.932
 9707WAT     H229364   4.103   4.616   4.917
 9708WAT      O29365   9.410   9.088   2.178
 9708WAT     H129366   9.312   9.106   2.185
 9708WAT     H229367   9.460   9.153   2.234
 9709WAT      O29368   8.382   9.722   4.190
 9709WAT     H129369   8.431   9.690   4.271
 9709WAT     H229370   8.395   9.821   4.181
 9710WAT      O29371   9.592   0.944   0.253
 9710WAT     H129372   9.566   0.871   0.191
 9710WAT     H229373   9.516   0.965   0.314
 9711WAT      O29374   0.860   2.574   5.949
 9711WAT     H129375   0.930   2.645   5.940
 9711WAT     H229376   0.795   2.583   5.873
 9712WAT      O29377   0.502   6.532   4.378
 9712WAT     H129378   0.464   6.443   4.405
 9712WAT     H229379   0.593   6.519   4.339
 9713WAT      O29380   0.814   0.806   1.381
 9713WAT     H129381   0.845   0.807   1.476
 9713WAT     H229382   0.739   0.741   1.371
 9714WAT      O29383   7.387   1.352   1.887
 9714WAT     H129384   7.398   1.446   1.854
 9714WAT     H229385   7.432   1.343   1.976
 9715WAT      O29386   3.359   1.818   1.482
 9715WAT     H129387   3.352   1.744   1.415
 9715WAT     H229388   3.312   1.791   1.566
 9716WAT      O29389   2.478   1.499   8.631
 9716WAT     H129390   2.480   1.464   8.725
 9716WAT     H229391   2.383   1.511   8.602
 9717WAT      O29392   8.740   8.487   3.257
 9717WAT     H129393   8.752   8.579   3.293
 9717WAT     H229394   8.719   8.424   3.332
 9718WAT      O29395   5.333   1.420   2.318
 9718WAT     H129396   5.402   1.350   2.334
 9718WAT     H229397   5.341   1.492   2.387
 9719WAT      O29398   6.944   1.261   3.298
 9719WAT     H129399   6.997   1.183   3.329
 9719WAT     H229400   6.886   1.233   3.221
 9720WAT      O29401   0.992   6.267   9.753
 9720WAT     H129402   0.965   6.311   9.838
 9720WAT     H229403   1.074   6.211   9.769
 9721WAT      O29404   9.839   5.265   7.116
 9721WAT     H129405   9.891   5.351   7.121
 9721WAT     H229406   9.893   5.191   7.155
 9722WAT      O29407   6.267   8.553   6.863
 9722WAT     H129408   6.309   8.629   6.813
 9722WAT     H229409   6.318   8.537   6.948
 9723WAT      O29410   7.507   3.189   7.723
 9723WAT     H129411   7.439   3.143   7.667
 9723WAT     H229412   7.487   3.173   7.820
 9724WAT      O29413   3.790   3.700   8.560
 9724WAT     H129414   3.818   3.606   8.582
 9724WAT     H229415   3.870   3.753   8.532
 9725WAT      O29416   6.032   6.726   1.809
 9725WAT     H129417   6.078   6.768   1.886
 9725WAT     H229418   5.948   6.776   1.788
 9726WAT      O29419   7.286   4.071   0.339
 9726WAT     H129420   7.370   4.026   0.308
 9726WAT     H229421   7.213   4.054   0.272
 9727WAT      O29422   1.531   8.298   5.853
 9727WAT     H129423   1.488   8.246   5.926
 9727WAT     H229424   1.630   8.299   5.867
 9728WAT      O29425   7.046   4.014   8.495
 9728WAT     H129426   7.096   3.997   8.580
 9728WAT     H229427   7.005   3.928   8.463
 9729WAT      O29428   6.991   2.631   6.369
 9729WAT     H129429   6.969   2.707   6.308
 9729WAT     H229430   6.992   2.546   6.317
 9730WAT      O29431   0.070   8.964   8.316
 9730WAT     H129432   0.086   9.005   8.226
 9730WAT     H229433   0.078   9.035   8.386
 9731WAT      O29434   3.439   8.954   4.487
 9731WAT     H129435   3.366   8.889   4.463
 9731WAT     H229436   3.398   9.033   4.533
 9732WAT      O29437   2.859   1.033   9.563
 9732WAT     H129438   2.929   1.060   9.498
 9732WAT     H229439   2.884   0.946   9.605
 9733WAT      O29440   8.071   1.213   3.038
 9733WAT     H129441   7.992   1.270   3.014
 9733WAT     H229442   8.154   1.270   3.036
 9734WAT      O29443   5.436   5.801   9.323
 9734WAT     H129444   5.466   5.873   9.387
 9734WAT     H229445   5.517   5.758   9.283
 9735WAT      O29446   9.746   1.340   3.282
 9735WAT     H129447   9.680   1.390   3.338
 9735WAT     H229448   9.731   1.362   3.185
 9736WAT      O29449   7.802   8.091   7.795
 9736WAT     H129450   7.736   8.152   7.751
 9736WAT     H229451   7.832   8.022   7.728
 9737WAT      O29452   9.840   2.320   5.499
 9737WAT     H129453   9.789   2.287   5.579
 9737WAT     H229454   9.777   2.333   5.423
 9738WAT      O29455   0.461   6.500   8.742
 9738WAT     H129456   0.437   6.597   8.750
 9738WAT     H229457   0.559   6.490   8.728
 9739WAT      O29458   5.112   9.379   3.293
 9739WAT     H129459   5.127   9.304   3.357
 9739WAT     H229460   5.018   9.412   3.301
 9740WAT      O29461   2.479   9.559   8.692
 9740WAT     H129462   2.423   9.487   8.651
 9740WAT     H229463   2.461   9.646   8.645
 9741WAT      O29464   4.065   4.811   9.884
 9741WAT     H129465   4.125   4.891   9.881
 9741WAT     H229466   4.082   4.753   9.804
 9742WAT      O29467   8.211   1.238   7.305
 9742WAT     H129468   8.159   1.211   7.385
 9742WAT     H229469   8.283   1.302   7.332
 9743WAT      O29470   2.327   3.087   0.827
 9743WAT     H129471   2.425   3.098   0.810
 9743WAT     H229472   2.282   3.051   0.746
 9744WAT      O29473   5.461   6.575   0.597
 9744WAT     H129474   5.480   6.664   0.638
 9744WAT     H229475   5.545   6.521   0.593
 9745WAT      O29476   1.704   2.616   8.524
 9745WAT     H129477   1.652   2.646   8.444
 9745WAT     H229478   1.643   2.611   8.603
 9746WAT      O29479   4.804   8.394   9.307
 9746WAT     H129480   4.706   8.395   9.326
 9746WAT     H229481   4.837   8.488   9.292
 9747WAT      O29482   0.111   8.464   5.957
 9747WAT     H129483   0.107   8.478   5.859
 9747WAT     H229484   0.023   8.486   5.999
 9748WAT      O29485   1.684   1.037   2.094
 9748WAT     H129486   1.732   0.960   2.136
 9748WAT     H229487   1.737   1.071   2.017
 9749WAT      O29488   4.216   0.576   7.177
 9749WAT     H129489   4.151   0.501   7.168
 9749WAT     H229490   4.266   0.567   7.263
 9750WAT      O29491   6.974   0.532   5.816
 9750WAT     H129492   7.063   0.544   5.772
 9750WAT     H229493   6.909   0.597   5.777
 9751WAT      O29494   4.041   1.980   0.013
 9751WAT     H129495   4.070   1.935  -0.071
 9751WAT     H229496   4.107   1.963   0.086
 9752WAT      O29497   7.967   1.173   6.590
 9752WAT     H129498   8.029   1.163   6.512
 9752WAT     H229499   8.007   1.233   6.658
 9753WAT      O29500   4.508   1.597   2.523
 9753WAT     H129501   4.419   1.552   2.527
 9753WAT     H229502   4.576   1.534   2.485
 9754WAT      O29503   4.429   9.109   3.684
 9754WAT     H129504   4.439   9.009   3.678
 9754WAT     H229505   4.346   9.137   3.637
 9755WAT      O29506   4.022   1.531   4.906
 9755WAT     H129507   4.120   1.528   4.886
 9755WAT     H229508   3.984   1.617   4.873
 9756WAT      O29509   5.179   3.426   9.749
 9756WAT     H129510   5.117   3.483   9.805
 9756WAT     H229511   5.215   3.481   9.674
 9757WAT      O29512   2.728   9.777   4.005
 9757WAT     H129513   2.748   9.695   3.951
 9757WAT     H229514   2.765   9.765   4.097
 9758WAT      O29515   6.984   5.537   9.712
 9758WAT     H129516   6.919   5.481   9.660
 9758WAT     H229517   6.999   5.497   9.802
 9759WAT      O29518   6.171   2.749   3.705
 9759WAT     H129519   6.189   2.658   3.669
 9759WAT     H229520   6.090   2.747   3.763
 9760WAT      O29521   8.116   4.888   3.513
 9760WAT     H129522   8.066   4.928   3.436
 9760WAT     H229523   8.095   4.938   3.597
 9761WAT      O29524   0.412   2.929   7.418
 9761WAT     H129525   0.487   2.862   7.416
 9761WAT     H229526   0.420   2.991   7.340
 9762WAT      O29527   3.464   9.800   8.609
 9762WAT     H129528   3.439   9.855   8.530
 9762WAT     H229529   3.385   9.746   8.639
 9763WAT      O29530   2.763   0.057   6.303
 9763WAT     H129531   2.810   0.036   6.217
 9763WAT     H229532   2.746  -0.027   6.353
 9764WAT      O29533   4.012   7.095   8.831
 9764WAT     H129534   4.079   7.158   8.869
 9764WAT     H229535   4.036   7.001   8.858
 9765WAT      O29536   5.051   9.133   6.087
 9765WAT     H129537   4.959   9.144   6.124
 9765WAT     H229538   5.117   9.175   6.149
 9766WAT      O29539   7.856   4.146   5.483
 9766WAT     H129540   7.846   4.221   5.418
 9766WAT     H229541   7.836   4.179   5.576
 9767WAT      O29542   7.047   6.255   1.435
 9767WAT     H129543   7.039   6.259   1.534
 9767WAT     H229544   6.973   6.307   1.393
 9768WAT      O29545   1.286   1.174   4.289
 9768WAT     H129546   1.370   1.143   4.246
 9768WAT     H229547   1.210   1.162   4.225
 9769WAT      O29548   3.064   2.068   8.007
 9769WAT     H129549   3.079   2.105   7.916
 9769WAT     H229550   3.077   1.969   8.005
 9770WAT      O29551   9.050   5.603   4.454
 9770WAT     H129552   9.149   5.602   4.470
 9770WAT     H229553   9.010   5.518   4.487
 9771WAT      O29554   8.609   9.489   9.034
 9771WAT     H129555   8.641   9.568   8.983
 9771WAT     H229556   8.599   9.512   9.130
 9772WAT      O29557   0.733   0.398   4.406
 9772WAT     H129558   0.712   0.308   4.366
 9772WAT     H229559   0.830   0.419   4.391
 9773WAT      O29560   6.090   5.018   3.804
 9773WAT     H129561   6.129   5.104   3.770
 9773WAT     H229562   6.001   5.002   3.761
 9774WAT      O29563   8.436   6.552   4.249
 9774WAT     H129564   8.349   6.590   4.218
 9774WAT     H229565   8.511   6.597   4.201
 9775WAT      O29566   6.756   4.368   6.803
 9775WAT     H129567   6.834   4.423   6.831
 9775WAT     H229568   6.674   4.400   6.851
 9776WAT      O29569   6.333   4.483   6.395
 9776WAT     H129570   6.251   4.540   6.388
 9776WAT     H229571   6.394   4.502   6.318
 9777WAT      O29572   6.070   2.447   2.094
 9777WAT     H129573   6.162   2.486   2.090
 9777WAT     H229574   6.014   2.500   2.158
 9778WAT      O29575   2.052   4.356   4.002
 9778WAT     H129576   1.965   4.350   4.050
 9778WAT     H229577   2.108   4.277   4.023
 9779WAT      O29578   7.744   3.595   1.902
 9779WAT     H129579   7.765   3.498   1.900
 9779WAT     H229580   7.810   3.643   1.959
 9780WAT      O29581   4.223   3.700   3.769
 9780WAT     H129582   4.284   3.737   3.839
 9780WAT     H229583   4.157   3.770   3.743
 9781WAT      O29584   5.803   8.583   3.236
 9781WAT     H129585   5.763   8.506   3.285
 9781WAT     H229586   5.828   8.655   3.301
 9782WAT      O29587   0.357   6.533   7.343
 9782WAT     H129588   0.340   6.629   7.320
 9782WAT     H229589   0.353   6.522   7.443
 9783WAT      O29590   6.834   3.849   2.422
 9783WAT     H129591   6.736   3.830   2.415
 9783WAT     H229592   6.864   3.899   2.340
 9784WAT      O29593   8.961   9.803   3.885
 9784WAT     H129594   9.014   9.828   3.967
 9784WAT     H229595   8.995   9.717   3.848
 9785WAT      O29596   0.054   2.421   3.134
 9785WAT     H129597   0.060   2.521   3.135
 9785WAT     H229598  -0.023   2.392   3.078
 9786WAT      O29599   1.874   0.064   6.660
 9786WAT     H129600   1.815   0.142   6.679
 9786WAT     H229601   1.843  -0.016   6.712
 9787WAT      O29602   7.181   1.017   8.741
 9787WAT     H129603   7.188   1.074   8.823
 9787WAT     H229604   7.254   1.041   8.677
 9788WAT      O29605   8.765   8.282   8.980
 9788WAT     H129606   8.669   8.287   8.949
 9788WAT     H229607   8.824   8.269   8.900
 9789WAT      O29608   1.559   4.265   2.890
 9789WAT     H129609   1.613   4.288   2.970
 9789WAT     H229610   1.595   4.181   2.848
 9790WAT      O29611   5.017   4.105   8.588
 9790WAT     H129612   4.934   4.067   8.629
 9790WAT     H229613   5.076   4.030   8.558
 9791WAT      O29614   6.765   9.499   0.543
 9791WAT     H129615   6.760   9.578   0.605
 9791WAT     H229616   6.685   9.441   0.557
 9792WAT      O29617   8.355   8.288   0.375
 9792WAT     H129618   8.423   8.219   0.400
 9792WAT     H229619   8.364   8.367   0.435
 9793WAT      O29620   2.389   9.342   6.634
 9793WAT     H129621   2.461   9.368   6.699
 9793WAT     H229622   2.409   9.381   6.545
 9794WAT      O29623   3.069   9.404   4.205
 9794WAT     H129624   3.129   9.454   4.268
 9794WAT     H229625   2.981   9.388   4.249
 9795WAT      O29626   5.205   2.718   1.371
 9795WAT     H129627   5.181   2.628   1.407
 9795WAT     H229628   5.302   2.735   1.385
 9796WAT      O29629   7.213   2.797   1.595
 9796WAT     H129630   7.161   2.712   1.593
 9796WAT     H229631   7.278   2.798   1.519
 9797WAT      O29632   7.372   0.325   8.958
 9797WAT     H129633   7.290   0.381   8.947
 9797WAT     H229634   7.361   0.240   8.905
 9798WAT      O29635   9.868   0.740   9.166
 9798WAT     H129636   9.826   0.666   9.114
 9798WAT     H229637   9.968   0.736   9.156
 9799WAT      O29638   3.621   2.608   7.860
 9799WAT     H129639   3.679   2.621   7.940
 9799WAT     H229640   3.669   2.639   7.778
 9800WAT      O29641   8.569   5.186   9.019
 9800WAT     H129642   8.666   5.178   8.997
 9800WAT     H229643   8.517   5.208   8.936
 9801WAT      O29644   6.905   7.043   6.657
 9801WAT     H129645   6.954   6.963   6.692
 9801WAT     H229646   6.947   7.073   6.572
 9802WAT      O29647   2.455   2.995   3.338
 9802WAT     H129648   2.460   2.910   3.286
 9802WAT     H229649   2.363   3.007   3.374
 9803WAT      O29650   6.189   3.491   7.838
 9803WAT     H129651   6.222   3.499   7.744
 9803WAT     H229652   6.092   3.513   7.841
 9804WAT      O29653   4.197   4.219   2.879
 9804WAT     H129654   4.173   4.152   2.948
 9804WAT     H229655   4.258   4.288   2.919
 9805WAT      O29656   1.951   9.668   9.219
 9805WAT     H129657   2.047   9.681   9.243
 9805WAT     H229658   1.930   9.570   9.216
 9806WAT      O29659   4.188   0.031   9.083
 9806WAT     H129660   4.203  -0.048   9.143
 9806WAT     H229661   4.268   0.090   9.085
 9807WAT      O29662   4.928   7.450   5.625
 9807WAT     H129663   4.983   7.477   5.546
 9807WAT     H229664   4.885   7.361   5.608
 9808WAT      O29665   2.578   4.989   4.390
 9808WAT     H129666   2.538   4.903   4.422
 9808WAT     H229667   2.541   5.011   4.300
 9809WAT      O29668   2.464   5.154   0.677
 9809WAT     H129669   2.473   5.094   0.757
 9809WAT     H229670   2.377   5.202   0.682
 9810WAT      O29671   2.857   9.331   8.209
 9810WAT     H129672   2.886   9.346   8.115
 9810WAT     H229673   2.758   9.344   8.216
 9811WAT      O29674   1.209   1.933   0.237
 9811WAT     H129675   1.246   1.958   0.326
 9811WAT     H229676   1.228   2.005   0.171
 9812WAT      O29677   8.909   4.655   6.719
 9812WAT     H129678   8.877   4.613   6.634
 9812WAT     H229679   8.849   4.731   6.744
 9813WAT      O29680   1.699   0.692   8.549
 9813WAT     H129681   1.657   0.607   8.582
 9813WAT     H229682   1.659   0.769   8.598
 9814WAT      O29683   7.062   1.497   9.216
 9814WAT     H129684   7.035   1.442   9.295
 9814WAT     H229685   7.160   1.483   9.198
 9815WAT      O29686   9.625   7.980   0.953
 9815WAT     H129687   9.584   7.956   1.041
 9815WAT     H229688   9.711   8.029   0.968
 9816WAT      O29689   0.405   6.480   6.422
 9816WAT     H129690   0.454   6.429   6.350
 9816WAT     H229691   0.470   6.506   6.493
 9817WAT      O29692   7.865   2.656   0.899
 9817WAT     H129693   7.955   2.679   0.937
 9817WAT     H229694   7.835   2.568   0.937
 9818WAT      O29695   0.150   0.921   0.168
 9818WAT     H129696   0.250   0.913   0.172
 9818WAT     H229697   0.126   1.008   0.127
 9819WAT      O29698   7.073   2.524   4.650
 9819WAT     H129699   7.000   2.593   4.649
 9819WAT     H229700   7.053   2.453   4.583
 9820WAT      O29701   5.220   9.403   9.239
 9820WAT     H129702   5.293   9.461   9.276
 9820WAT     H229703   5.232   9.309   9.271
 9821WAT      O29704   1.146   3.982   1.387
 9821WAT     H129705   1.072   3.916   1.396
 9821WAT     H229706   1.225   3.952   1.441
 9822WAT      O29707   1.878   9.531   3.376
 9822WAT     H129708   1.849   9.588   3.453
 9822WAT     H229709   1.833   9.563   3.292
 9823WAT      O29710   9.716   9.319   7.150
 9823WAT     H129711   9.794   9.260   7.126
 9823WAT     H229712   9.654   9.324   7.072
 9824WAT      O29713   1.425   8.209   7.578
 9824WAT     H129714   1.373   8.206   7.493
 9824WAT     H229715   1.374   8.260   7.647
 9825WAT      O29716   0.247   1.141   9.766
 9825WAT     H129717   0.254   1.165   9.862
 9825WAT     H229718   0.262   1.042   9.755
 9826WAT      O29719   2.360   0.510   1.811
 9826WAT     H129720   2.267   0.536   1.786
 9826WAT     H229721   2.422   0.527   1.734
 9827WAT      O29722   2.302   3.821   7.205
 9827WAT     H129723   2.313   3.888   7.279
 9827WAT     H229724   2.210   3.781   7.210
 9828WAT      O29725   6.703   4.901   9.497
 9828WAT     H129726   6.799   4.929   9.498
 9828WAT     H229727   6.665   4.917   9.406
 9829WAT      O29728   0.841   3.883   5.616
 9829WAT     H129729   0.854   3.824   5.535
 9829WAT     H229730   0.763   3.943   5.601
 9830WAT      O29731   2.136   7.271   6.429
 9830WAT     H129732   2.232   7.255   6.405
 9830WAT     H229733   2.077   7.229   6.359
 9831WAT      O29734   2.411   2.994   5.246
 9831WAT     H129735   2.360   3.080   5.244
 9831WAT     H229736   2.501   3.010   5.288
 9832WAT      O29737   0.326   0.221   5.226
 9832WAT     H129738   0.350   0.307   5.270
 9832WAT     H229739   0.381   0.210   5.142
 9833WAT      O29740   7.829   7.878   7.372
 9833WAT     H129741   7.928   7.863   7.369
 9833WAT     H229742   7.803   7.913   7.461
 9834WAT      O29743   7.426   8.411   9.669
 9834WAT     H129744   7.448   8.509   9.668
 9834WAT     H229745   7.393   8.383   9.579
 9835WAT      O29746   7.270   7.599   6.789
 9835WAT     H129747   7.244   7.683   6.741
 9835WAT     H229748   7.312   7.622   6.877
 9836WAT      O29749   1.393   2.617   9.058
 9836WAT     H129750   1.340   2.700   9.044
 9836WAT     H229751   1.349   2.541   9.010
 9837WAT      O29752   6.491   1.504   8.116
 9837WAT     H129753   6.415   1.567   8.130
 9837WAT     H229754   6.473   1.418   8.165
 9838WAT      O29755   0.682   7.606   5.423
 9838WAT     H129756   0.659   7.556   5.340
 9838WAT     H229757   0.758   7.669   5.404
 9839WAT      O29758   4.487   9.377   6.232
 9839WAT     H129759   4.471   9.339   6.323
 9839WAT     H229760   4.532   9.309   6.174
 9840WAT      O29761   1.176   6.645   5.565
 9840WAT     H129762   1.106   6.652   5.636
 9840WAT     H229763   1.220   6.556   5.570
 9841WAT      O29764   5.985   3.928   9.696
 9841WAT     H129765   6.007   3.945   9.792
 9841WAT     H229766   5.983   4.015   9.647
 9842WAT      O29767   3.038   6.369   1.183
 9842WAT     H129768   2.971   6.441   1.200
 9842WAT     H229769   3.031   6.299   1.254
 9843WAT      O29770   4.610   5.620   5.540
 9843WAT     H129771   4.578   5.591   5.630
 9843WAT     H229772   4.545   5.685   5.501
 9844WAT      O29773   9.161   6.974   3.879
 9844WAT     H129774   9.154   6.885   3.923
 9844WAT     H229775   9.097   7.038   3.921
 9845WAT      O29776   1.551   4.685   4.603
 9845WAT     H129777   1.639   4.707   4.561
 9845WAT     H229778   1.484   4.756   4.581
 9846WAT      O29779   7.393   8.526   1.503
 9846WAT     H129780   7.295   8.505   1.495
 9846WAT     H229781   7.445   8.467   1.441
 9847WAT      O29782   5.560   0.454   2.421
 9847WAT     H129783   5.472   0.487   2.454
 9847WAT     H229784   5.633   0.512   2.457
 9848WAT      O29785   3.158   9.443   2.505
 9848WAT     H129786   3.158   9.542   2.490
 9848WAT     H229787   3.186   9.423   2.598
 9849WAT      O29788   7.501   8.825   3.464
 9849WAT     H129789   7.519   8.747   3.404
 9849WAT     H229790   7.527   8.909   3.417
 9850WAT      O29791   2.407   6.948   8.295
 9850WAT     H129792   2.390   6.998   8.210
 9850WAT     H229793   2.501   6.965   8.325
 9851WAT      O29794   5.649   2.553   8.048
 9851WAT     H129795   5.686   2.521   8.135
 9851WAT     H229796   5.582   2.625   8.065
 9852WAT      O29797   0.498   4.569   5.758
 9852WAT     H129798   0.512   4.513   5.840
 9852WAT     H229799   0.402   4.596   5.752
 9853WAT      O29800   9.292   2.783   3.046
 9853WAT     H129801   9.309   2.877   3.014
 9853WAT     H229802   9.257   2.728   2.971
 9854WAT      O29803   6.127   0.321   9.072
 9854WAT     H129804   6.160   0.231   9.103
 9854WAT     H229805   6.066   0.308   8.994
 9855WAT      O29806   8.115   2.032   8.340
 9855WAT     H129807   8.204   2.018   8.295
 9855WAT     H229808   8.101   2.130   8.355
 9856WAT      O29809   4.683   4.941   2.182
 9856WAT     H129810   4.722   4.920   2.093
 9856WAT     H229811   4.604   5.001   2.170
 9857WAT      O29812   8.443   2.896   7.949
 9857WAT     H129813   8.466   2.963   8.020
 9857WAT     H229814   8.475   2.930   7.860
 9858WAT      O29815   0.108   0.399   9.005
 9858WAT     H129816   0.180   0.461   8.974
 9858WAT     H229817   0.139   0.350   9.087
 9859WAT      O29818   5.693   8.418   4.438
 9859WAT     H129819   5.711   8.443   4.342
 9859WAT     H229820   5.598   8.392   4.449
 9860WAT      O29821   0.650   8.106   8.931
 9860WAT     H129822   0.572   8.047   8.953
 9860WAT     H229823   0.688   8.079   8.843
 9861WAT      O29824   0.728   7.843   3.087
 9861WAT     H129825   0.667   7.805   3.156
 9861WAT     H229826   0.778   7.769   3.041
 9862WAT      O29827   6.099   0.829   1.239
 9862WAT     H129828   6.116   0.841   1.337
 9862WAT     H229829   6.184   0.801   1.195
 9863WAT      O29830   0.897   5.576   5.691
 9863WAT     H129831   0.814   5.533   5.655
 9863WAT     H229832   0.873   5.629   5.773
 9864WAT      O29833   8.382   7.664   9.392
 9864WAT     H129834   8.326   7.630   9.467
 9864WAT     H229835   8.431   7.588   9.349
 9865WAT      O29836   2.827   3.690   0.959
 9865WAT     H129837   2.904   3.752   0.945
 9865WAT     H229838   2.807   3.642   0.873
 9866WAT      O29839   3.880   4.295   6.499
 9866WAT     H129840   3.903   4.386   6.535
 9866WAT     H229841   3.890   4.296   6.399
 9867WAT      O29842   6.292   9.274   1.735
 9867WAT     H129843   6.346   9.280   1.651
 9867WAT     H229844   6.348   9.304   1.813
 9868WAT      O29845   5.790   6.159   8.458
 9868WAT     H129846   5.785   6.137   8.361
 9868WAT     H229847   5.868   6.219   8.475
 9869WAT      O29848   0.101   5.375   0.750
 9869WAT     H129849   0.174   5.443   0.760
 9869WAT     H229850   0.037   5.385   0.827
 9870WAT      O29851   5.629   4.503   2.914
 9870WAT     H129852   5.694   4.572   2.946
 9870WAT     H229853   5.550   4.548   2.873
 9871WAT      O29854   4.489   8.609   3.357
 9871WAT     H129855   4.425   8.631   3.430
 9871WAT     H229856   4.533   8.521   3.377
 9872WAT      O29857   5.163   3.635   2.927
 9872WAT     H129858   5.228   3.609   2.998
 9872WAT     H229859   5.083   3.576   2.932
 9873WAT      O29860   3.687   3.697   1.222
 9873WAT     H129861   3.736   3.778   1.253
 9873WAT     H229862   3.620   3.722   1.153
 9874WAT      O29863   2.620   0.315   5.296
 9874WAT     H129864   2.659   0.334   5.385
 9874WAT     H229865   2.608   0.400   5.245
 9875WAT      O29866   2.009   5.045   4.475
 9875WAT     H129867   1.966   5.135   4.481
 9875WAT     H229868   2.072   5.033   4.552
 9876WAT      O29869   1.463   6.230   8.502
 9876WAT     H129870   1.402   6.204   8.577
 9876WAT     H229871   1.415   6.217   8.415
 9877WAT      O29872   7.220   8.940   1.828
 9877WAT     H129873   7.172   9.023   1.854
 9877WAT     H229874   7.155   8.864   1.823
 9878WAT      O29875   5.448   2.539   5.805
 9878WAT     H129876   5.425   2.609   5.738
 9878WAT     H229877   5.426   2.448   5.768
 9879WAT      O29878   7.443   6.178   2.049
 9879WAT     H129879   7.396   6.115   2.111
 9879WAT     H229880   7.530   6.138   2.019
 9880WAT      O29881   2.396   7.650   0.734
 9880WAT     H129882   2.375   7.678   0.827
 9880WAT     H229883   2.488   7.611   0.731
 9881WAT      O29884   6.068   6.525   0.359
 9881WAT     H129885   6.080   6.506   0.456
 9881WAT     H229886   5.976   6.563   0.344
 9882WAT      O29887   0.006   3.745   6.277
 9882WAT     H129888  -0.014   3.759   6.374
 9882WAT     H229889   0.104   3.734   6.265
 9883WAT      O29890   1.505   0.545   3.018
 9883WAT     H129891   1.420   0.518   2.972
 9883WAT     H229892   1.555   0.610   2.960
 9884WAT      O29893   4.052   7.941   4.561
 9884WAT     H129894   4.079   7.996   4.482
 9884WAT     H229895   4.113   7.961   4.638
 9885WAT      O29896   9.429   1.081   3.535
 9885WAT     H129897   9.471   1.102   3.447
 9885WAT     H229898   9.464   0.994   3.569
 9886WAT      O29899   6.220   4.781   1.984
 9886WAT     H129900   6.266   4.698   2.015
 9886WAT     H229901   6.125   4.762   1.963
 9887WAT      O29902   0.853   4.329   1.645
 9887WAT     H129903   0.797   4.352   1.566
 9887WAT     H229904   0.927   4.268   1.617
 9888WAT      O29905   3.368   1.597   7.946
 9888WAT     H129906   3.392   1.555   7.859
 9888WAT     H229907   3.403   1.540   8.021
 9889WAT      O29908   0.802   6.953   8.228
 9889WAT     H129909   0.885   6.943   8.173
 9889WAT     H229910   0.815   7.026   8.295
 9890WAT      O29911   2.000   1.349   7.800
 9890WAT     H129912   2.020   1.276   7.865
 9890WAT     H229913   1.933   1.412   7.839
 9891WAT      O29914   3.971   9.337   7.846
 9891WAT     H129915   4.057   9.358   7.800
 9891WAT     H229916   3.970   9.381   7.936
 9892WAT      O29917   5.493   3.587   2.312
 9892WAT     H129918   5.527   3.614   2.222
 9892WAT     H229919   5.432   3.508   2.302
 9893WAT      O29920   7.459   8.842   3.740
 9893WAT     H129921   7.472   8.838   3.641
 9893WAT     H229922   7.411   8.926   3.764
 9894WAT      O29923   3.263   3.100   6.342
 9894WAT     H129924   3.271   3.008   6.305
 9894WAT     H229925   3.194   3.100   6.415
 9895WAT      O29926   6.683   5.843   7.217
 9895WAT     H129927   6.764   5.862   7.161
 9895WAT     H229928   6.652   5.928   7.260
 9896WAT      O29929   8.568   0.357   3.082
 9896WAT     H129930   8.577   0.408   2.996
 9896WAT     H229931   8.552   0.421   3.157
 9897WAT      O29932   5.793   6.043   7.840
 9897WAT     H129933   5.821   6.124   7.788
 9897WAT     H229934   5.704   6.060   7.881
 9898WAT      O29935   7.610   4.456   1.407
 9898WAT     H129936   7.589   4.359   1.399
 9898WAT     H229937   7.524   4.507   1.417
 9899WAT      O29938   3.748   9.460   0.797
 9899WAT     H129939   3.704   9.513   0.870
 9899WAT     H229940   3.685   9.453   0.719
 9900WAT      O29941   6.313   7.721   5.164
 9900WAT     H129942   6.318   7.624   5.138
 9900WAT     H229943   6.353   7.777   5.091
 9901WAT      O29944   2.361   6.881   5.267
 9901WAT     H129945   2.415   6.936   5.331
 9901WAT     H229946   2.264   6.906   5.276
 9902WAT      O29947   3.174   4.649   3.553
 9902WAT     H129948   3.089   4.682   3.593
 9902WAT     H229949   3.225   4.596   3.621
 9903WAT      O29950   9.747   1.647   8.236
 9903WAT     H129951   9.684   1.704   8.183
 9903WAT     H229952   9.755   1.682   8.329
 9904WAT      O29953   2.178   2.395   0.605
 9904WAT     H129954   2.117   2.377   0.528
 9904WAT     H229955   2.255   2.452   0.574
 9905WAT      O29956   3.527   7.972   9.082
 9905WAT     H129957   3.604   7.958   9.143
 9905WAT     H229958   3.445   7.992   9.136
 9906WAT      O29959   6.349   2.255   8.210
 9906WAT     H129960   6.413   2.307   8.153
 9906WAT     H229961   6.390   2.167   8.235
 9907WAT      O29962   9.159   0.403   2.238
 9907WAT     H129963   9.196   0.495   2.248
 9907WAT     H229964   9.228   0.344   2.196
 9908WAT      O29965   1.445   4.606   7.119
 9908WAT     H129966   1.388   4.570   7.193
 9908WAT     H229967   1.393   4.674   7.067
 9909WAT      O29968   4.370   7.510   4.031
 9909WAT     H129969   4.311   7.526   3.953
 9909WAT     H229970   4.456   7.469   4.001
 9910WAT      O29971   3.683   7.979   4.252
 9910WAT     H129972   3.712   8.018   4.339
 9910WAT     H229973   3.755   7.990   4.184
 9911WAT      O29974   0.730   3.958   3.066
 9911WAT     H129975   0.741   3.924   2.973
 9911WAT     H229976   0.800   4.027   3.085
 9912WAT      O29977   9.411   9.504   4.708
 9912WAT     H129978   9.340   9.474   4.772
 9912WAT     H229979   9.477   9.561   4.757
 9913WAT      O29980   5.037   7.438   8.944
 9913WAT     H129981   5.033   7.406   8.850
 9913WAT     H229982   5.131   7.467   8.966
 9914WAT      O29983   1.605   4.406   3.137
 9914WAT     H129984   1.647   4.489   3.174
 9914WAT     H229985   1.674   4.334   3.134
 9915WAT      O29986   4.852   8.047   8.684
 9915WAT     H129987   4.784   8.120   8.673
 9915WAT     H229988   4.935   8.071   8.633
 9916WAT      O29989   6.170   5.532   5.624
 9916WAT     H129990   6.212   5.447   5.592
 9916WAT     H229991   6.168   5.598   5.549
 9917WAT      O29992   5.412   8.237   4.370
 9917WAT     H129993   5.426   8.288   4.455
 9917WAT     H229994   5.414   8.139   4.390
 9918WAT      O29995   8.359   3.055   1.097
 9918WAT     H129996   8.375   3.010   1.184
 9918WAT     H229997   8.441   3.049   1.040
 9919WAT      O29998   0.325   4.327   5.487
 9919WAT     H129999   0.279   4.241   5.511
 9919WAT     H230000   0.421   4.321   5.512
 9920WAT      O30001   7.673   8.647   4.792
 9920WAT     H130002   7.623   8.699   4.861
 9920WAT     H230003   7.767   8.680   4.787
 9921WAT      O30004   6.316   1.926   5.679
 9921WAT     H130005   6.282   1.847   5.731
 9921WAT     H230006   6.251   2.001   5.686
 9922WAT      O30007   6.484   2.967   2.895
 9922WAT     H130008   6.472   2.946   2.798
 9922WAT     H230009   6.473   3.065   2.910
 9923WAT      O30010   5.729   8.723   2.773
 9923WAT     H130011   5.682   8.798   2.725
 9923WAT     H230012   5.729   8.642   2.714
 9924WAT      O30013   5.141   9.233   5.498
 9924WAT     H130014   5.055   9.215   5.449
 9924WAT     H230015   5.124   9.297   5.573
 9925WAT      O30016   3.186   9.255   5.975
 9925WAT     H130017   3.125   9.251   6.054
 9925WAT     H230018   3.187   9.167   5.929
 9926WAT      O30019   3.844   5.788   0.990
 9926WAT     H130020   3.866   5.691   0.989
 9926WAT     H230021   3.901   5.837   0.924
 9927WAT      O30022   8.695   1.342   8.765
 9927WAT     H130023   8.714   1.308   8.673
 9927WAT     H230024   8.599   1.325   8.787
 9928WAT      O30025   2.664   6.610   5.956
 9928WAT     H130026   2.637   6.602   6.052
 9928WAT     H230027   2.756   6.649   5.950
 9929WAT      O30028   4.738   3.565   8.625
 9929WAT     H130029   4.771   3.650   8.584
 9929WAT     H230030   4.642   3.576   8.653
 9930WAT      O30031   9.337   0.582   0.159
 9930WAT     H130032   9.288   0.563   0.074
 9930WAT     H230033   9.322   0.507   0.224
 9931WAT      O30034   3.310   2.969   7.986
 9931WAT     H130035   3.214   2.959   7.959
 9931WAT     H230036   3.367   2.974   7.903
 9932WAT      O30037   3.447   3.646   5.227
 9932WAT     H130038   3.406   3.734   5.251
 9932WAT     H230039   3.444   3.634   5.127
 9933WAT      O30040   3.409   3.308   9.198
 9933WAT     H130041   3.480   3.250   9.236
 9933WAT     H230042   3.439   3.343   9.109
 9934WAT      O30043   9.470   5.994   6.370
 9934WAT     H130044   9.397   6.058   6.393
 9934WAT     H230045   9.473   5.981   6.270
 9935WAT      O30046   0.192   2.121   0.725
 9935WAT     H130047   0.104   2.073   0.730
 9935WAT     H230048   0.263   2.065   0.768
 9936WAT      O30049   8.277   9.311   2.849
 9936WAT     H130050   8.338   9.365   2.790
 9936WAT     H230051   8.328   9.281   2.929
 9937WAT      O30052   7.301   3.829   3.404
 9937WAT     H130053   7.381   3.814   3.346
 9937WAT     H230054   7.298   3.758   3.474
 9938WAT      O30055   1.114   0.125   8.439
 9938WAT     H130056   1.027   0.115   8.486
 9938WAT     H230057   1.176   0.051   8.467
 9939WAT      O30058   3.489   9.307   1.511
 9939WAT     H130059   3.518   9.309   1.607
 9939WAT     H230060   3.445   9.394   1.488
 9940WAT      O30061   0.311   6.053   8.814
 9940WAT     H130062   0.381   6.032   8.746
 9940WAT     H230063   0.320   6.149   8.842
 9941WAT      O30064   1.191   4.227   9.165
 9941WAT     H130065   1.270   4.191   9.116
 9941WAT     H230066   1.220   4.263   9.254
 9942WAT      O30067   5.447   4.646   1.732
 9942WAT     H130068   5.463   4.657   1.830
 9942WAT     H230069   5.360   4.599   1.718
 9943WAT      O30070   5.832   3.502   8.736
 9943WAT     H130071   5.859   3.598   8.736
 9943WAT     H230072   5.867   3.458   8.819
 9944WAT      O30073   2.400   3.365   0.679
 9944WAT     H130074   2.451   3.433   0.627
 9944WAT     H230075   2.364   3.295   0.617
 9945WAT      O30076   6.500   5.218   3.261
 9945WAT     H130077   6.417   5.259   3.223
 9945WAT     H230078   6.521   5.132   3.213
 9946WAT      O30079   9.543   0.453   7.184
 9946WAT     H130080   9.477   0.469   7.110
 9946WAT     H230081   9.494   0.425   7.267
 9947WAT      O30082   4.044   4.831   1.670
 9947WAT     H130083   4.108   4.907   1.663
 9947WAT     H230084   4.034   4.787   1.581
 9948WAT      O30085   8.457   9.324   7.615
 9948WAT     H130086   8.404   9.245   7.585
 9948WAT     H230087   8.554   9.299   7.622
 9949WAT      O30088   9.885   7.615   8.924
 9949WAT     H130089   9.937   7.592   9.006
 9949WAT     H230090   9.831   7.536   8.896
 9950WAT      O30091   5.540   4.001   9.872
 9950WAT     H130092   5.466   3.966   9.930
 9950WAT     H230093   5.502   4.056   9.799
 9951WAT      O30094   0.506   6.476   0.951
 9951WAT     H130095   0.443   6.531   0.897
 9951WAT     H230096   0.515   6.385   0.910
 9952WAT      O30097   9.119   4.123   9.012
 9952WAT     H130098   9.190   4.183   9.048
 9952WAT     H230099   9.154   4.029   9.008
 9953WAT      O30100   7.925   8.386   5.370
 9953WAT     H130101   7.956   8.351   5.282
 9953WAT     H230102   7.990   8.358   5.441
 9954WAT      O30103   2.209   6.281   2.011
 9954WAT     H130104   2.273   6.256   2.084
 9954WAT     H230105   2.260   6.306   1.929
 9955WAT      O30106   1.942   6.232   0.346
 9955WAT     H130107   1.898   6.204   0.431
 9955WAT     H230108   2.023   6.287   0.366
 9956WAT      O30109   6.498   7.505   2.232
 9956WAT     H130110   6.501   7.605   2.236
 9956WAT     H230111   6.551   7.473   2.154
 9957WAT      O30112   5.190   4.947   3.216
 9957WAT     H130113   5.239   4.861   3.205
 9957WAT     H230114   5.172   4.987   3.125
 9958WAT      O30115   9.675   3.511   7.756
 9958WAT     H130116   9.693   3.592   7.811
 9958WAT     H230117   9.667   3.431   7.816
 9959WAT      O30118   5.118   7.917   7.129
 9959WAT     H130119   5.128   7.989   7.061
 9959WAT     H230120   5.147   7.830   7.089
 9960WAT      O30121   9.122   4.005   7.033
 9960WAT     H130122   9.061   4.038   6.961
 9960WAT     H230123   9.197   3.954   6.993
 9961WAT      O30124   4.138   9.154   6.431
 9961WAT     H130125   4.174   9.094   6.502
 9961WAT     H230126   4.170   9.248   6.448
 9962WAT      O30127   7.485   4.567   0.949
 9962WAT     H130128   7.431   4.606   0.875
 9962WAT     H230129   7.538   4.490   0.914
 9963WAT      O30130   7.584   1.215   6.345
 9963WAT     H130131   7.504   1.274   6.335
 9963WAT     H230132   7.596   1.160   6.262
 9964WAT      O30133   4.074   1.427   8.329
 9964WAT     H130134   3.989   1.395   8.285
 9964WAT     H230135   4.075   1.396   8.424
 9965WAT      O30136   8.675   3.699   7.007
 9965WAT     H130137   8.607   3.727   7.075
 9965WAT     H230138   8.764   3.737   7.032
 9966WAT      O30139   3.730   5.273   5.979
 9966WAT     H130140   3.640   5.249   6.014
 9966WAT     H230141   3.795   5.199   5.999
 9967WAT      O30142   2.603   8.023   4.637
 9967WAT     H130143   2.672   7.953   4.620
 9967WAT     H230144   2.648   8.110   4.659
 9968WAT      O30145   5.241   2.268   9.210
 9968WAT     H130146   5.213   2.336   9.277
 9968WAT     H230147   5.210   2.177   9.240
 9969WAT      O30148   1.641   9.575   9.075
 9969WAT     H130149   1.573   9.522   9.024
 9969WAT     H230150   1.708   9.512   9.115
 9970WAT      O30151   0.959   2.304   5.991
 9970WAT     H130152   0.913   2.392   5.981
 9970WAT     H230153   1.045   2.305   5.940
 9971WAT      O30154   6.121   6.616   1.137
 9971WAT     H130155   6.079   6.691   1.189
 9971WAT     H230156   6.053   6.544   1.123
 9972WAT      O30157   8.222   7.101   4.807
 9972WAT     H130158   8.311   7.122   4.848
 9972WAT     H230159   8.199   7.172   4.740
 9973WAT      O30160   2.090   2.828   3.345
 9973WAT     H130161   2.081   2.756   3.413
 9973WAT     H230162   2.092   2.789   3.253
 9974WAT      O30163   4.475   5.259   3.426
 9974WAT     H130164   4.437   5.348   3.450
 9974WAT     H230165   4.444   5.233   3.334
 9975WAT      O30166   7.433   4.990   9.137
 9975WAT     H130167   7.445   4.891   9.138
 9975WAT     H230168   7.365   5.017   9.205
 9976WAT      O30169   6.473   3.409   9.797
 9976WAT     H130170   6.391   3.449   9.838
 9976WAT     H230171   6.503   3.467   9.721
 9977WAT      O30172   3.086   8.611   4.278
 9977WAT     H130173   3.046   8.640   4.192
 9977WAT     H230174   3.104   8.512   4.275
 9978WAT      O30175   4.679   3.170   5.452
 9978WAT     H130176   4.657   3.133   5.361
 9978WAT     H230177   4.742   3.247   5.442
 9979WAT      O30178   9.008   9.779   7.549
 9979WAT     H130179   9.096   9.824   7.568
 9979WAT     H230180   9.024   9.692   7.504
 9980WAT      O30181   5.490   6.262   6.074
 9980WAT     H130182   5.475   6.204   5.993
 9980WAT     H230183   5.508   6.356   6.045
 9981WAT      O30184   4.086   3.647   0.033
 9981WAT     H130185   4.049   3.649  -0.060
 9981WAT     H230186   4.123   3.737   0.056
 9982WAT      O30187   5.119   5.634   2.227
 9982WAT     H130188   5.072   5.673   2.147
 9982WAT     H230189   5.138   5.706   2.293
 9983WAT      O30190   7.000   6.836   6.851
 9983WAT     H130191   6.906   6.838   6.885
 9983WAT     H230192   7.033   6.742   6.848
 9984WAT      O30193   1.929   4.689   7.265
 9984WAT     H130194   1.994   4.733   7.203
 9984WAT     H230195   1.862   4.637   7.212
 9985WAT      O30196   3.192   6.821   8.468
 9985WAT     H130197   3.286   6.786   8.464
 9985WAT     H230198   3.188   6.901   8.527
 9986WAT      O30199   9.579   4.813   2.852
 9986WAT     H130200   9.644   4.740   2.833
 9986WAT     H230201   9.601   4.893   2.798
 9987WAT      O30202   1.936   1.750   8.821
 9987WAT     H130203   1.858   1.713   8.871
 9987WAT     H230204   1.912   1.840   8.784
 9988WAT      O30205   9.835   6.072   5.080
 9988WAT     H130206   9.857   6.169   5.089
 9988WAT     H230207   9.822   6.033   5.171
 9989WAT      O30208   6.591   4.092   2.346
 9989WAT     H130209   6.581   4.191   2.359
 9989WAT     H230210   6.536   4.045   2.415
 9990WAT      O30211   4.025   2.338   4.933
 9990WAT     H130212   4.055   2.407   4.999
 9990WAT     H230213   4.103   2.307   4.879
 9991WAT      O30214   8.778   5.980   6.871
 9991WAT     H130215   8.855   6.041   6.891
 9991WAT     H230216   8.809   5.885   6.876
 9992WAT      O30217   0.043   6.797   2.200
 9992WAT     H130218   0.133   6.764   2.174
 9992WAT     H230219  -0.027   6.735   2.165
 9993WAT      O30220   4.010   2.153   6.709
 9993WAT     H130221   3.927   2.203   6.684
 9993WAT     H230222   3.988   2.083   6.776
 9994WAT      O30223   6.389   4.771   2.292
 9994WAT     H130224   6.326   4.719   2.350
 9994WAT     H230225   6.423   4.712   2.219
 9995WAT      O30226   2.470   1.167   7.397
 9995WAT     H130227   2.531   1.189   7.474
 9995WAT     H230228   2.495   1.078   7.359
 9996WAT      O30229   9.451   5.542   6.659
 9996WAT     H130230   9.425   5.633   6.625
 9996WAT     H230231   9.368   5.487   6.671
 9997WAT      O30232   1.413   5.689   1.357
 9997WAT     H130233   1.346   5.739   1.304
 9997WAT     H230234   1.386   5.593   1.364
 9998WAT      O30235   5.670   4.426   4.326
 9998WAT     H130236   5.635   4.503   4.380
 9998WAT     H230237   5.753   4.390   4.370
 9999WAT      O30238   0.903   6.831   4.682
 9999WAT     H130239   0.838   6.896   4.643
 9999WAT     H230240   0.974   6.810   4.615
10000WAT      O30241   4.555   3.692   3.998
10000WAT     H130242   4.496   3.768   4.026
10000WAT     H230243   4.499   3.613   3.974
10001WAT      O30244   3.968   0.481   2.432
10001WAT     H130245   4.051   0.455   2.383
10001WAT     H230246   3.923   0.556   2.383
10002WAT      O30247   5.936   6.001   5.075
10002WAT     H130248   5.996   5.928   5.042
10002WAT     H230249   5.855   6.007   5.017
10003WAT      O30250   4.168   5.683   9.014
10003WAT     H130251   4.073   5.694   8.986
10003WAT     H230252   4.197   5.588   8.998
10004WAT      O30253   4.556   3.546   4.973
10004WAT     H130254   4.552   3.537   4.873
10004WAT     H230255   4.509   3.629   5.001
10005WAT      O30256   8.925   2.412   8.209
10005WAT     H130257   8.967   2.413   8.118
10005WAT     H230258   8.856   2.485   8.215
10006WAT      O30259   2.114   1.934   5.854
10006WAT     H130260   2.116   1.970   5.947
10006WAT     H230261   2.101   2.010   5.790
10007WAT      O30262   7.938   7.342   0.563
10007WAT     H130263   8.035   7.315   0.558
10007WAT     H230264   7.929   7.419   0.625
10008WAT      O30265   5.071   1.932   8.116
10008WAT     H130266   5.155   1.878   8.105
10008WAT     H230267   5.090   2.012   8.173
10009WAT      O30268   0.842   8.186   3.285
10009WAT     H130269   0.886   8.115   3.231
10009WAT     H230270   0.767   8.226   3.233
10010WAT      O30271   7.865   5.809   4.667
10010WAT     H130272   7.779   5.758   4.654
10010WAT     H230273   7.894   5.803   4.762
10011WAT      O30274   9.048   1.696   6.566
10011WAT     H130275   9.090   1.723   6.652
10011WAT     H230276   9.013   1.777   6.519
10012WAT      O30277   0.322   6.365   2.550
10012WAT     H130278   0.351   6.303   2.478
10012WAT     H230279   0.241   6.416   2.520
10013WAT      O30280   0.783   5.967   7.985
10013WAT     H130281   0.855   5.902   8.013
10013WAT     H230282   0.816   6.021   7.908
10014WAT      O30283   1.305   6.623   7.689
10014WAT     H130284   1.258   6.547   7.734
10014WAT     H230285   1.402   6.621   7.714
10015WAT      O30286   2.184   7.327   9.422
10015WAT     H130287   2.246   7.388   9.472
10015WAT     H230288   2.094   7.371   9.415
10016WAT      O30289   8.010   2.018   4.324
10016WAT     H130290   7.943   1.971   4.381
10016WAT     H230291   8.086   2.049   4.380
10017WAT      O30292   1.693   9.192   1.159
10017WAT     H130293   1.647   9.278   1.181
10017WAT     H230294   1.698   9.135   1.241
10018WAT      O30295   3.852   2.841   4.243
10018WAT     H130296   3.918   2.909   4.276
10018WAT     H230297   3.840   2.770   4.314
10019WAT      O30298   8.819   2.230   0.016
10019WAT     H130299   8.780   2.165   0.081
10019WAT     H230300   8.831   2.186  -0.073
10020WAT      O30301   3.672   5.207   5.073
10020WAT     H130302   3.690   5.194   4.976
10020WAT     H230303   3.738   5.271   5.111
10021WAT      O30304   3.876   2.312   5.500
10021WAT     H130305   3.831   2.401   5.503
10021WAT     H230306   3.823   2.249   5.443
10022WAT      O30307   8.810   6.784   7.245
10022WAT     H130308   8.714   6.760   7.231
10022WAT     H230309   8.824   6.814   7.339
10023WAT      O30310   1.648   8.009   1.634
10023WAT     H130311   1.621   8.101   1.662
10023WAT     H230312   1.567   7.956   1.610
10024WAT      O30313   1.290   3.989   2.825
10024WAT     H130314   1.286   4.088   2.814
10024WAT     H230315   1.380   3.962   2.860
10025WAT      O30316   1.356   5.285   9.517
10025WAT     H130317   1.291   5.210   9.531
10025WAT     H230318   1.375   5.330   9.604
10026WAT      O30319   7.286   6.287   1.244
10026WAT     H130320   7.271   6.214   1.177
10026WAT     H230321   7.217   6.282   1.316
10027WAT      O30322   1.841   5.718   7.375
10027WAT     H130323   1.843   5.812   7.338
10027WAT     H230324   1.929   5.674   7.355
10028WAT      O30325   7.821   5.666   7.624
10028WAT     H130326   7.886   5.602   7.664
10028WAT     H230327   7.733   5.658   7.671
10029WAT      O30328   3.346   6.744   6.961
10029WAT     H130329   3.386   6.681   6.895
10029WAT     H230330   3.326   6.831   6.917
10030WAT      O30331   3.016   9.082   0.063
10030WAT     H130332   2.984   9.169   0.102
10030WAT     H230333   3.000   9.082  -0.036
10031WAT      O30334   5.750   3.245   8.181
10031WAT     H130335   5.800   3.316   8.231
10031WAT     H230336   5.733   3.276   8.087
10032WAT      O30337   4.861   7.666   0.205
10032WAT     H130338   4.948   7.694   0.165
10032WAT     H230339   4.804   7.747   0.222
10033WAT      O30340   8.215   6.150   8.322
10033WAT     H130341   8.193   6.053   8.321
10033WAT     H230342   8.295   6.167   8.265
10034WAT      O30343   6.444   6.822   0.221
10034WAT     H130344   6.512   6.859   0.285
10034WAT     H230345   6.353   6.827   0.261
10035WAT      O30346   6.024   6.326   8.474
10035WAT     H130347   6.098   6.342   8.409
10035WAT     H230348   6.013   6.407   8.532
10036WAT      O30349   0.700   6.403   5.897
10036WAT     H130350   0.766   6.418   5.823
10036WAT     H230351   0.607   6.416   5.861
10037WAT      O30352   3.712   9.828   7.883
10037WAT     H130353   3.760   9.791   7.963
10037WAT     H230354   3.774   9.887   7.832
10038WAT      O30355   7.986   5.724   6.670
10038WAT     H130356   7.937   5.757   6.589
10038WAT     H230357   8.077   5.767   6.673
10039WAT      O30358   5.060   8.172   4.929
10039WAT     H130359   5.136   8.156   4.993
10039WAT     H230360   5.030   8.086   4.890
10040WAT      O30361   5.223   2.955   9.232
10040WAT     H130362   5.176   2.868   9.250
10040WAT     H230363   5.239   2.964   9.134
10041WAT      O30364   2.036   1.271   3.752
10041WAT     H130365   1.955   1.280   3.809
10041WAT     H230366   2.051   1.357   3.701
10042WAT      O30367   0.078   2.320   5.122
10042WAT     H130368   0.085   2.415   5.150
10042WAT     H230369   0.144   2.264   5.173
10043WAT      O30370   9.268   5.373   8.977
10043WAT     H130371   9.309   5.368   9.068
10043WAT     H230372   9.169   5.356   8.985
10044WAT      O30373   4.936   2.609   2.305
10044WAT     H130374   5.019   2.569   2.343
10044WAT     H230375   4.959   2.694   2.256
10045WAT      O30376   9.424   3.074   9.541
10045WAT     H130377   9.518   3.053   9.568
10045WAT     H230378   9.361   3.015   9.591
10046WAT      O30379   2.821   2.558   9.592
10046WAT     H130380   2.754   2.632   9.601
10046WAT     H230381   2.781   2.484   9.539
10047WAT      O30382   4.019   4.785   1.044
10047WAT     H130383   4.040   4.882   1.039
10047WAT     H230384   4.045   4.740   0.958
10048WAT      O30385   4.677   6.439   3.364
10048WAT     H130386   4.624   6.462   3.283
10048WAT     H230387   4.772   6.470   3.352
10049WAT      O30388   3.083   7.898   4.421
10049WAT     H130389   3.017   7.823   4.412
10049WAT     H230390   3.135   7.908   4.336
10050WAT      O30391   7.802   0.556   4.524
10050WAT     H130392   7.739   0.501   4.579
10050WAT     H230393   7.843   0.627   4.581
10051WAT      O30394   4.974   9.158   2.805
10051WAT     H130395   4.880   9.127   2.796
10051WAT     H230396   5.026   9.129   2.724
10052WAT      O30397   2.881   1.937   3.115
10052WAT     H130398   2.888   2.036   3.109
10052WAT     H230399   2.969   1.896   3.089
10053WAT      O30400   5.739   8.701   1.300
10053WAT     H130401   5.827   8.737   1.333
10053WAT     H230402   5.685   8.775   1.261
10054WAT      O30403   0.103   9.623   6.042
10054WAT     H130404   0.142   9.705   6.001
10054WAT     H230405   0.050   9.647   6.124
10055WAT      O30406   5.205   0.764   7.249
10055WAT     H130407   5.223   0.666   7.258
10055WAT     H230408   5.199   0.788   7.152
10056WAT      O30409   7.174   2.668   7.593
10056WAT     H130410   7.088   2.692   7.547
10056WAT     H230411   7.229   2.751   7.606
10057WAT      O30412   6.833   2.864   3.655
10057WAT     H130413   6.904   2.933   3.641
10057WAT     H230414   6.774   2.861   3.574
10058WAT      O30415   7.142   2.781   8.876
10058WAT     H130416   7.206   2.705   8.890
10058WAT     H230417   7.050   2.753   8.906
10059WAT      O30418   0.116   9.845   7.856
10059WAT     H130419   0.031   9.802   7.887
10059WAT     H230420   0.126   9.834   7.758
10060WAT      O30421   0.544   9.675   0.789
10060WAT     H130422   0.556   9.578   0.767
10060WAT     H230423   0.579   9.693   0.881
10061WAT      O30424   9.005   4.012   8.737
10061WAT     H130425   9.057   3.968   8.810
10061WAT     H230426   8.932   4.067   8.777
10062WAT      O30427   2.614   6.217   2.057
10062WAT     H130428   2.649   6.309   2.075
10062WAT     H230429   2.651   6.184   1.970
10063WAT      O30430   5.883   0.275   0.159
10063WAT     H130431   5.784   0.274   0.173
10063WAT     H230432   5.920   0.184   0.177
10064WAT      O30433   2.874   3.758   1.221
10064WAT     H130434   2.861   3.713   1.133
10064WAT     H230435   2.810   3.835   1.229
10065WAT      O30436   6.135   9.352   2.050
10065WAT     H130437   6.123   9.411   1.971
10065WAT     H230438   6.184   9.402   2.122
10066WAT      O30439   2.779   3.563   0.055
10066WAT     H130440   2.683   3.591   0.049
10066WAT     H230441   2.829   3.628   0.112
10067WAT      O30442   5.676   5.675   4.310
10067WAT     H130443   5.765   5.695   4.269
10067WAT     H230444   5.685   5.599   4.374
10068WAT      O30445   7.828   3.647   5.163
10068WAT     H130446   7.822   3.598   5.250
10068WAT     H230447   7.783   3.593   5.092
10069WAT      O30448   4.594   9.779   2.667
10069WAT     H130449   4.680   9.776   2.616
10069WAT     H230450   4.609   9.820   2.757
10070WAT      O30451   6.270   3.103   6.749
10070WAT     H130452   6.218   3.017   6.743
10070WAT     H230453   6.328   3.111   6.668
10071WAT      O30454   2.452   1.543   0.328
10071WAT     H130455   2.503   1.519   0.244
10071WAT     H230456   2.485   1.486   0.403
10072WAT      O30457   1.850   1.552   8.414
10072WAT     H130458   1.910   1.548   8.334
10072WAT     H230459   1.828   1.647   8.435
10073WAT      O30460   7.269   8.893   7.819
10073WAT     H130461   7.328   8.958   7.868
10073WAT     H230462   7.174   8.924   7.824
10074WAT      O30463   0.993   7.526   6.843
10074WAT     H130464   1.037   7.446   6.804
10074WAT     H230465   0.904   7.500   6.882
10075WAT      O30466   9.009   6.883   6.591
10075WAT     H130467   9.021   6.819   6.667
10075WAT     H230468   9.037   6.974   6.620
10076WAT      O30469   4.006   3.476   4.453
10076WAT     H130470   4.016   3.564   4.500
10076WAT     H230471   4.025   3.402   4.517
10077WAT      O30472   9.078   1.382   8.315
10077WAT     H130473   9.026   1.442   8.255
10077WAT     H230474   9.138   1.323   8.259
10078WAT      O30475   6.267   9.391   2.613
10078WAT     H130476   6.197   9.422   2.677
10078WAT     H230477   6.353   9.376   2.661
10079WAT      O30478   4.967   6.601   1.938
10079WAT     H130479   4.877   6.630   1.907
10079WAT     H230480   4.983   6.633   2.032
10080WAT      O30481   4.933   8.514   7.904
10080WAT     H130482   4.961   8.449   7.975
10080WAT     H230483   4.991   8.502   7.824
10081WAT      O30484   8.097   5.135   1.918
10081WAT     H130485   8.124   5.049   1.874
10081WAT     H230486   8.100   5.124   2.017
10082WAT      O30487   8.337   9.659   0.414
10082WAT     H130488   8.424   9.672   0.461
10082WAT     H230489   8.328   9.726   0.340
10083WAT      O30490   5.306   2.888   4.816
10083WAT     H130491   5.346   2.979   4.806
10083WAT     H230492   5.339   2.829   4.742
10084WAT      O30493   7.274   8.085   4.782
10084WAT     H130494   7.265   8.117   4.687
10084WAT     H230495   7.186   8.052   4.814
10085WAT      O30496   1.436   3.437   9.294
10085WAT     H130497   1.464   3.510   9.356
10085WAT     H230498   1.399   3.477   9.210
10086WAT      O30499   5.294   3.243   1.141
10086WAT     H130500   5.200   3.276   1.137
10086WAT     H230501   5.356   3.321   1.151
10087WAT      O30502   6.283   6.264   7.191
10087WAT     H130503   6.227   6.226   7.117
10087WAT     H230504   6.285   6.364   7.183
10088WAT      O30505   6.806   2.220   1.706
10088WAT     H130506   6.724   2.198   1.654
10088WAT     H230507   6.887   2.197   1.652
10089WAT      O30508   7.093   1.132   0.689
10089WAT     H130509   7.019   1.068   0.711
10089WAT     H230510   7.057   1.225   0.684
10090WAT      O30511   7.363   1.944   0.594
10090WAT     H130512   7.345   1.890   0.511
10090WAT     H230513   7.286   2.005   0.612
10091WAT      O30514   7.423   6.910   6.908
10091WAT     H130515   7.407   7.003   6.940
10091WAT     H230516   7.490   6.865   6.967
10092WAT      O30517   3.685   9.612   9.302
10092WAT     H130518   3.710   9.608   9.206
10092WAT     H230519   3.586   9.606   9.311
10093WAT      O30520   9.816   0.739   5.325
10093WAT     H130521   9.881   0.792   5.271
10093WAT     H230522   9.742   0.706   5.266
10094WAT      O30523   6.585   2.025   7.866
10094WAT     H130524   6.499   2.048   7.821
10094WAT     H230525   6.636   1.960   7.809
10095WAT      O30526   8.338   2.605   7.341
10095WAT     H130527   8.400   2.528   7.352
10095WAT     H230528   8.358   2.674   7.411
10096WAT      O30529   7.978   2.561   1.628
10096WAT     H130530   7.888   2.599   1.604
10096WAT     H230531   7.989   2.563   1.727
10097WAT      O30532   5.737   0.481   6.839
10097WAT     H130533   5.656   0.461   6.785
10097WAT     H230534   5.719   0.557   6.901
10098WAT      O30535   5.587   7.885   9.717
10098WAT     H130536   5.561   7.929   9.631
10098WAT     H230537   5.554   7.938   9.794
10099WAT      O30538   3.627   7.856   0.290
10099WAT     H130539   3.583   7.769   0.314
10099WAT     H230540   3.722   7.838   0.263
10100WAT      O30541   8.521   1.672   1.639
10100WAT     H130542   8.620   1.656   1.635
10100WAT     H230543   8.488   1.696   1.548
10101WAT      O30544   7.346   8.199   7.852
10101WAT     H130545   7.254   8.237   7.840
10101WAT     H230546   7.389   8.241   7.932
10102WAT      O30547   8.796   7.345   5.201
10102WAT     H130548   8.866   7.415   5.215
10102WAT     H230549   8.732   7.375   5.130
10103WAT      O30550   8.594   9.171   0.100
10103WAT     H130551   8.680   9.202   0.061
10103WAT     H230552   8.602   9.075   0.127
10104WAT      O30553   1.155   9.126   0.392
10104WAT     H130554   1.123   9.220   0.385
10104WAT     H230555   1.076   9.065   0.404
10105WAT      O30556   8.178   2.599   8.049
10105WAT     H130557   8.203   2.687   8.090
10105WAT     H230558   8.123   2.615   7.967
10106WAT      O30559   3.884   5.928   1.474
10106WAT     H130560   3.874   5.944   1.376
10106WAT     H230561   3.817   5.983   1.524
10107WAT      O30562   6.704   6.283   4.141
10107WAT     H130563   6.651   6.340   4.079
10107WAT     H230564   6.676   6.187   4.130
10108WAT      O30565   5.710   4.988   0.009
10108WAT     H130566   5.674   4.898   0.034
10108WAT     H230567   5.787   4.977  -0.054
10109WAT      O30568   8.781   7.033   5.621
10109WAT     H130569   8.866   7.019   5.672
10109WAT     H230570   8.783   7.123   5.577
10110WAT      O30571   9.638   4.299   3.501
10110WAT     H130572   9.675   4.304   3.594
10110WAT     H230573   9.589   4.383   3.480
10111WAT      O30574   4.457   7.556   3.235
10111WAT     H130575   4.482   7.586   3.327
10111WAT     H230576   4.420   7.633   3.183
10112WAT      O30577   1.254   8.299   3.536
10112WAT     H130578   1.222   8.222   3.590
10112WAT     H230579   1.258   8.381   3.593
10113WAT      O30580   9.336   4.084   7.700
10113WAT     H130581   9.392   4.046   7.625
10113WAT     H230582   9.348   4.183   7.704
10114WAT      O30583   3.734   8.489   3.330
10114WAT     H130584   3.755   8.457   3.238
10114WAT     H230585   3.640   8.524   3.332
10115WAT      O30586   6.730   5.116   1.920
10115WAT     H130587   6.655   5.057   1.949
10115WAT     H230588   6.805   5.059   1.885
10116WAT      O30589   7.736   4.984   0.318
10116WAT     H130590   7.734   5.009   0.221
10116WAT     H230591   7.811   5.033   0.364
10117WAT      O30592   6.964   4.692   3.211
10117WAT     H130593   6.902   4.615   3.192
10117WAT     H230594   6.970   4.706   3.310
10118WAT      O30595   7.683   2.225   5.919
10118WAT     H130596   7.632   2.195   5.999
10118WAT     H230597   7.765   2.169   5.908
10119WAT      O30598   6.511   4.011   9.570
10119WAT     H130599   6.606   4.040   9.581
10119WAT     H230600   6.461   4.028   9.654
10120WAT      O30601   0.610   5.026   7.739
10120WAT     H130602   0.698   5.072   7.724
10120WAT     H230603   0.545   5.090   7.778
10121WAT      O30604   4.662   8.250   1.548
10121WAT     H130605   4.621   8.340   1.535
10121WAT     H230606   4.730   8.255   1.621
10122WAT      O30607   1.385   7.041   9.263
10122WAT     H130608   1.411   7.123   9.313
10122WAT     H230609   1.370   7.062   9.167
10123WAT      O30610   9.142   5.005   9.147
10123WAT     H130611   9.209   5.017   9.220
10123WAT     H230612   9.180   5.041   9.062
10124WAT      O30613   7.875   7.681   5.488
10124WAT     H130614   7.852   7.769   5.528
10124WAT     H230615   7.831   7.608   5.539
10125WAT      O30616   0.947   7.987   3.140
10125WAT     H130617   1.012   7.919   3.172
10125WAT     H230618   0.861   7.943   3.116
10126WAT      O30619   0.727   0.852   5.533
10126WAT     H130620   0.738   0.784   5.461
10126WAT     H230621   0.687   0.935   5.494
10127WAT      O30622   1.527   6.750   8.030
10127WAT     H130623   1.565   6.701   8.109
10127WAT     H230624   1.528   6.689   7.950
10128WAT      O30625   5.808   0.490   7.672
10128WAT     H130626   5.766   0.402   7.696
10128WAT     H230627   5.860   0.480   7.587
10129WAT      O30628   5.380   7.951   5.324
10129WAT     H130629   5.400   7.929   5.229
10129WAT     H230630   5.290   7.914   5.349
10130WAT      O30631   8.351   6.756   8.898
10130WAT     H130632   8.292   6.791   8.970
10130WAT     H230633   8.442   6.737   8.937
10131WAT      O30634   0.764   6.317   2.697
10131WAT     H130635   0.743   6.234   2.645
10131WAT     H230636   0.694   6.386   2.677
10132WAT      O30637   4.444   3.060   9.875
10132WAT     H130638   4.503   3.092   9.800
10132WAT     H230639   4.387   3.135   9.907
10133WAT      O30640   3.965   1.991   4.603
10133WAT     H130641   4.017   2.066   4.563
10133WAT     H230642   3.886   1.970   4.546
10134WAT      O30643   9.686   3.254   0.247
10134WAT     H130644   9.677   3.275   0.344
10134WAT     H230645   9.714   3.158   0.236
10135WAT      O30646   5.311   5.491   1.133
10135WAT     H130647   5.361   5.435   1.200
10135WAT     H230648   5.287   5.578   1.175
10136WAT      O30649   0.275   8.421   8.219
10136WAT     H130650   0.263   8.349   8.287
10136WAT     H230651   0.236   8.507   8.253
10137WAT      O30652   2.827   5.968   5.488
10137WAT     H130653   2.727   5.977   5.489
10137WAT     H230654   2.851   5.871   5.487
10138WAT      O30655   8.796   1.048   1.445
10138WAT     H130656   8.892   1.036   1.473
10138WAT     H230657   8.778   0.991   1.365
10139WAT      O30658   1.247   9.561   6.554
10139WAT     H130659   1.177   9.490   6.552
10139WAT     H230660   1.291   9.567   6.464
10140WAT      O30661   8.689   2.414   1.936
10140WAT     H130662   8.609   2.440   1.990
10140WAT     H230663   8.666   2.335   1.879
10141WAT      O30664   4.834   8.058   7.628
10141WAT     H130665   4.770   8.000   7.578
10141WAT     H230666   4.926   8.019   7.622
10142WAT      O30667   1.973   5.440   1.483
10142WAT     H130668   1.914   5.517   1.462
10142WAT     H230669   1.988   5.385   1.401
10143WAT      O30670   9.341   1.082   9.301
10143WAT     H130671   9.437   1.079   9.274
10143WAT     H230672   9.298   1.163   9.261
10144WAT      O30673   5.341   2.318   2.358
10144WAT     H130674   5.430   2.304   2.316
10144WAT     H230675   5.274   2.257   2.315
10145WAT      O30676   2.310   5.509   6.334
10145WAT     H130677   2.314   5.509   6.234
10145WAT     H230678   2.297   5.602   6.367
10146WAT      O30679   9.585   0.761   1.137
10146WAT     H130680   9.677   0.798   1.147
10146WAT     H230681   9.591   0.667   1.102
10147WAT      O30682   8.357   7.659   9.710
10147WAT     H130683   8.313   7.733   9.761
10147WAT     H230684   8.453   7.683   9.694
10148WAT      O30685   1.656   0.246   7.656
10148WAT     H130686   1.683   0.258   7.751
10148WAT     H230687   1.735   0.214   7.603
10149WAT      O30688   3.078   3.151   1.956
10149WAT     H130689   3.075   3.221   1.885
10149WAT     H230690   3.163   3.160   2.008
10150WAT      O30691   5.386   6.705   8.306
10150WAT     H130692   5.401   6.610   8.280
10150WAT     H230693   5.473   6.749   8.328
10151WAT      O30694   2.960   6.874   4.889
10151WAT     H130695   2.970   6.905   4.984
10151WAT     H230696   3.035   6.910   4.834
10152WAT      O30697   4.336   0.530   7.414
10152WAT     H130698   4.303   0.448   7.460
10152WAT     H230699   4.391   0.584   7.478
10153WAT      O30700   1.713   8.963   0.358
10153WAT     H130701   1.652   8.940   0.282
10153WAT     H230702   1.665   8.946   0.445
10154WAT      O30703  -0.001   5.402   2.205
10154WAT     H130704  -0.010   5.470   2.277
10154WAT     H230705   0.085   5.351   2.218
10155WAT      O30706   3.692   6.690   9.145
10155WAT     H130707   3.721   6.769   9.090
10155WAT     H230708   3.772   6.644   9.183
10156WAT      O30709   1.705   2.454   2.793
10156WAT     H130710   1.799   2.432   2.771
10156WAT     H230711   1.674   2.396   2.869
10157WAT      O30712   1.078   1.375   9.373
10157WAT     H130713   1.057   1.280   9.394
10157WAT     H230714   1.175   1.385   9.353
10158WAT      O30715   0.140   1.758   9.633
10158WAT     H130716   0.066   1.692   9.618
10158WAT     H230717   0.203   1.756   9.555
10159WAT      O30718   9.537   6.979   3.161
10159WAT     H130719   9.471   6.985   3.236
10159WAT     H230720   9.529   6.890   3.116
10160WAT      O30721   5.989   1.570   7.702
10160WAT     H130722   5.904   1.560   7.754
10160WAT     H230723   5.980   1.523   7.614
10161WAT      O30724   2.014   6.286   2.470
10161WAT     H130725   1.985   6.380   2.486
10161WAT     H230726   1.934   6.226   2.467
10162WAT      O30727   8.436   0.178   4.963
10162WAT     H130728   8.421   0.157   5.060
10162WAT     H230729   8.487   0.103   4.920
10163WAT      O30730   7.542   3.795   3.283
10163WAT     H130731   7.588   3.822   3.198
10163WAT     H230732   7.610   3.783   3.355
10164WAT      O30733   7.901   8.786   0.454
10164WAT     H130734   7.893   8.744   0.544
10164WAT     H230735   7.817   8.836   0.432
10165WAT      O30736   2.077   2.560   4.820
10165WAT     H130737   1.987   2.547   4.779
10165WAT     H230738   2.083   2.653   4.857
10166WAT      O30739   5.066   5.759   5.560
10166WAT     H130740   5.119   5.730   5.640
10166WAT     H230741   5.129   5.798   5.492
10167WAT      O30742   0.192   5.760   4.898
10167WAT     H130743   0.103   5.790   4.864
10167WAT     H230744   0.219   5.817   4.976
10168WAT      O30745   7.989   6.644   5.927
10168WAT     H130746   7.968   6.546   5.933
10168WAT     H230747   7.925   6.688   5.865
10169WAT      O30748   8.427   7.570   2.705
10169WAT     H130749   8.349   7.603   2.757
10169WAT     H230750   8.422   7.470   2.695
10170WAT      O30751   4.089   2.241   7.624
10170WAT     H130752   4.149   2.219   7.547
10170WAT     H230753   4.109   2.333   7.657
10171WAT      O30754   9.604   3.698   1.052
10171WAT     H130755   9.602   3.794   1.081
10171WAT     H230756   9.697   3.674   1.022
10172WAT      O30757   3.971   0.458   1.305
10172WAT     H130758   3.997   0.443   1.209
10172WAT     H230759   4.046   0.502   1.353
10173WAT      O30760   5.229   4.185   2.709
10173WAT     H130761   5.155   4.162   2.647
10173WAT     H230762   5.194   4.239   2.785
10174WAT      O30763   7.790   0.132   7.400
10174WAT     H130764   7.866   0.178   7.446
10174WAT     H230765   7.713   0.122   7.464
10175WAT      O30766   4.193   1.378   9.051
10175WAT     H130767   4.219   1.474   9.061
10175WAT     H230768   4.163   1.343   9.139
10176WAT      O30769   6.053   0.450   2.505
10176WAT     H130770   6.007   0.386   2.444
10176WAT     H230771   6.007   0.451   2.594
10177WAT      O30772   5.681   5.170   7.937
10177WAT     H130773   5.656   5.204   7.847
10177WAT     H230774   5.750   5.098   7.928
10178WAT      O30775   1.154   0.302   9.467
10178WAT     H130776   1.065   0.345   9.453
10178WAT     H230777   1.213   0.364   9.519
10179WAT      O30778   8.296   8.916   9.790
10179WAT     H130779   8.327   8.831   9.833
10179WAT     H230780   8.374   8.979   9.780
10180WAT      O30781   8.820   3.323   5.289
10180WAT     H130782   8.775   3.377   5.359
10180WAT     H230783   8.841   3.381   5.210
10181WAT      O30784   7.350   6.589   0.364
10181WAT     H130785   7.343   6.489   0.365
10181WAT     H230786   7.438   6.617   0.402
10182WAT      O30787   8.846   5.198   0.077
10182WAT     H130788   8.759   5.149   0.065
10182WAT     H230789   8.828   5.296   0.079
10183WAT      O30790   1.933   7.353   1.494
10183WAT     H130791   1.969   7.357   1.401
10183WAT     H230792   1.836   7.331   1.491
10184WAT      O30793   8.689   0.419   6.407
10184WAT     H130794   8.675   0.378   6.317
10184WAT     H230795   8.606   0.410   6.462
10185WAT      O30796   7.580   9.180   1.327
10185WAT     H130797   7.577   9.195   1.228
10185WAT     H230798   7.659   9.227   1.366
10186WAT      O30799   0.429   5.529   8.106
10186WAT     H130800   0.339   5.511   8.068
10186WAT     H230801   0.497   5.471   8.061
10187WAT      O30802   2.295   7.734   0.325
10187WAT     H130803   2.245   7.668   0.268
10187WAT     H230804   2.273   7.717   0.421
10188WAT      O30805   1.610   0.869   3.302
10188WAT     H130806   1.606   0.904   3.209
10188WAT     H230807   1.660   0.933   3.360
10189WAT      O30808   2.814   8.945   8.861
10189WAT     H130809   2.725   8.987   8.847
10189WAT     H230810   2.816   8.899   8.950
10190WAT      O30811   5.869   6.688   8.939
10190WAT     H130812   5.782   6.659   8.979
10190WAT     H230813   5.858   6.778   8.897
10191WAT      O30814   1.925   1.747   4.018
10191WAT     H130815   1.882   1.688   3.950
10191WAT     H230816   2.019   1.767   3.990
10192WAT      O30817   5.565   4.369   7.323
10192WAT     H130818   5.492   4.369   7.254
10192WAT     H230819   5.654   4.363   7.277
10193WAT      O30820   0.362   4.511   2.270
10193WAT     H130821   0.293   4.561   2.323
10193WAT     H230822   0.417   4.455   2.332
10194WAT      O30823   8.803   3.485   1.862
10194WAT     H130824   8.796   3.457   1.957
10194WAT     H230825   8.779   3.582   1.854
10195WAT      O30826   7.245   6.831   0.425
10195WAT     H130827   7.152   6.840   0.461
10195WAT     H230828   7.267   6.734   0.415
10196WAT      O30829   7.941   9.367   5.347
10196WAT     H130830   7.848   9.336   5.331
10196WAT     H230831   7.945   9.421   5.431
10197WAT      O30832   1.175   6.362   4.445
10197WAT     H130833   1.265   6.354   4.401
10197WAT     H230834   1.186   6.360   4.544
10198WAT      O30835   3.390   2.600   0.331
10198WAT     H130836   3.364   2.578   0.425
10198WAT     H230837   3.338   2.680   0.300
10199WAT      O30838   1.223   8.530   7.195
10199WAT     H130839   1.126   8.550   7.206
10199WAT     H230840   1.257   8.481   7.275
10200WAT      O30841   9.659   8.606   6.495
10200WAT     H130842   9.616   8.681   6.544
10200WAT     H230843   9.590   8.558   6.440
10201WAT      O30844   1.787   4.394   6.566
10201WAT     H130845   1.779   4.406   6.467
10201WAT     H230846   1.762   4.300   6.590
10202WAT      O30847   0.156   1.564   9.288
10202WAT     H130848   0.233   1.619   9.320
10202WAT     H230849   0.083   1.565   9.356
10203WAT      O30850   1.990   3.511   2.098
10203WAT     H130851   2.017   3.589   2.042
10203WAT     H230852   2.068   3.478   2.150
10204WAT      O30853   9.037   3.772   4.233
10204WAT     H130854   9.028   3.702   4.162
10204WAT     H230855   9.053   3.861   4.190
10205WAT      O30856   6.116   5.281   9.482
10205WAT     H130857   6.099   5.330   9.567
10205WAT     H230858   6.207   5.239   9.486
10206WAT      O30859   7.376   2.505   7.212
10206WAT     H130860   7.460   2.538   7.170
10206WAT     H230861   7.391   2.491   7.310
10207WAT      O30862   2.119   0.796   0.638
10207WAT     H130863   2.040   0.745   0.605
10207WAT     H230864   2.178   0.820   0.562
10208WAT      O30865   6.229   1.348   3.655
10208WAT     H130866   6.192   1.255   3.661
10208WAT     H230867   6.282   1.358   3.570
10209WAT      O30868   7.890   9.572   6.024
10209WAT     H130869   7.953   9.508   5.979
10209WAT     H230870   7.938   9.620   6.097
10210WAT      O30871   6.677   4.858   2.007
10210WAT     H130872   6.661   4.822   2.099
10210WAT     H230873   6.592   4.898   1.972
10211WAT      O30874   1.158   6.829   3.504
10211WAT     H130875   1.224   6.756   3.486
10211WAT     H230876   1.207   6.915   3.516
10212WAT      O30877   6.041   4.501   3.707
10212WAT     H130878   5.942   4.509   3.716
10212WAT     H230879   6.081   4.592   3.699
10213WAT      O30880   8.671   7.326   3.010
10213WAT     H130881   8.643   7.230   3.006
10213WAT     H230882   8.690   7.358   2.917
10214WAT      O30883   4.470   1.946   0.727
10214WAT     H130884   4.469   2.006   0.807
10214WAT     H230885   4.554   1.891   0.728
10215WAT      O30886   9.555   9.820   1.763
10215WAT     H130887   9.565   9.835   1.665
10215WAT     H230888   9.468   9.860   1.794
10216WAT      O30889   7.682   7.932   6.570
10216WAT     H130890   7.643   8.014   6.527
10216WAT     H230891   7.707   7.953   6.665
10217WAT      O30892   1.961   8.405   7.674
10217WAT     H130893   1.884   8.355   7.635
10217WAT     H230894   1.928   8.464   7.748
10218WAT      O30895   5.788   7.143   5.126
10218WAT     H130896   5.844   7.223   5.105
10218WAT     H230897   5.793   7.123   5.224
10219WAT      O30898   4.616   9.722   0.924
10219WAT     H130899   4.635   9.646   0.862
10219WAT     H230900   4.700   9.752   0.968
10220WAT      O30901   0.741   4.092   0.696
10220WAT     H130902   0.735   3.992   0.700
10220WAT     H230903   0.674   4.132   0.759
10221WAT      O30904   3.312   7.478   8.609
10221WAT     H130905   3.403   7.517   8.600
10221WAT     H230906   3.317   7.393   8.662
10222WAT      O30907   9.554   1.213   2.249
10222WAT     H130908   9.585   1.118   2.251
10222WAT     H230909   9.553   1.246   2.154
10223WAT      O30910   5.457   8.725   7.801
10223WAT     H130911   5.456   8.625   7.800
10223WAT     H230912   5.449   8.760   7.707
10224WAT      O30913   4.677   7.875   7.506
10224WAT     H130914   4.682   7.886   7.406
10224WAT     H230915   4.622   7.795   7.528
10225WAT      O30916   8.084   2.988   5.544
10225WAT     H130917   8.180   2.963   5.555
10225WAT     H230918   8.030   2.952   5.620
10226WAT      O30919   6.090   9.496   1.525
10226WAT     H130920   6.034   9.574   1.555
10226WAT     H230921   6.038   9.443   1.457
10227WAT      O30922   1.057   8.515   6.871
10227WAT     H130923   1.132   8.469   6.918
10227WAT     H230924   1.011   8.577   6.935
10228WAT      O30925   8.248   1.056   5.808
10228WAT     H130926   8.337   1.046   5.765
10228WAT     H230927   8.187   1.108   5.747
10229WAT      O30928   5.972   4.364   4.676
10229WAT     H130929   6.056   4.400   4.636
10229WAT     H230930   5.921   4.313   4.607
10230WAT      O30931   7.257   5.948   5.937
10230WAT     H130932   7.168   5.982   5.967
10230WAT     H230933   7.251   5.917   5.842
10231WAT      O30934   6.811   1.228   4.713
10231WAT     H130935   6.752   1.278   4.650
10231WAT     H230936   6.906   1.239   4.685
10232WAT      O30937   5.671   2.446   5.937
10232WAT     H130938   5.582   2.485   5.912
10232WAT     H230939   5.744   2.511   5.912
10233WAT      O30940   9.830   0.393   1.508
10233WAT     H130941   9.923   0.365   1.485
10233WAT     H230942   9.823   0.493   1.505
10234WAT      O30943   8.992   8.014   2.137
10234WAT     H130944   8.947   8.087   2.189
10234WAT     H230945   8.970   7.926   2.179
10235WAT      O30946   8.158   2.573   5.356
10235WAT     H130947   8.102   2.653   5.332
10235WAT     H230948   8.187   2.579   5.451
10236WAT      O30949   1.631   3.607   4.442
10236WAT     H130950   1.635   3.535   4.373
10236WAT     H230951   1.552   3.666   4.425
10237WAT      O30952   1.392   3.657   5.009
10237WAT     H130953   1.463   3.652   4.938
10237WAT     H230954   1.305   3.680   4.968
10238WAT      O30955   7.141   9.124   2.905
10238WAT     H130956   7.052   9.088   2.933
10238WAT     H230957   7.196   9.050   2.866
10239WAT      O30958   3.694   1.086   8.685
10239WAT     H130959   3.655   1.154   8.622
10239WAT     H230960   3.654   0.997   8.665
10240WAT      O30961   1.186   4.333   8.016
10240WAT     H130962   1.125   4.407   8.045
10240WAT     H230963   1.280   4.356   8.039
10241WAT      O30964   9.403   5.498   1.435
10241WAT     H130965   9.477   5.432   1.424
10241WAT     H230966   9.374   5.531   1.345
10242WAT      O30967   2.654   7.863   6.061
10242WAT     H130968   2.739   7.851   6.009
10242WAT     H230969   2.592   7.923   6.011
10243WAT      O30970   5.489   3.135   2.578
10243WAT     H130971   5.464   3.088   2.494
10243WAT     H230972   5.437   3.097   2.655
10244WAT      O30973   6.533   6.090   5.388
10244WAT     H130974   6.626   6.110   5.357
10244WAT     H230975   6.485   6.037   5.318
10245WAT      O30976   8.495   4.096   8.569
10245WAT     H130977   8.591   4.113   8.547
10245WAT     H230978   8.473   4.000   8.550
10246WAT      O30979   1.196   8.036   2.658
10246WAT     H130980   1.174   7.998   2.748
10246WAT     H230981   1.260   8.112   2.669
10247WAT      O30982   1.595   0.491   4.180
10247WAT     H130983   1.693   0.494   4.159
10247WAT     H230984   1.563   0.583   4.203
10248WAT      O30985   4.095   0.979   0.971
10248WAT     H130986   4.116   0.982   0.874
10248WAT     H230987   4.023   0.911   0.988
10249WAT      O30988   6.052   4.695   1.006
10249WAT     H130989   6.019   4.789   1.009
10249WAT     H230990   6.152   4.694   1.009
10250WAT      O30991   5.425   0.132   2.552
10250WAT     H130992   5.403   0.077   2.632
10250WAT     H230993   5.515   0.174   2.563
10251WAT      O30994   8.135   9.507   3.024
10251WAT     H130995   8.086   9.439   3.078
10251WAT     H230996   8.189   9.462   2.954
10252WAT      O30997   5.523   3.998   2.245
10252WAT     H130998   5.522   4.043   2.156
10252WAT     H230999   5.432   3.964   2.266
10253WAT      O31000   9.371   7.867   2.895
10253WAT     H131001   9.460   7.829   2.871
10253WAT     H231002   9.331   7.816   2.971
10254WAT      O31003   9.484   3.351   9.283
10254WAT     H131004   9.393   3.330   9.319
10254WAT     H231005   9.488   3.449   9.260
10255WAT      O31006   6.756   1.714   0.029
10255WAT     H131007   6.729   1.798  -0.020
10255WAT     H231008   6.692   1.641   0.007
10256WAT      O31009   0.013   6.619   7.938
10256WAT     H131010   0.008   6.553   7.863
10256WAT     H231011  -0.079   6.640   7.971
10257WAT      O31012   5.169   2.238   3.042
10257WAT     H131013   5.114   2.185   2.978
10257WAT     H231014   5.234   2.294   2.992
10258WAT      O31015   0.741   5.007   5.241
10258WAT     H131016   0.794   5.058   5.310
10258WAT     H231017   0.646   5.037   5.244
10259WAT      O31018   5.501   5.723   3.800
10259WAT     H131019   5.458   5.777   3.872
10259WAT     H231020   5.480   5.764   3.711
10260WAT      O31021   8.265   4.551   7.378
10260WAT     H131022   8.327   4.628   7.358
10260WAT     H231023   8.239   4.554   7.474
10261WAT      O31024   2.717   4.012   6.678
10261WAT     H131025   2.640   3.981   6.734
10261WAT     H231026   2.697   4.101   6.639
10262WAT      O31027   8.436   0.612   4.500
10262WAT     H131028   8.383   0.539   4.543
10262WAT     H231029   8.375   0.687   4.474
10263WAT      O31030   3.043   2.384   2.252
10263WAT     H131031   3.103   2.322   2.202
10263WAT     H231032   3.091   2.470   2.269
10264WAT      O31033   1.451   4.145   9.738
10264WAT     H131034   1.529   4.127   9.679
10264WAT     H231035   1.376   4.082   9.714
10265WAT      O31036   3.041   1.061   9.359
10265WAT     H131037   3.122   1.076   9.415
10265WAT     H231038   3.067   1.058   9.262
10266WAT      O31039   8.473   6.587   3.044
10266WAT     H131040   8.435   6.574   2.952
10266WAT     H231041   8.547   6.654   3.041
10267WAT      O31042   7.470   6.988   2.272
10267WAT     H131043   7.395   6.954   2.216
10267WAT     H231044   7.517   7.062   2.224
10268WAT      O31045   7.502   5.779   8.400
10268WAT     H131046   7.548   5.771   8.488
10268WAT     H231047   7.457   5.692   8.379
10269WAT      O31048   7.898   9.313   4.542
10269WAT     H131049   7.863   9.220   4.533
10269WAT     H231050   7.864   9.370   4.467
10270WAT      O31051   3.910   0.775   1.015
10270WAT     H131052   3.982   0.706   1.004
10270WAT     H231053   3.839   0.741   1.076
10271WAT      O31054   0.402   5.225   7.785
10271WAT     H131055   0.316   5.236   7.735
10271WAT     H231056   0.462   5.302   7.765
10272WAT      O31057   7.900   2.669   0.267
10272WAT     H131058   7.809   2.630   0.253
10272WAT     H231059   7.929   2.651   0.361
10273WAT      O31060   7.076   4.904   3.562
10273WAT     H131061   7.039   4.976   3.620
10273WAT     H231062   7.085   4.937   3.468
10274WAT      O31063   7.675   5.101   9.190
10274WAT     H131064   7.684   5.148   9.277
10274WAT     H231065   7.578   5.086   9.170
10275WAT      O31066   8.956   1.873   2.108
10275WAT     H131067   8.983   1.778   2.095
10275WAT     H231068   8.989   1.905   2.197
10276WAT      O31069   5.404   0.002   8.541
10276WAT     H131070   5.468   0.071   8.508
10276WAT     H231071   5.335  -0.016   8.470
10277WAT      O31072   4.301   8.645   4.388
10277WAT     H131073   4.391   8.647   4.345
10277WAT     H231074   4.312   8.637   4.487
10278WAT      O31075   5.543   5.155   8.985
10278WAT     H131076   5.600   5.095   9.040
10278WAT     H231077   5.542   5.123   8.891
10279WAT      O31078   8.342   2.463   7.759
10279WAT     H131079   8.375   2.407   7.834
10279WAT     H231080   8.270   2.415   7.709
10280WAT      O31081   8.518   0.065   6.053
10280WAT     H131082   8.478   0.124   6.124
10280WAT     H231083   8.519  -0.029   6.085
10281WAT      O31084   5.847   2.302   8.487
10281WAT     H131085   5.872   2.248   8.568
10281WAT     H231086   5.928   2.313   8.429
10282WAT      O31087   0.581   8.456   7.085
10282WAT     H131088   0.512   8.416   7.024
10282WAT     H231089   0.663   8.399   7.084
10283WAT      O31090   8.755   0.407   0.342
10283WAT     H131091   8.830   0.375   0.401
10283WAT     H231092   8.757   0.356   0.256
10284WAT      O31093   6.475   8.365   8.727
10284WAT     H131094   6.437   8.375   8.635
10284WAT     H231095   6.408   8.396   8.794
10285WAT      O31096   4.031   1.582   9.266
10285WAT     H131097   4.016   1.486   9.244
10285WAT     H231098   3.945   1.625   9.292
10286WAT      O31099   8.725   5.847   0.870
10286WAT     H131100   8.821   5.820   0.860
10286WAT     H231101   8.707   5.875   0.964
10287WAT      O31102   6.888   6.700   0.977
10287WAT     H131103   6.970   6.688   0.921
10287WAT     H231104   6.864   6.798   0.980
10288WAT      O31105   0.660   0.429   2.870
10288WAT     H131106   0.628   0.382   2.788
10288WAT     H231107   0.582   0.447   2.931
10289WAT      O31108   2.203   3.825   4.444
10289WAT     H131109   2.255   3.829   4.530
10289WAT     H231110   2.150   3.741   4.441
10290WAT      O31111   6.198   2.459   7.995
10290WAT     H131112   6.155   2.464   8.085
10290WAT     H231113   6.297   2.450   8.006
10291WAT      O31114   5.714   0.520   4.461
10291WAT     H131115   5.662   0.605   4.457
10291WAT     H231116   5.772   0.512   4.380
10292WAT      O31117   6.757   9.203   4.015
10292WAT     H131118   6.781   9.249   3.929
10292WAT     H231119   6.674   9.149   4.001
10293WAT      O31120   4.309   3.863   0.414
10293WAT     H131121   4.336   3.899   0.325
10293WAT     H231122   4.296   3.939   0.478
10294WAT      O31123   8.515   5.846   2.703
10294WAT     H131124   8.576   5.770   2.729
10294WAT     H231125   8.560   5.933   2.724
10295WAT      O31126   9.582   2.796   3.295
10295WAT     H131127   9.517   2.866   3.267
10295WAT     H231128   9.645   2.777   3.220
10296WAT      O31129   1.981   1.655   4.272
10296WAT     H131130   2.060   1.710   4.302
10296WAT     H231131   1.956   1.681   4.178
10297WAT      O31132   7.705   9.606   8.444
10297WAT     H131133   7.695   9.615   8.345
10297WAT     H231134   7.779   9.542   8.464
10298WAT      O31135   3.168   2.039   7.319
10298WAT     H131136   3.226   2.119   7.305
10298WAT     H231137   3.086   2.046   7.261
10299WAT      O31138   4.284   8.219   8.520
10299WAT     H131139   4.250   8.222   8.614
10299WAT     H231140   4.208   8.200   8.457
10300WAT      O31141   3.901   2.217   0.521
10300WAT     H131142   3.943   2.156   0.588
10300WAT     H231143   3.949   2.305   0.521
10301WAT      O31144   8.930   5.086   4.029
10301WAT     H131145   8.954   5.122   3.939
10301WAT     H231146   8.985   5.132   4.099
10302WAT      O31147   7.922   1.991   7.022
10302WAT     H131148   7.955   2.052   7.095
10302WAT     H231149   7.904   2.045   6.940
10303WAT      O31150   4.940   2.955   6.419
10303WAT     H131151   4.888   2.874   6.391
10303WAT     H231152   4.908   2.984   6.510
10304WAT      O31153   0.810   4.438   9.795
10304WAT     H131154   0.848   4.408   9.882
10304WAT     H231155   0.717   4.403   9.786
10305WAT      O31156   8.284   4.820   2.281
10305WAT     H131157   8.354   4.889   2.263
10305WAT     H231158   8.317   4.731   2.250
10306WAT      O31159   5.202   8.284   4.717
10306WAT     H131160   5.151   8.261   4.799
10306WAT     H231161   5.180   8.378   4.690
10307WAT      O31162   6.757   3.310   7.607
10307WAT     H131163   6.667   3.285   7.572
10307WAT     H231164   6.819   3.232   7.599
10308WAT      O31165   8.975   6.459   7.244
10308WAT     H131166   9.016   6.512   7.170
10308WAT     H231167   9.035   6.382   7.267
10309WAT      O31168   9.223   1.370   2.434
10309WAT     H131169   9.159   1.385   2.359
10309WAT     H231170   9.293   1.442   2.434
10310WAT      O31171   2.578   3.323   4.061
10310WAT     H131172   2.612   3.380   3.986
10310WAT     H231173   2.517   3.378   4.118
10311WAT      O31174   2.270   2.013   3.179
10311WAT     H131175   2.235   1.936   3.232
10311WAT     H231176   2.362   2.036   3.209
10312WAT      O31177   0.904   2.518   8.457
10312WAT     H131178   0.917   2.463   8.539
10312WAT     H231179   0.808   2.516   8.430
10313WAT      O31180   1.551   8.158   6.342
10313WAT     H131181   1.508   8.178   6.254
10313WAT     H231182   1.485   8.177   6.415
10314WAT      O31183   9.163   1.170   0.373
10314WAT     H131184   9.099   1.094   0.364
10314WAT     H231185   9.141   1.240   0.306
10315WAT      O31186   3.845   5.225   6.868
10315WAT     H131187   3.801   5.145   6.906
10315WAT     H231188   3.801   5.308   6.901
10316WAT      O31189   7.248   2.043   5.800
10316WAT     H131190   7.225   1.995   5.715
10316WAT     H231191   7.226   2.140   5.790
10317WAT      O31192   8.855   8.867   0.571
10317WAT     H131193   8.953   8.885   0.575
10317WAT     H231194   8.841   8.769   0.557
10318WAT      O31195   0.150   4.994   1.977
10318WAT     H131196   0.200   5.080   1.995
10318WAT     H231197   0.066   5.014   1.927
10319WAT      O31198   2.421   6.835   0.456
10319WAT     H131199   2.378   6.818   0.367
10319WAT     H231200   2.428   6.934   0.471
10320WAT      O31201   7.606   7.682   2.480
10320WAT     H131202   7.525   7.741   2.469
10320WAT     H231203   7.587   7.592   2.442
10321WAT      O31204   3.820   3.487   1.303
10321WAT     H131205   3.779   3.562   1.250
10321WAT     H231206   3.880   3.525   1.373
10322WAT      O31207   4.651   7.293   9.082
10322WAT     H131208   4.601   7.229   9.140
10322WAT     H231209   4.745   7.302   9.116
10323WAT      O31210   2.583   9.599   0.921
10323WAT     H131211   2.495   9.554   0.910
10323WAT     H231212   2.571   9.686   0.969
10324WAT      O31213   4.813   7.820   1.038
10324WAT     H131214   4.737   7.762   1.011
10324WAT     H231215   4.861   7.853   0.957
10325WAT      O31216   6.183   8.994   2.332
10325WAT     H131217   6.184   9.093   2.347
10325WAT     H231218   6.163   8.975   2.236
10326WAT      O31219   5.103   0.621   9.215
10326WAT     H131220   5.201   0.604   9.206
10326WAT     H231221   5.053   0.564   9.150
10327WAT      O31222   6.947   4.848   4.081
10327WAT     H131223   6.939   4.822   4.177
10327WAT     H231224   7.037   4.888   4.064
10328WAT      O31225   9.314   7.106   5.234
10328WAT     H131226   9.266   7.102   5.146
10328WAT     H231227   9.399   7.158   5.224
10329WAT      O31228   5.863   4.426   1.584
10329WAT     H131229   5.862   4.503   1.649
10329WAT     H231230   5.774   4.419   1.540
10330WAT      O31231   2.961   9.437   1.577
10330WAT     H131232   2.902   9.369   1.619
10330WAT     H231233   2.933   9.529   1.605
10331WAT      O31234   7.736   3.608   3.078
10331WAT     H131235   7.712   3.660   2.996
10331WAT     H231236   7.738   3.511   3.056
10332WAT      O31237   2.089   5.448   4.891
10332WAT     H131238   2.077   5.544   4.915
10332WAT     H231239   2.063   5.391   4.970
10333WAT      O31240   2.740   6.502   3.738
10333WAT     H131241   2.777   6.491   3.831
10333WAT     H231242   2.712   6.414   3.702
10334WAT      O31243   8.960   2.463   3.892
10334WAT     H131244   8.980   2.396   3.820
10334WAT     H231245   9.018   2.544   3.879
10335WAT      O31246   8.778   6.920   7.484
10335WAT     H131247   8.839   6.988   7.445
10335WAT     H231248   8.705   6.966   7.535
10336WAT      O31249   9.648   9.713   5.177
10336WAT     H131250   9.700   9.795   5.200
10336WAT     H231251   9.705   9.651   5.122
10337WAT      O31252   2.401   5.352   8.292
10337WAT     H131253   2.429   5.283   8.360
10337WAT     H231254   2.383   5.306   8.205
10338WAT      O31255   7.416   8.593   4.665
10338WAT     H131256   7.322   8.593   4.700
10338WAT     H231257   7.480   8.596   4.742
10339WAT      O31258   5.621   2.130   1.418
10339WAT     H131259   5.604   2.037   1.450
10339WAT     H231260   5.596   2.138   1.321
10340WAT      O31261   9.782   6.857   5.225
10340WAT     H131262   9.852   6.803   5.271
10340WAT     H231263   9.730   6.909   5.292
10341WAT      O31264   3.797   6.408   5.939
10341WAT     H131265   3.742   6.366   6.010
10341WAT     H231266   3.744   6.479   5.892
10342WAT      O31267   7.404   3.479   7.596
10342WAT     H131268   7.443   3.415   7.530
10342WAT     H231269   7.439   3.571   7.578
10343WAT      O31270   3.116   0.965   0.569
10343WAT     H131271   3.198   1.020   0.586
10343WAT     H231272   3.108   0.944   0.472
10344WAT      O31273   2.709   8.973   0.879
10344WAT     H131274   2.709   9.042   0.807
10344WAT     H231275   2.791   8.916   0.871
10345WAT      O31276   2.712   8.621   3.630
10345WAT     H131277   2.746   8.569   3.551
10345WAT     H231278   2.635   8.572   3.671
10346WAT      O31279   6.178   4.012   2.776
10346WAT     H131280   6.121   4.034   2.697
10346WAT     H231281   6.250   4.081   2.786
10347WAT      O31282   3.507   2.754   0.726
10347WAT     H131283   3.538   2.758   0.631
10347WAT     H231284   3.583   2.780   0.786
10348WAT      O31285   6.806   8.715   5.874
10348WAT     H131286   6.729   8.670   5.826
10348WAT     H231287   6.851   8.649   5.934
10349WAT      O31288   8.677   3.460   3.211
10349WAT     H131289   8.594   3.428   3.165
10349WAT     H231290   8.694   3.555   3.185
10350WAT      O31291   2.202   1.993   8.779
10350WAT     H131292   2.237   2.082   8.806
10350WAT     H231293   2.109   2.002   8.743
10351WAT      O31294   1.698   6.137   6.740
10351WAT     H131295   1.644   6.107   6.661
10351WAT     H231296   1.765   6.066   6.763
10352WAT      O31297   9.408   7.438   5.923
10352WAT     H131298   9.432   7.502   5.996
10352WAT     H231299   9.370   7.354   5.963
10353WAT      O31300   2.108   8.258   1.079
10353WAT     H131301   2.146   8.169   1.106
10353WAT     H231302   2.183   8.321   1.058
10354WAT      O31303   2.608   0.056   0.099
10354WAT     H131304   2.649  -0.019   0.149
10354WAT     H231305   2.612   0.140   0.154
10355WAT      O31306   5.079   6.485   8.840
10355WAT     H131307   5.072   6.580   8.869
10355WAT     H231308   5.157   6.441   8.884
10356WAT      O31309   0.818   6.761   0.320
10356WAT     H131310   0.881   6.688   0.294
10356WAT     H231311   0.823   6.834   0.251
10357WAT      O31312   1.723   4.350   7.396
10357WAT     H131313   1.624   4.356   7.407
10357WAT     H231314   1.768   4.420   7.452
10358WAT      O31315   9.274   2.445   1.097
10358WAT     H131316   9.309   2.356   1.066
10358WAT     H231317   9.179   2.455   1.067
10359WAT      O31318   7.656   7.803   1.466
10359WAT     H131319   7.715   7.882   1.481
10359WAT     H231320   7.604   7.816   1.381
10360WAT      O31321   9.029   5.478   5.942
10360WAT     H131322   9.042   5.557   5.882
10360WAT     H231323   9.081   5.492   6.026
10361WAT      O31324   4.112   2.729   7.820
10361WAT     H131325   4.045   2.773   7.880
10361WAT     H231326   4.129   2.789   7.741
10362WAT      O31327   2.085   4.916   2.833
10362WAT     H131328   1.998   4.958   2.808
10362WAT     H231329   2.146   4.985   2.872
10363WAT      O31330   6.588   6.585   7.186
10363WAT     H131331   6.489   6.575   7.194
10363WAT     H231332   6.621   6.528   7.110
10364WAT      O31333   9.822   9.695   9.588
10364WAT     H131334   9.868   9.784   9.590
10364WAT     H231335   9.724   9.709   9.576
10365WAT      O31336   0.422   4.279   8.828
10365WAT     H131337   0.467   4.312   8.911
10365WAT     H231338   0.351   4.213   8.854
10366WAT      O31339   2.886   2.830   6.989
10366WAT     H131340   2.934   2.906   7.033
10366WAT     H231341   2.902   2.746   7.041
10367WAT      O31342   7.211   5.024   7.248
10367WAT     H131343   7.301   5.063   7.265
10367WAT     H231344   7.218   4.924   7.243
10368WAT      O31345   5.360   0.110   3.908
10368WAT     H131346   5.279   0.141   3.959
10368WAT     H231347   5.345   0.125   3.810
10369WAT      O31348   2.043   3.455   1.584
10369WAT     H131349   2.073   3.448   1.679
10369WAT     H231350   2.068   3.544   1.547
10370WAT      O31351   1.691   3.988   8.332
10370WAT     H131352   1.614   4.026   8.281
10370WAT     H231353   1.714   3.898   8.296
10371WAT      O31354   7.520   7.729   1.730
10371WAT     H131355   7.553   7.777   1.811
10371WAT     H231356   7.573   7.758   1.650
10372WAT      O31357   2.797   7.821   4.613
10372WAT     H131358   2.843   7.804   4.526
10372WAT     H231359   2.808   7.741   4.673
10373WAT      O31360   3.429   7.288   9.264
10373WAT     H131361   3.468   7.198   9.244
10373WAT     H231362   3.403   7.292   9.361
10374WAT      O31363   5.378   3.121   8.421
10374WAT     H131364   5.475   3.144   8.411
10374WAT     H231365   5.366   3.022   8.412
10375WAT      O31366   0.033   6.020   3.849
10375WAT     H131367   0.024   6.046   3.945
10375WAT     H231368  -0.044   6.058   3.798
10376WAT      O31369   7.096   5.723   3.782
10376WAT     H131370   7.150   5.773   3.849
10376WAT     H231371   6.999   5.731   3.804
10377WAT      O31372   4.380   6.795   5.940
10377WAT     H131373   4.458   6.778   5.880
10377WAT     H231374   4.304   6.735   5.915
10378WAT      O31375   8.917   9.523   6.104
10378WAT     H131376   8.849   9.563   6.043
10378WAT     H231377   8.913   9.423   6.097
10379WAT      O31378   8.908   3.374   4.537
10379WAT     H131379   8.841   3.419   4.596
10379WAT     H231380   8.924   3.431   4.456
10380WAT      O31381   7.893   5.202   3.545
10380WAT     H131382   7.801   5.211   3.508
10380WAT     H231383   7.958   5.246   3.483
10381WAT      O31384   0.580   7.372   7.751
10381WAT     H131385   0.646   7.370   7.676
10381WAT     H231386   0.579   7.283   7.796
10382WAT      O31387   2.409   4.400   4.614
10382WAT     H131388   2.359   4.426   4.696
10382WAT     H231389   2.404   4.301   4.601
10383WAT      O31390   3.450   1.746   0.284
10383WAT     H131391   3.521   1.758   0.353
10383WAT     H231392   3.472   1.667   0.228
10384WAT      O31393   3.677   5.513   3.543
10384WAT     H131394   3.740   5.582   3.509
10384WAT     H231395   3.681   5.512   3.643
10385WAT      O31396   5.147   5.756   8.010
10385WAT     H131397   5.087   5.805   8.073
10385WAT     H231398   5.208   5.821   7.965
10386WAT      O31399   3.126   4.958   9.641
10386WAT     H131400   3.054   5.018   9.607
10386WAT     H231401   3.100   4.919   9.729
10387WAT      O31402   0.543   4.403   6.788
10387WAT     H131403   0.604   4.396   6.709
10387WAT     H231404   0.594   4.383   6.871
10388WAT      O31405   1.980   0.393   1.622
10388WAT     H131406   2.001   0.314   1.680
10388WAT     H231407   2.024   0.381   1.533
10389WAT      O31408   5.304   6.744   2.579
10389WAT     H131409   5.385   6.792   2.613
10389WAT     H231410   5.327   6.648   2.562
10390WAT      O31411   1.558   2.953   3.327
10390WAT     H131412   1.512   3.042   3.324
10390WAT     H231413   1.553   2.916   3.419
10391WAT      O31414   1.230   5.065   6.866
10391WAT     H131415   1.260   5.160   6.863
10391WAT     H231416   1.216   5.031   6.773
10392WAT      O31417   7.275   0.205   0.499
10392WAT     H131418   7.341   0.234   0.430
10392WAT     H231419   7.306   0.119   0.540
10393WAT      O31420   0.431   1.229   1.715
10393WAT     H131421   0.401   1.134   1.724
10393WAT     H231422   0.506   1.234   1.649
10394WAT      O31423   9.590   5.894   8.615
10394WAT     H131424   9.625   5.843   8.537
10394WAT     H231425   9.537   5.833   8.674
10395WAT      O31426   0.650   0.468   3.980
10395WAT     H131427   0.594   0.534   3.930
10395WAT     H231428   0.594   0.425   4.051
10396WAT      O31429   4.043   0.368   7.270
10396WAT     H131430   4.010   0.401   7.359
10396WAT     H231431   4.111   0.297   7.284
10397WAT      O31432   4.634   2.797   7.498
10397WAT     H131433   4.661   2.734   7.572
10397WAT     H231434   4.557   2.758   7.448
10398WAT      O31435   3.873   5.496   1.961
10398WAT     H131436   3.945   5.475   1.896
10398WAT     H231437   3.797   5.541   1.913
10399WAT      O31438   0.210   9.642   7.182
10399WAT     H131439   0.145   9.668   7.253
10399WAT     H231440   0.263   9.723   7.154
10400WAT      O31441   3.880   8.055   3.554
10400WAT     H131442   3.849   8.143   3.589
10400WAT     H231443   3.970   8.066   3.512
10401WAT      O31444   4.313   1.411   4.200
10401WAT     H131445   4.344   1.422   4.105
10401WAT     H231446   4.357   1.331   4.240
10402WAT      O31447   2.618   4.094   9.852
10402WAT     H131448   2.684   4.042   9.796
10402WAT     H231449   2.614   4.054   9.944
10403WAT      O31450   4.299   1.049   1.686
10403WAT     H131451   4.243   0.975   1.724
10403WAT     H231452   4.259   1.079   1.599
10404WAT      O31453   8.278   3.608   6.676
10404WAT     H131454   8.323   3.696   6.657
10404WAT     H231455   8.348   3.539   6.698
10405WAT      O31456   0.299   6.074   8.147
10405WAT     H131457   0.253   6.139   8.086
10405WAT     H231458   0.320   5.990   8.097
10406WAT      O31459   0.936   8.565   7.799
10406WAT     H131460   0.910   8.655   7.762
10406WAT     H231461   1.036   8.558   7.803
10407WAT      O31462   4.716   4.243   6.167
10407WAT     H131463   4.804   4.256   6.120
10407WAT     H231464   4.728   4.259   6.265
10408WAT      O31465   3.541   5.309   7.927
10408WAT     H131466   3.471   5.339   7.992
10408WAT     H231467   3.631   5.313   7.971
10409WAT      O31468   2.986   7.362   2.122
10409WAT     H131469   2.922   7.434   2.150
10409WAT     H231470   2.954   7.322   2.036
10410WAT      O31471   1.625   6.986   9.118
10410WAT     H131472   1.557   6.957   9.185
10410WAT     H231473   1.625   6.922   9.041
10411WAT      O31474   5.513   7.494   7.403
10411WAT     H131475   5.426   7.507   7.355
10411WAT     H231476   5.520   7.399   7.433
10412WAT      O31477   6.862   8.224   8.456
10412WAT     H131478   6.793   8.151   8.461
10412WAT     H231479   6.827   8.306   8.502
10413WAT      O31480   2.181   7.330   8.949
10413WAT     H131481   2.248   7.327   9.023
10413WAT     H231482   2.097   7.375   8.981
10414WAT      O31483   2.099   8.869   4.293
10414WAT     H131484   2.180   8.920   4.264
10414WAT     H231485   2.125   8.774   4.312
10415WAT      O31486   1.406   8.021   0.603
10415WAT     H131487   1.440   8.016   0.697
10415WAT     H231488   1.444   8.102   0.558
10416WAT      O31489   0.385   5.058   1.516
10416WAT     H131490   0.483   5.042   1.505
10416WAT     H231491   0.343   5.072   1.426
10417WAT      O31492   5.143   7.500   3.420
10417WAT     H131493   5.065   7.503   3.483
10417WAT     H231494   5.127   7.562   3.344
10418WAT      O31495   0.996   4.074   2.251
10418WAT     H131496   1.003   3.988   2.200
10418WAT     H231497   0.979   4.149   2.188
10419WAT      O31498   7.012   5.780   6.475
10419WAT     H131499   7.100   5.766   6.430
10419WAT     H231500   6.974   5.691   6.502
10420WAT      O31501   6.586   3.412   3.626
10420WAT     H131502   6.603   3.317   3.654
10420WAT     H231503   6.674   3.459   3.613
10421WAT      O31504   9.414   8.755   6.640
10421WAT     H131505   9.344   8.763   6.711
10421WAT     H231506   9.418   8.840   6.588
10422WAT      O31507   2.559   3.683   1.032
10422WAT     H131508   2.658   3.694   1.018
10422WAT     H231509   2.511   3.745   0.971
10423WAT      O31510   0.621   1.342   1.174
10423WAT     H131511   0.633   1.440   1.156
10423WAT     H231512   0.658   1.290   1.097
10424WAT      O31513   7.400   5.559   2.926
10424WAT     H131514   7.424   5.482   2.868
10424WAT     H231515   7.469   5.631   2.918
10425WAT      O31516   4.692   2.292   0.264
10425WAT     H131517   4.705   2.255   0.356
10425WAT     H231518   4.595   2.285   0.240
10426WAT      O31519   6.576   8.596   9.792
10426WAT     H131520   6.571   8.580   9.693
10426WAT     H231521   6.503   8.546   9.838
10427WAT      O31522   0.659   6.147   5.085
10427WAT     H131523   0.702   6.232   5.053
10427WAT     H231524   0.713   6.069   5.054
10428WAT      O31525   3.565   0.364   1.942
10428WAT     H131526   3.533   0.379   1.849
10428WAT     H231527   3.488   0.344   2.002
10429WAT      O31528   8.006   0.713   6.392
10429WAT     H131529   8.010   0.772   6.472
10429WAT     H231530   8.099   0.699   6.357
10430WAT      O31531   6.824   1.023   4.274
10430WAT     H131532   6.923   1.033   4.264
10430WAT     H231533   6.779   1.042   4.187
10431WAT      O31534   1.832   2.973   8.141
10431WAT     H131535   1.921   2.989   8.183
10431WAT     H231536   1.761   3.020   8.193
10432WAT      O31537   1.812   6.139   1.609
10432WAT     H131538   1.807   6.238   1.595
10432WAT     H231539   1.722   6.099   1.595
10433WAT      O31540   0.657   9.773   0.529
10433WAT     H131541   0.574   9.780   0.473
10433WAT     H231542   0.631   9.751   0.623
10434WAT      O31543   9.049   3.365   9.151
10434WAT     H131544   9.035   3.423   9.231
10434WAT     H231545   9.061   3.270   9.181
10435WAT      O31546   5.954   8.736   7.303
10435WAT     H131547   5.941   8.823   7.255
10435WAT     H231548   5.942   8.750   7.401
10436WAT      O31549   6.895   6.169   6.491
10436WAT     H131550   6.927   6.219   6.572
10436WAT     H231551   6.964   6.174   6.419
10437WAT      O31552   8.419   9.242   9.151
10437WAT     H131553   8.449   9.330   9.114
10437WAT     H231554   8.491   9.205   9.210
10438WAT      O31555   4.586   4.913   6.294
10438WAT     H131556   4.534   4.955   6.369
10438WAT     H231557   4.572   4.966   6.210
10439WAT      O31558   7.738   3.994   5.808
10439WAT     H131559   7.653   3.984   5.859
10439WAT     H231560   7.774   4.086   5.820
10440WAT      O31561   7.025   6.665   2.589
10440WAT     H131562   6.954   6.629   2.528
10440WAT     H231563   7.097   6.707   2.534
10441WAT      O31564   1.052   7.824   1.011
10441WAT     H131565   0.997   7.902   1.042
10441WAT     H231566   0.993   7.745   0.998
10442WAT      O31567   4.676   3.429   6.298
10442WAT     H131568   4.693   3.330   6.301
10442WAT     H231569   4.739   3.471   6.232
10443WAT      O31570   8.905   5.500   9.693
10443WAT     H131571   8.996   5.524   9.659
10443WAT     H231572   8.910   5.484   9.792
10444WAT      O31573   9.015   5.269   9.015
10444WAT     H131574   8.965   5.225   8.940
10444WAT     H231575   8.967   5.251   9.101
10445WAT      O31576   9.050   7.384   9.653
10445WAT     H131577   9.144   7.393   9.686
10445WAT     H231578   9.015   7.293   9.675
10446WAT      O31579   8.504   5.443   3.317
10446WAT     H131580   8.511   5.365   3.378
10446WAT     H231581   8.580   5.506   3.334
10447WAT      O31582   7.780   4.712   2.520
10447WAT     H131583   7.792   4.703   2.619
10447WAT     H231584   7.769   4.809   2.498
10448WAT      O31585   0.497   4.183   0.781
10448WAT     H131586   0.416   4.192   0.723
10448WAT     H231587   0.538   4.272   0.796
10449WAT      O31588   3.064   0.218   1.541
10449WAT     H131589   3.144   0.174   1.583
10449WAT     H231590   3.055   0.187   1.446
10450WAT      O31591   3.789   3.734   0.395
10450WAT     H131592   3.710   3.692   0.351
10450WAT     H231593   3.841   3.665   0.443
10451WAT      O31594   4.929   8.059   7.271
10451WAT     H131595   4.855   7.994   7.288
10451WAT     H231596   4.997   8.017   7.210
10452WAT      O31597   0.526   9.605   2.995
10452WAT     H131598   0.446   9.656   3.025
10452WAT     H231599   0.580   9.578   3.075
10453WAT      O31600   8.025   3.397   8.507
10453WAT     H131601   8.094   3.458   8.546
10453WAT     H231602   8.018   3.412   8.409
10454WAT      O31603   5.852   3.775   8.617
10454WAT     H131604   5.794   3.766   8.536
10454WAT     H231605   5.838   3.865   8.658
10455WAT      O31606   3.507   8.270   7.610
10455WAT     H131607   3.543   8.203   7.675
10455WAT     H231608   3.445   8.333   7.657
10456WAT      O31609   0.910   2.592   1.598
10456WAT     H131610   1.001   2.611   1.562
10456WAT     H231611   0.867   2.678   1.626
10457WAT      O31612   4.480   8.179   0.365
10457WAT     H131613   4.454   8.243   0.292
10457WAT     H231614   4.444   8.088   0.343
10458WAT      O31615   6.554   6.467   3.962
10458WAT     H131616   6.532   6.476   3.865
10458WAT     H231617   6.480   6.505   4.017
10459WAT      O31618   9.725   0.383   5.590
10459WAT     H131619   9.649   0.412   5.649
10459WAT     H231620   9.766   0.300   5.627
10460WAT      O31621   3.856   6.101   4.144
10460WAT     H131622   3.860   6.173   4.213
10460WAT     H231623   3.762   6.092   4.111
10461WAT      O31624   0.521   9.016   5.941
10461WAT     H131625   0.461   9.000   5.862
10461WAT     H231626   0.500   8.948   6.012
10462WAT      O31627   5.201   5.290   8.589
10462WAT     H131628   5.290   5.324   8.561
10462WAT     H231629   5.137   5.366   8.596
10463WAT      O31630   5.791   4.055   0.035
10463WAT     H131631   5.787   4.144  -0.011
10463WAT     H231632   5.704   4.008   0.025
10464WAT      O31633   8.588   0.591   5.853
10464WAT     H131634   8.611   0.600   5.950
10464WAT     H231635   8.605   0.497   5.823
10465WAT      O31636   2.573   3.220   8.496
10465WAT     H131637   2.474   3.206   8.493
10465WAT     H231638   2.596   3.304   8.447
10466WAT      O31639   7.598   0.916   8.880
10466WAT     H131640   7.631   0.860   8.803
10466WAT     H231641   7.591   0.859   8.962
10467WAT      O31642   9.014   5.870   3.395
10467WAT     H131643   9.020   5.811   3.475
10467WAT     H231644   9.106   5.892   3.363
10468WAT      O31645   6.160   0.687   8.809
10468WAT     H131646   6.097   0.756   8.773
10468WAT     H231647   6.207   0.724   8.889
10469WAT      O31648   8.748   6.464   7.118
10469WAT     H131649   8.705   6.535   7.173
10469WAT     H231650   8.841   6.447   7.151
10470WAT      O31651   5.950   0.292   4.545
10470WAT     H131652   5.894   0.210   4.544
10470WAT     H231653   6.040   0.272   4.505
10471WAT      O31654   1.989   5.802   0.262
10471WAT     H131655   1.945   5.714   0.246
10471WAT     H231656   1.950   5.870   0.199
10472WAT      O31657   4.754   5.196   6.218
10472WAT     H131658   4.684   5.164   6.154
10472WAT     H231659   4.723   5.281   6.262
10473WAT      O31660   0.131   3.891   3.698
10473WAT     H131661   0.179   3.837   3.767
10473WAT     H231662   0.191   3.905   3.619
10474WAT      O31663   3.690   1.100   7.092
10474WAT     H131664   3.737   1.048   7.164
10474WAT     H231665   3.709   1.197   7.104
10475WAT      O31666   6.475   0.445   5.481
10475WAT     H131667   6.462   0.397   5.567
10475WAT     H231668   6.386   0.460   5.437
10476WAT      O31669   9.864   5.231   5.631
10476WAT     H131670   9.866   5.325   5.599
10476WAT     H231671   9.796   5.179   5.580
10477WAT      O31672   4.737   7.716   0.742
10477WAT     H131673   4.807   7.645   0.734
10477WAT     H231674   4.671   7.689   0.812
10478WAT      O31675   6.179   8.604   4.262
10478WAT     H131676   6.090   8.607   4.307
10478WAT     H231677   6.167   8.579   4.166
10479WAT      O31678   9.079   0.212   5.963
10479WAT     H131679   9.086   0.311   5.948
10479WAT     H231680   8.994   0.192   6.013
10480WAT      O31681   5.430   9.445   4.194
10480WAT     H131682   5.473   9.510   4.257
10480WAT     H231683   5.345   9.412   4.235
10481WAT      O31684   2.013   1.038   5.357
10481WAT     H131685   2.067   1.122   5.362
10481WAT     H231686   1.919   1.061   5.329
10482WAT      O31687   0.243   9.278   0.513
10482WAT     H131688   0.152   9.240   0.525
10482WAT     H231689   0.245   9.333   0.429
10483WAT      O31690   7.316   4.920   2.806
10483WAT     H131691   7.356   5.001   2.848
10483WAT     H231692   7.216   4.923   2.816
10484WAT      O31693   7.397   8.901   0.229
10484WAT     H131694   7.330   8.828   0.211
10484WAT     H231695   7.430   8.938   0.142
10485WAT      O31696   5.476   1.500   5.417
10485WAT     H131697   5.444   1.532   5.506
10485WAT     H231698   5.556   1.442   5.430
10486WAT      O31699   8.222   3.926   4.266
10486WAT     H131700   8.232   4.023   4.247
10486WAT     H231701   8.289   3.874   4.214
10487WAT      O31702   5.008   3.060   8.346
10487WAT     H131703   5.024   3.067   8.445
10487WAT     H231704   5.075   3.117   8.298
10488WAT      O31705   8.893   8.451   0.182
10488WAT     H131706   8.802   8.488   0.169
10488WAT     H231707   8.944   8.456   0.096
10489WAT      O31708   8.374   6.430   2.314
10489WAT     H131709   8.454   6.487   2.328
10489WAT     H231710   8.402   6.337   2.291
10490WAT      O31711   5.975   4.917   6.378
10490WAT     H131712   5.945   4.966   6.296
10490WAT     H231713   5.895   4.883   6.427
10491WAT      O31714   5.789   2.128   0.917
10491WAT     H131715   5.800   2.208   0.975
10491WAT     H231716   5.875   2.077   0.913
10492WAT      O31717   3.382   2.220   7.244
10492WAT     H131718   3.455   2.184   7.304
10492WAT     H231719   3.368   2.157   7.168
10493WAT      O31720   1.971   9.024   7.944
10493WAT     H131721   2.011   8.933   7.932
10493WAT     H231722   1.934   9.056   7.857
10494WAT      O31723   9.710   5.293   0.221
10494WAT     H131724   9.777   5.366   0.207
10494WAT     H231725   9.683   5.291   0.317
10495WAT      O31726   6.945   7.923   9.493
10495WAT     H131727   6.866   7.867   9.471
10495WAT     H231728   6.937   8.012   9.449
10496WAT      O31729   5.603   0.280   0.253
10496WAT     H131730   5.519   0.327   0.228
10496WAT     H231731   5.585   0.215   0.327
10497WAT      O31732   0.394   9.159   7.092
10497WAT     H131733   0.379   9.190   6.998
10497WAT     H231734   0.377   9.235   7.155
10498WAT      O31735   4.372   4.716   2.377
10498WAT     H131736   4.373   4.617   2.368
10498WAT     H231737   4.372   4.758   2.287
10499WAT      O31738   1.162   1.191   5.809
10499WAT     H131739   1.248   1.240   5.792
10499WAT     H231740   1.086   1.255   5.799
10500WAT      O31741   1.854   4.884   9.401
10500WAT     H131742   1.835   4.841   9.490
10500WAT     H231743   1.890   4.976   9.416
10501WAT      O31744   6.342   1.805   0.818
10501WAT     H131745   6.344   1.706   0.836
10501WAT     H231746   6.338   1.854   0.905
10502WAT      O31747   9.838   6.750   1.511
10502WAT     H131748   9.750   6.714   1.544
10502WAT     H231749   9.832   6.849   1.500
10503WAT      O31750   8.194   7.518   3.690
10503WAT     H131751   8.106   7.542   3.650
10503WAT     H231752   8.179   7.463   3.772
10504WAT      O31753   9.538   6.262   2.262
10504WAT     H131754   9.466   6.204   2.301
10504WAT     H231755   9.506   6.302   2.176
10505WAT      O31756   7.679   4.389   6.661
10505WAT     H131757   7.743   4.314   6.647
10505WAT     H231758   7.654   4.428   6.572
10506WAT      O31759   9.387   3.192   7.758
10506WAT     H131760   9.379   3.123   7.830
10506WAT     H231761   9.321   3.265   7.774
10507WAT      O31762   7.207   9.454   9.510
10507WAT     H131763   7.169   9.538   9.548
10507WAT     H231764   7.136   9.383   9.508
10508WAT      O31765   3.086   6.472   5.956
10508WAT     H131766   3.051   6.379   5.968
10508WAT     H231767   3.162   6.487   6.018
10509WAT      O31768   5.137   8.044   0.964
10509WAT     H131769   5.062   8.000   0.914
10509WAT     H231770   5.188   7.974   1.014
10510WAT      O31771   9.250   8.849   6.280
10510WAT     H131772   9.321   8.895   6.333
10510WAT     H231773   9.287   8.821   6.192
10511WAT      O31774   0.302   2.738   5.252
10511WAT     H131775   0.387   2.716   5.205
10511WAT     H231776   0.321   2.764   5.346
10512WAT      O31777   0.731   7.291   4.438
10512WAT     H131778   0.770   7.248   4.520
10512WAT     H231779   0.782   7.262   4.357
10513WAT      O31780   7.207   0.273   9.622
10513WAT     H131781   7.205   0.350   9.558
10513WAT     H231782   7.270   0.203   9.588
10514WAT      O31783   1.997   4.299   5.554
10514WAT     H131784   1.931   4.324   5.625
10514WAT     H231785   1.957   4.227   5.496
10515WAT      O31786   4.607   1.585   1.376
10515WAT     H131787   4.632   1.637   1.295
10515WAT     H231788   4.650   1.625   1.457
10516WAT      O31789   1.822   7.855   4.054
10516WAT     H131790   1.803   7.805   3.970
10516WAT     H231791   1.920   7.872   4.061
10517WAT      O31792   5.076   2.475   1.993
10517WAT     H131793   5.049   2.488   1.898
10517WAT     H231794   5.104   2.563   2.032
10518WAT      O31795   2.078   2.807   4.928
10518WAT     H131796   2.014   2.849   4.992
10518WAT     H231797   2.138   2.877   4.890
10519WAT      O31798   2.989   9.523   0.991
10519WAT     H131799   2.975   9.435   0.945
10519WAT     H231800   2.904   9.551   1.036
10520WAT      O31801   2.101   3.697   5.861
10520WAT     H131802   2.166   3.771   5.845
10520WAT     H231803   2.119   3.622   5.798
10521WAT      O31804   0.202   9.246   7.928
10521WAT     H131805   0.216   9.266   7.831
10521WAT     H231806   0.244   9.319   7.983
10522WAT      O31807   8.569   2.337   8.395
10522WAT     H131808   8.577   2.388   8.309
10522WAT     H231809   8.530   2.396   8.466
10523WAT      O31810   7.212   1.988   4.396
10523WAT     H131811   7.125   2.000   4.444
10523WAT     H231812   7.208   1.903   4.342
10524WAT      O31813   6.423   9.486   9.467
10524WAT     H131814   6.392   9.420   9.398
10524WAT     H231815   6.514   9.519   9.443
10525WAT      O31816   0.064   7.055   1.343
10525WAT     H131817   0.112   7.127   1.293
10525WAT     H231818   0.132   6.999   1.391
10526WAT      O31819   5.049   6.074   2.654
10526WAT     H131820   4.957   6.108   2.675
10526WAT     H231821   5.044   5.978   2.629
10527WAT      O31822   5.988   1.492   6.159
10527WAT     H131823   6.025   1.579   6.129
10527WAT     H231824   5.902   1.474   6.111
10528WAT      O31825   3.133   3.747   0.536
10528WAT     H131826   3.069   3.794   0.475
10528WAT     H231827   3.201   3.811   0.570
10529WAT      O31828   6.062   4.036   6.243
10529WAT     H131829   6.077   4.061   6.338
10529WAT     H231830   5.996   3.960   6.239
10530WAT      O31831   0.555   7.163   7.921
10530WAT     H131832   0.614   7.086   7.948
10530WAT     H231833   0.480   7.172   7.986
10531WAT      O31834   7.464   7.771   8.976
10531WAT     H131835   7.369   7.738   8.981
10531WAT     H231836   7.509   7.729   8.897
10532WAT      O31837   4.112   7.769   4.974
10532WAT     H131838   4.187   7.749   5.038
10532WAT     H231839   4.119   7.709   4.895
10533WAT      O31840   1.177   4.770   7.952
10533WAT     H131841   1.126   4.695   7.994
10533WAT     H231842   1.183   4.846   8.017
10534WAT      O31843   0.658   6.962   3.880
10534WAT     H131844   0.582   6.901   3.857
10534WAT     H231845   0.702   6.930   3.964
10535WAT      O31846   9.072   0.786   5.589
10535WAT     H131847   9.038   0.878   5.606
10535WAT     H231848   9.089   0.775   5.491
10536WAT      O31849   7.873   6.713   1.077
10536WAT     H131850   7.780   6.748   1.071
10536WAT     H231851   7.901   6.678   0.988
10537WAT      O31852   8.758   8.478   6.226
10537WAT     H131853   8.717   8.566   6.202
10537WAT     H231854   8.708   8.437   6.302
10538WAT      O31855   6.887   2.368   9.757
10538WAT     H131856   6.923   2.276   9.743
10538WAT     H231857   6.958   2.425   9.797
10539WAT      O31858   3.433   3.413   8.939
10539WAT     H131859   3.440   3.336   8.876
10539WAT     H231860   3.483   3.491   8.901
10540WAT      O31861   4.665   8.260   4.234
10540WAT     H131862   4.694   8.184   4.293
10540WAT     H231863   4.745   8.297   4.186
10541WAT      O31864   1.872   7.469   3.279
10541WAT     H131865   1.954   7.470   3.336
10541WAT     H231866   1.879   7.393   3.213
10542WAT      O31867   7.252   6.518   8.305
10542WAT     H131868   7.172   6.461   8.291
10542WAT     H231869   7.294   6.539   8.216
10543WAT      O31870   8.891   8.515   9.327
10543WAT     H131871   8.885   8.560   9.238
10543WAT     H231872   8.952   8.436   9.322
10544WAT      O31873   2.512   4.718   4.210
10544WAT     H131874   2.461   4.783   4.155
10544WAT     H231875   2.610   4.725   4.188
10545WAT      O31876   9.849   0.821   3.463
10545WAT     H131877   9.823   0.785   3.374
10545WAT     H231878   9.936   0.869   3.456
10546WAT      O31879   3.471   6.173   1.705
10546WAT     H131880   3.395   6.121   1.744
10546WAT     H231881   3.441   6.266   1.685
10547WAT      O31882   9.378   4.706   1.032
10547WAT     H131883   9.428   4.728   0.948
10547WAT     H231884   9.412   4.762   1.107
10548WAT      O31885   8.946   8.648   4.295
10548WAT     H131886   8.868   8.698   4.333
10548WAT     H231887   8.989   8.594   4.366
10549WAT      O31888   2.531   9.116   5.617
10549WAT     H131889   2.516   9.030   5.666
10549WAT     H231890   2.505   9.193   5.676
10550WAT      O31891   5.513   1.610   9.542
10550WAT     H131892   5.534   1.613   9.445
10550WAT     H231893   5.522   1.516   9.576
10551WAT      O31894   5.127   1.774   1.871
10551WAT     H131895   5.195   1.775   1.797
10551WAT     H231896   5.049   1.718   1.844
10552WAT      O31897   0.415   8.205   9.257
10552WAT     H131898   0.357   8.229   9.179
10552WAT     H231899   0.510   8.231   9.236
10553WAT      O31900   7.924   7.451   4.715
10553WAT     H131901   7.910   7.388   4.791
10553WAT     H231902   7.837   7.493   4.689
10554WAT      O31903   3.940   0.615   9.197
10554WAT     H131904   3.853   0.568   9.179
10554WAT     H231905   4.011   0.576   9.139
10555WAT      O31906   1.196   2.284   6.836
10555WAT     H131907   1.131   2.222   6.793
10555WAT     H231908   1.253   2.233   6.900
10556WAT      O31909   2.297   9.529   9.574
10556WAT     H131910   2.212   9.579   9.556
10556WAT     H231911   2.374   9.594   9.574
10557WAT      O31912   6.972   9.070   4.129
10557WAT     H131913   7.045   9.030   4.072
10557WAT     H231914   6.909   9.120   4.070
10558WAT      O31915   5.054   7.174   2.426
10558WAT     H131916   5.034   7.086   2.468
10558WAT     H231917   5.071   7.242   2.497
10559WAT      O31918   6.275   8.333   2.125
10559WAT     H131919   6.248   8.307   2.218
10559WAT     H231920   6.286   8.432   2.120
10560WAT      O31921   2.545   1.602   0.969
10560WAT     H131922   2.457   1.575   0.931
10560WAT     H231923   2.544   1.699   0.992
10561WAT      O31924   3.948   9.024   7.406
10561WAT     H131925   3.982   9.107   7.451
10561WAT     H231926   3.853   9.009   7.433
10562WAT      O31927   2.807   5.485   7.478
10562WAT     H131928   2.787   5.398   7.524
10562WAT     H231929   2.743   5.497   7.402
10563WAT      O31930   0.751   3.827   0.645
10563WAT     H131931   0.818   3.804   0.575
10563WAT     H231932   0.666   3.857   0.601
10564WAT      O31933   0.707   8.356   4.602
10564WAT     H131934   0.806   8.367   4.589
10564WAT     H231935   0.691   8.313   4.691
10565WAT      O31936   8.188   8.828   6.985
10565WAT     H131937   8.148   8.908   7.029
10565WAT     H231938   8.164   8.746   7.038
10566WAT      O31939   4.214   0.974   8.916
10566WAT     H131940   4.117   0.965   8.897
10566WAT     H231941   4.228   1.001   9.011
10567WAT      O31942   6.572   3.629   5.851
10567WAT     H131943   6.570   3.692   5.774
10567WAT     H231944   6.638   3.556   5.833
10568WAT      O31945   5.021   4.329   7.426
10568WAT     H131946   5.054   4.235   7.431
10568WAT     H231947   5.016   4.357   7.330
10569WAT      O31948   1.623   4.498   1.886
10569WAT     H131949   1.655   4.583   1.843
10569WAT     H231950   1.587   4.517   1.977
10570WAT      O31951   2.688   6.561   9.161
10570WAT     H131952   2.721   6.596   9.249
10570WAT     H231953   2.690   6.461   9.163
10571WAT      O31954   1.516   7.279   2.506
10571WAT     H131955   1.462   7.348   2.555
10571WAT     H231956   1.613   7.295   2.523
10572WAT      O31957   6.919   7.197   9.367
10572WAT     H131958   6.871   7.273   9.410
10572WAT     H231959   6.864   7.163   9.290
10573WAT      O31960   9.755   7.088   6.293
10573WAT     H131961   9.753   6.990   6.277
10573WAT     H231962   9.845   7.114   6.329
10574WAT      O31963   8.913   2.496   7.314
10574WAT     H131964   8.879   2.588   7.337
10574WAT     H231965   8.866   2.429   7.370
10575WAT      O31966   5.503   2.616   4.784
10575WAT     H131967   5.424   2.656   4.738
10575WAT     H231968   5.480   2.597   4.879
10576WAT      O31969   9.457   2.874   8.532
10576WAT     H131970   9.462   2.775   8.526
10576WAT     H231971   9.476   2.914   8.442
10577WAT      O31972   9.063   8.315   9.650
10577WAT     H131973   9.077   8.297   9.553
10577WAT     H231974   9.047   8.229   9.698
10578WAT      O31975   6.411   9.123   0.204
10578WAT     H131976   6.457   9.034   0.199
10578WAT     H231977   6.348   9.123   0.282
10579WAT      O31978   8.482   0.364   1.215
10579WAT     H131979   8.525   0.294   1.157
10579WAT     H231980   8.458   0.443   1.159
10580WAT      O31981   7.840   3.039   9.135
10580WAT     H131982   7.889   3.058   9.050
10580WAT     H231983   7.906   3.037   9.211
10581WAT      O31984   8.613   9.028   6.401
10581WAT     H131985   8.528   8.977   6.390
10581WAT     H231986   8.625   9.053   6.497
10582WAT      O31987   3.832   6.674   9.623
10582WAT     H131988   3.888   6.595   9.648
10582WAT     H231989   3.891   6.747   9.588
10583WAT      O31990   7.388   5.392   2.522
10583WAT     H131991   7.290   5.376   2.528
10583WAT     H231992   7.428   5.330   2.454
10584WAT      O31993   4.827   9.252   8.233
10584WAT     H131994   4.804   9.166   8.187
10584WAT     H231995   4.884   9.233   8.312
10585WAT      O31996   5.352   6.795   8.766
10585WAT     H131997   5.390   6.707   8.738
10585WAT     H231998   5.302   6.784   8.852
10586WAT      O31999   8.669   4.742   2.845
10586WAT     H132000   8.598   4.753   2.914
10586WAT     H232001   8.754   4.784   2.879
10587WAT      O32002   1.664   9.315   0.230
10587WAT     H132003   1.568   9.294   0.210
10587WAT     H232004   1.710   9.343   0.146
10588WAT      O32005   4.318   8.238   4.541
10588WAT     H132006   4.221   8.250   4.560
10588WAT     H232007   4.369   8.317   4.573
10589WAT      O32008   0.029   0.493   5.019
10589WAT     H132009   0.050   0.398   5.039
10589WAT     H232010  -0.070   0.507   5.027
10590WAT      O32011   7.607   7.243   7.316
10590WAT     H132012   7.625   7.177   7.243
10590WAT     H232013   7.627   7.335   7.284
10591WAT      O32014   6.689   7.196   9.704
10591WAT     H132015   6.630   7.185   9.624
10591WAT     H232016   6.632   7.217   9.784
10592WAT      O32017   4.792   2.324   9.034
10592WAT     H132018   4.728   2.273   8.976
10592WAT     H232019   4.746   2.354   9.117
10593WAT      O32020   2.469   2.417   8.793
10593WAT     H132021   2.398   2.350   8.813
10593WAT     H232022   2.428   2.500   8.756
10594WAT      O32023   5.420   6.471   7.334
10594WAT     H132024   5.473   6.408   7.277
10594WAT     H232025   5.471   6.492   7.417
10595WAT      O32026   6.323   3.865   0.392
10595WAT     H132027   6.373   3.898   0.472
10595WAT     H232028   6.368   3.783   0.356
10596WAT      O32029   2.741   2.501   7.376
10596WAT     H132030   2.642   2.491   7.369
10596WAT     H232031   2.779   2.424   7.427
10597WAT      O32032   4.906   3.651   3.728
10597WAT     H132033   4.970   3.685   3.659
10597WAT     H232034   4.842   3.724   3.753
10598WAT      O32035   7.057   8.347   4.341
10598WAT     H132036   6.973   8.303   4.308
10598WAT     H232037   7.037   8.441   4.368
10599WAT      O32038   5.113   0.555   1.862
10599WAT     H132039   5.149   0.502   1.786
10599WAT     H232040   5.057   0.630   1.827
10600WAT      O32041   6.898   3.628   8.985
10600WAT     H132042   6.937   3.672   9.067
10600WAT     H232043   6.823   3.684   8.949
10601WAT      O32044   2.296   9.606   8.245
10601WAT     H132045   2.249   9.521   8.225
10601WAT     H232046   2.257   9.647   8.328
10602WAT      O32047   3.541   5.150   8.965
10602WAT     H132048   3.500   5.241   8.962
10602WAT     H232049   3.612   5.143   8.894
10603WAT      O32050   9.408   5.381   8.171
10603WAT     H132051   9.503   5.412   8.177
10603WAT     H232052   9.406   5.288   8.136
10604WAT      O32053   6.112   0.277   3.368
10604WAT     H132054   6.038   0.218   3.399
10604WAT     H232055   6.090   0.313   3.278
10605WAT      O32056   8.411   4.809   9.174
10605WAT     H132057   8.481   4.802   9.245
10605WAT     H232058   8.345   4.735   9.185
10606WAT      O32059   4.670   8.754   1.741
10606WAT     H132060   4.614   8.796   1.670
10606WAT     H232061   4.738   8.819   1.773
10607WAT      O32062   9.408   5.544   1.979
10607WAT     H132063   9.386   5.641   1.983
10607WAT     H232064   9.457   5.517   2.062
10608WAT      O32065   1.899   8.123   6.868
10608WAT     H132066   1.986   8.165   6.839
10608WAT     H232067   1.901   8.108   6.966
10609WAT      O32068   8.223   8.777   1.479
10609WAT     H132069   8.125   8.761   1.463
10609WAT     H232070   8.245   8.872   1.457
10610WAT      O32071   1.450   7.704   0.038
10610WAT     H132072   1.517   7.703   0.112
10610WAT     H232073   1.391   7.623   0.045
10611WAT      O32074   8.980   4.135   0.672
10611WAT     H132075   9.002   4.053   0.619
10611WAT     H232076   8.964   4.109   0.767
10612WAT      O32077   6.600   1.209   1.407
10612WAT     H132078   6.501   1.198   1.415
10612WAT     H232079   6.646   1.126   1.437
10613WAT      O32080   1.297   4.669   2.030
10613WAT     H132081   1.365   4.739   2.011
10613WAT     H232082   1.289   4.656   2.129
10614WAT      O32083   9.641   5.741   1.023
10614WAT     H132084   9.691   5.810   1.074
10614WAT     H232085   9.661   5.750   0.925
10615WAT      O32086   8.021   6.692   7.850
10615WAT     H132087   7.977   6.613   7.892
10615WAT     H232088   7.982   6.707   7.758
10616WAT      O32089   8.391   4.967   3.406
10616WAT     H132090   8.367   5.061   3.381
10616WAT     H232091   8.307   4.913   3.416
10617WAT      O32092   0.508   5.737   3.494
10617WAT     H132093   0.608   5.743   3.482
10617WAT     H232094   0.484   5.774   3.584
10618WAT      O32095   6.558   0.677   0.817
10618WAT     H132096   6.516   0.765   0.797
10618WAT     H232097   6.488   0.605   0.813
10619WAT      O32098   8.709   6.596   8.469
10619WAT     H132099   8.662   6.576   8.555
10619WAT     H232100   8.642   6.612   8.397
10620WAT      O32101   0.304   5.058   2.619
10620WAT     H132102   0.239   5.071   2.694
10620WAT     H232103   0.325   5.146   2.577
10621WAT      O32104   3.302   9.309   1.879
10621WAT     H132105   3.267   9.216   1.869
10621WAT     H232106   3.268   9.365   1.803
10622WAT      O32107   6.068   2.820   1.459
10622WAT     H132108   5.987   2.871   1.433
10622WAT     H232109   6.079   2.822   1.559
10623WAT      O32110   1.787   9.677   5.620
10623WAT     H132111   1.698   9.698   5.579
10623WAT     H232112   1.840   9.761   5.629
10624WAT      O32113   1.725   2.734   8.091
10624WAT     H132114   1.745   2.827   8.121
10624WAT     H232115   1.683   2.736   8.000
10625WAT      O32116   9.105   0.830   2.755
10625WAT     H132117   9.025   0.889   2.770
10625WAT     H232118   9.080   0.756   2.694
10626WAT      O32119   0.753   8.086   4.007
10626WAT     H132120   0.823   8.158   4.001
10626WAT     H232121   0.663   8.128   4.012
10627WAT      O32122   5.021   7.452   6.958
10627WAT     H132123   4.966   7.477   6.878
10627WAT     H232124   4.987   7.366   6.996
10628WAT      O32125   0.337   6.230   3.545
10628WAT     H132126   0.301   6.146   3.585
10628WAT     H232127   0.432   6.216   3.518
10629WAT      O32128   4.098   2.954   4.827
10629WAT     H132129   4.193   2.929   4.809
10629WAT     H232130   4.038   2.876   4.808
10630WAT      O32131   4.184   2.915   3.069
10630WAT     H132132   4.131   2.948   2.991
10630WAT     H232133   4.211   2.820   3.054
10631WAT      O32134   5.205   7.732   8.547
10631WAT     H132135   5.182   7.698   8.638
10631WAT     H232136   5.191   7.659   8.480
10632WAT      O32137   9.094   6.656   6.292
10632WAT     H132138   9.063   6.620   6.380
10632WAT     H232139   9.023   6.715   6.253
10633WAT      O32140   3.643   2.274   9.442
10633WAT     H132141   3.581   2.285   9.519
10633WAT     H232142   3.729   2.322   9.461
10634WAT      O32143   6.313   4.599   6.812
10634WAT     H132144   6.278   4.665   6.879
10634WAT     H232145   6.349   4.649   6.733
10635WAT      O32146   2.062   8.168   2.272
10635WAT     H132147   1.998   8.145   2.199
10635WAT     H232148   2.155   8.143   2.245
10636WAT      O32149   1.050   9.586   3.483
10636WAT     H132150   1.087   9.677   3.465
10636WAT     H232151   1.082   9.553   3.572
10637WAT      O32152   7.590   7.069   7.998
10637WAT     H132153   7.685   7.057   7.969
10637WAT     H232154   7.587   7.110   8.088
10638WAT      O32155   0.043   2.560   2.118
10638WAT     H132156   0.134   2.522   2.132
10638WAT     H232157  -0.022   2.514   2.179
10639WAT      O32158   5.030   1.960   7.202
10639WAT     H132159   5.060   1.976   7.297
10639WAT     H232160   5.105   1.919   7.150
10640WAT      O32161   7.532   2.568   7.667
10640WAT     H132162   7.594   2.592   7.592
10640WAT     H232163   7.562   2.611   7.751
10641WAT      O32164   8.714   0.447   4.402
10641WAT     H132165   8.804   0.407   4.419
10641WAT     H232166   8.725   0.545   4.383
10642WAT      O32167   4.131   5.501   2.889
10642WAT     H132168   4.158   5.424   2.832
10642WAT     H232169   4.134   5.474   2.986
10643WAT      O32170   9.664   0.984   2.297
10643WAT     H132171   9.739   0.993   2.362
10643WAT     H232172   9.608   0.904   2.322
10644WAT      O32173   1.796   5.976   6.353
10644WAT     H132174   1.705   5.963   6.392
10644WAT     H232175   1.828   6.069   6.371
10645WAT      O32176   0.927   8.062   5.104
10645WAT     H132177   0.852   8.060   5.170
10645WAT     H232178   0.894   8.034   5.014
10646WAT      O32179   9.848   7.864   4.276
10646WAT     H132180   9.931   7.850   4.329
10646WAT     H232181   9.866   7.930   4.202
10647WAT      O32182   7.340   3.064   7.094
10647WAT     H132183   7.326   3.162   7.081
10647WAT     H232184   7.437   3.043   7.093
10648WAT      O32185   6.229   6.741   7.785
10648WAT     H132186   6.242   6.768   7.690
10648WAT     H232187   6.197   6.646   7.789
10649WAT      O32188   2.371   2.186   9.771
10649WAT     H132189   2.451   2.127   9.782
10649WAT     H232190   2.349   2.195   9.674
10650WAT      O32191   1.000   6.957   2.699
10650WAT     H132192   1.099   6.940   2.708
10650WAT     H232193   0.983   7.055   2.691
10651WAT      O32194   6.911   0.518   4.454
10651WAT     H132195   6.919   0.494   4.357
10651WAT     H232196   6.835   0.582   4.466
10652WAT      O32197   6.782   1.121   5.405
10652WAT     H132198   6.715   1.065   5.454
10652WAT     H232199   6.748   1.141   5.313
10653WAT      O32200   3.377   0.876   6.045
10653WAT     H132201   3.324   0.842   5.968
10653WAT     H232202   3.402   0.800   6.105
10654WAT      O32203   6.842   7.678   3.238
10654WAT     H132204   6.900   7.651   3.315
10654WAT     H232205   6.872   7.629   3.155
10655WAT      O32206   9.486   4.350   0.888
10655WAT     H132207   9.511   4.333   0.983
10655WAT     H232208   9.387   4.369   0.883
10656WAT      O32209   2.329   1.457   3.048
10656WAT     H132210   2.242   1.450   3.000
10656WAT     H232211   2.345   1.552   3.076
10657WAT      O32212   9.712   2.601   8.032
10657WAT     H132213   9.728   2.526   8.096
10657WAT     H232214   9.783   2.671   8.045
10658WAT      O32215   6.658   2.489   7.588
10658WAT     H132216   6.580   2.451   7.637
10658WAT     H232217   6.728   2.519   7.654
10659WAT      O32218   8.884   8.463   0.979
10659WAT     H132219   8.881   8.376   0.930
10659WAT     H232220   8.836   8.455   1.066
10660WAT      O32221   4.000   0.285   6.839
10660WAT     H132222   4.032   0.256   6.749
10660WAT     H232223   3.962   0.206   6.887
10661WAT      O32224   5.208   4.222   6.591
10661WAT     H132225   5.173   4.143   6.641
10661WAT     H232226   5.132   4.281   6.564
10662WAT      O32227   0.274   0.405   6.255
10662WAT     H132228   0.291   0.477   6.187
10662WAT     H232229   0.342   0.412   6.328
10663WAT      O32230   2.160   0.505   3.128
10663WAT     H132231   2.218   0.542   3.056
10663WAT     H232232   2.144   0.574   3.198
10664WAT      O32233   7.629   6.872   6.667
10664WAT     H132234   7.646   6.817   6.586
10664WAT     H232235   7.622   6.813   6.748
10665WAT      O32236   1.869   2.569   1.734
10665WAT     H132237   1.914   2.602   1.818
10665WAT     H232238   1.931   2.583   1.657
10666WAT      O32239   6.789   1.694   3.981
10666WAT     H132240   6.827   1.780   3.947
10666WAT     H232241   6.729   1.712   4.058
10667WAT      O32242   7.583   4.127   4.107
10667WAT     H132243   7.652   4.194   4.135
10667WAT     H232244   7.625   4.058   4.048
10668WAT      O32245   7.120   3.941   1.467
10668WAT     H132246   7.055   3.957   1.541
10668WAT     H232247   7.124   4.023   1.409
10669WAT      O32248   3.566   2.926   3.705
10669WAT     H132249   3.626   2.973   3.769
10669WAT     H232250   3.560   2.978   3.620
10670WAT      O32251   3.056   4.258   2.935
10670WAT     H132252   3.041   4.260   3.033
10670WAT     H232253   3.153   4.275   2.916
10671WAT      O32254   3.534   6.811   7.450
10671WAT     H132255   3.467   6.737   7.458
10671WAT     H232256   3.599   6.806   7.526
10672WAT      O32257   0.224   7.266   0.023
10672WAT     H132258   0.259   7.212   0.100
10672WAT     H232259   0.178   7.205  -0.042
10673WAT      O32260   5.405   6.524   1.193
10673WAT     H132261   5.496   6.492   1.167
10673WAT     H232262   5.337   6.452   1.176
10674WAT      O32263   7.855   7.763   4.880
10674WAT     H132264   7.813   7.747   4.791
10674WAT     H232265   7.815   7.701   4.948
10675WAT      O32266   2.210   8.318   9.451
10675WAT     H132267   2.302   8.297   9.418
10675WAT     H232268   2.144   8.296   9.379
10676WAT      O32269   3.559   7.232   1.302
10676WAT     H132270   3.596   7.321   1.330
10676WAT     H232271   3.602   7.204   1.216
10677WAT      O32272   4.260   1.521   3.183
10677WAT     H132273   4.195   1.452   3.149
10677WAT     H232274   4.260   1.600   3.122
10678WAT      O32275   6.055   8.384   5.483
10678WAT     H132276   6.022   8.449   5.552
10678WAT     H232277   6.080   8.298   5.527
10679WAT      O32278   2.673   9.696   8.861
10679WAT     H132279   2.607   9.685   8.786
10679WAT     H232280   2.632   9.663   8.946
10680WAT      O32281   9.075   2.747   9.116
10680WAT     H132282   9.069   2.824   9.053
10680WAT     H232283   9.158   2.694   9.096
10681WAT      O32284   2.527   7.711   7.260
10681WAT     H132285   2.513   7.637   7.325
10681WAT     H232286   2.504   7.679   7.168
10682WAT      O32287   8.888   4.206   9.824
10682WAT     H132288   8.929   4.296   9.809
10682WAT     H232289   8.788   4.215   9.832
10683WAT      O32290   3.052   5.109   8.438
10683WAT     H132291   2.989   5.093   8.514
10683WAT     H232292   3.007   5.164   8.368
10684WAT      O32293   0.637   5.966   0.324
10684WAT     H132294   0.666   6.062   0.327
10684WAT     H232295   0.611   5.942   0.230
10685WAT      O32296   5.368   4.508   5.817
10685WAT     H132297   5.279   4.485   5.856
10685WAT     H232298   5.397   4.598   5.850
10686WAT      O32299   6.101   7.196   6.225
10686WAT     H132300   6.089   7.133   6.148
10686WAT     H232301   6.197   7.222   6.232
10687WAT      O32302   9.077   1.984   1.872
10687WAT     H132303   9.069   1.941   1.782
10687WAT     H232304   9.041   1.923   1.942
10688WAT      O32305   0.933   6.055   6.701
10688WAT     H132306   0.843   6.078   6.663
10688WAT     H232307   0.980   6.139   6.728
10689WAT      O32308   2.331   2.352   1.944
10689WAT     H132309   2.237   2.334   1.916
10689WAT     H232310   2.333   2.382   2.039
10690WAT      O32311   0.225   4.390   6.061
10690WAT     H132312   0.238   4.311   6.001
10690WAT     H232313   0.145   4.442   6.031
10691WAT      O32314   4.593   9.213   6.060
10691WAT     H132315   4.677   9.168   6.029
10691WAT     H232316   4.569   9.287   5.997
10692WAT      O32317   2.044   7.806   9.818
10692WAT     H132318   2.087   7.809   9.728
10692WAT     H232319   1.962   7.864   9.818
10693WAT      O32320   7.136   6.568   8.908
10693WAT     H132321   7.163   6.582   8.813
10693WAT     H232322   7.211   6.595   8.968
10694WAT      O32323   0.059   4.993   5.014
10694WAT     H132324   0.019   5.068   5.066
10694WAT     H232325   0.152   4.975   5.047
10695WAT      O32326   1.463   6.773   0.486
10695WAT     H132327   1.453   6.789   0.584
10695WAT     H232328   1.413   6.843   0.435
10696WAT      O32329   8.117   7.868   7.851
10696WAT     H132330   8.203   7.830   7.817
10696WAT     H232331   8.045   7.799   7.842
10697WAT      O32332   2.253   9.657   1.659
10697WAT     H132333   2.311   9.717   1.715
10697WAT     H232334   2.243   9.695   1.567
10698WAT      O32335   2.661   7.462   9.776
10698WAT     H132336   2.726   7.458   9.701
10698WAT     H232337   2.604   7.379   9.776
10699WAT      O32338   5.392   1.376   6.499
10699WAT     H132339   5.306   1.397   6.453
10699WAT     H232340   5.374   1.332   6.587
10700WAT      O32341   9.454   4.604   2.103
10700WAT     H132342   9.494   4.625   2.014
10700WAT     H232343   9.523   4.560   2.161
10701WAT      O32344   8.835   7.785   0.857
10701WAT     H132345   8.886   7.794   0.771
10701WAT     H232346   8.745   7.827   0.847
10702WAT      O32347   0.342   2.944   1.407
10702WAT     H132348   0.302   3.026   1.367
10702WAT     H232349   0.275   2.870   1.404
10703WAT      O32350   3.707   0.646   1.192
10703WAT     H132351   3.652   0.623   1.112
10703WAT     H232352   3.710   0.568   1.254
10704WAT      O32353   0.027   6.182   2.740
10704WAT     H132354   0.005   6.250   2.670
10704WAT     H232355   0.047   6.229   2.826
10705WAT      O32356   8.205   4.615   6.732
10705WAT     H132357   8.118   4.565   6.728
10705WAT     H232358   8.245   4.605   6.823
10706WAT      O32359   3.880   7.244   3.880
10706WAT     H132360   3.855   7.293   3.797
10706WAT     H232361   3.979   7.234   3.886
10707WAT      O32362   4.757   0.005   8.938
10707WAT     H132363   4.685  -0.064   8.928
10707WAT     H232364   4.798  -0.002   9.029
10708WAT      O32365   4.484   1.624   0.453
10708WAT     H132366   4.468   1.615   0.552
10708WAT     H232367   4.416   1.570   0.404
10709WAT      O32368   3.946   8.502   0.332
10709WAT     H132369   3.931   8.439   0.408
10709WAT     H232370   4.007   8.575   0.363
10710WAT      O32371   7.736   1.684   0.283
10710WAT     H132372   7.729   1.586   0.264
10710WAT     H232373   7.792   1.728   0.212
10711WAT      O32374   6.084   1.706   1.266
10711WAT     H132375   5.998   1.751   1.292
10711WAT     H232376   6.063   1.620   1.219
10712WAT      O32377   8.321   2.597   2.355
10712WAT     H132378   8.338   2.633   2.446
10712WAT     H232379   8.383   2.521   2.336
10713WAT      O32380   5.990   4.100   2.557
10713WAT     H132381   5.927   4.177   2.552
10713WAT     H232382   5.986   4.048   2.472
10714WAT      O32383   2.377   0.614   6.830
10714WAT     H132384   2.461   0.592   6.880
10714WAT     H232385   2.384   0.706   6.792
10715WAT      O32386   8.261   5.599   3.238
10715WAT     H132387   8.186   5.535   3.225
10715WAT     H232388   8.348   5.552   3.224
10716WAT      O32389   6.090   4.662   9.192
10716WAT     H132390   6.152   4.734   9.225
10716WAT     H232391   6.019   4.646   9.261
10717WAT      O32392   1.217   5.165   2.109
10717WAT     H132393   1.163   5.168   2.192
10717WAT     H232394   1.294   5.228   2.117
10718WAT      O32395   7.190   5.554   1.496
10718WAT     H132396   7.098   5.583   1.470
10718WAT     H232397   7.189   5.520   1.590
10719WAT      O32398   3.103   6.887   1.419
10719WAT     H132399   3.025   6.944   1.446
10719WAT     H232400   3.101   6.801   1.470
10720WAT      O32401   6.650   5.580   0.182
10720WAT     H132402   6.632   5.541   0.092
10720WAT     H232403   6.637   5.509   0.252
10721WAT      O32404   4.627   0.215   9.195
10721WAT     H132405   4.597   0.235   9.289
10721WAT     H232406   4.714   0.166   9.199
10722WAT      O32407   6.296   3.272   9.608
10722WAT     H132408   6.274   3.343   9.541
10722WAT     H232409   6.370   3.305   9.667
10723WAT      O32410   6.342   0.228   8.855
10723WAT     H132411   6.274   0.298   8.836
10723WAT     H232412   6.345   0.210   8.953
10724WAT      O32413   8.254   6.777   6.498
10724WAT     H132414   8.175   6.786   6.437
10724WAT     H232415   8.234   6.824   6.584
10725WAT      O32416   7.951   0.210   8.123
10725WAT     H132417   7.954   0.241   8.028
10725WAT     H232418   8.029   0.248   8.173
10726WAT      O32419   6.471   8.527   4.956
10726WAT     H132420   6.411   8.587   4.902
10726WAT     H232421   6.449   8.431   4.936
10727WAT      O32422   7.842   6.082   4.641
10727WAT     H132423   7.880   5.991   4.657
10727WAT     H232424   7.899   6.151   4.685
10728WAT      O32425   9.133   8.641   5.728
10728WAT     H132426   9.098   8.548   5.720
10728WAT     H232427   9.140   8.666   5.825
10729WAT      O32428   7.856   4.800   1.333
10729WAT     H132429   7.797   4.829   1.408
10729WAT     H232430   7.892   4.880   1.286
10730WAT      O32431   8.565   9.810   3.636
10730WAT     H132432   8.470   9.785   3.617
10730WAT     H232433   8.580   9.809   3.735
10731WAT      O32434   7.820   5.629   5.261
10731WAT     H132435   7.733   5.579   5.255
10731WAT     H232436   7.894   5.572   5.226
10732WAT      O32437   3.932   6.582   2.016
10732WAT     H132438   3.904   6.546   1.926
10732WAT     H232439   3.863   6.645   2.050
10733WAT      O32440   4.896   7.452   9.400
10733WAT     H132441   4.888   7.418   9.306
10733WAT     H232442   4.826   7.409   9.457
10734WAT      O32443   2.574   1.812   4.912
10734WAT     H132444   2.596   1.797   4.815
10734WAT     H232445   2.475   1.820   4.923
10735WAT      O32446   0.977   1.657   5.264
10735WAT     H132447   1.068   1.626   5.293
10735WAT     H232448   0.946   1.731   5.323
10736WAT      O32449   1.730   8.564   8.229
10736WAT     H132450   1.758   8.498   8.158
10736WAT     H232451   1.770   8.536   8.316
10737WAT      O32452   6.594   5.425   2.149
10737WAT     H132453   6.689   5.402   2.170
10737WAT     H232454   6.536   5.346   2.169
10738WAT      O32455   5.055   9.803   0.680
10738WAT     H132456   4.973   9.767   0.633
10738WAT     H232457   5.084   9.738   0.750
10739WAT      O32458   7.663   4.017   2.845
10739WAT     H132459   7.574   4.034   2.801
10739WAT     H232460   7.669   4.071   2.929
10740WAT      O32461   2.957   1.863   1.535
10740WAT     H132462   3.038   1.816   1.571
10740WAT     H232463   2.877   1.806   1.552
10741WAT      O32464   4.211   7.440   9.398
10741WAT     H132465   4.260   7.523   9.370
10741WAT     H232466   4.133   7.465   9.454
10742WAT      O32467   3.020   1.266   8.486
10742WAT     H132468   2.963   1.348   8.487
10742WAT     H232469   3.073   1.260   8.570
10743WAT      O32470   2.147   0.646   6.961
10743WAT     H132471   2.101   0.711   6.900
10743WAT     H232472   2.238   0.627   6.926
10744WAT      O32473   7.375   7.250   9.402
10744WAT     H132474   7.316   7.187   9.452
10744WAT     H232475   7.465   7.255   9.447
10745WAT      O32476   7.418   7.524   4.887
10745WAT     H132477   7.436   7.617   4.855
10745WAT     H232478   7.321   7.514   4.911
10746WAT      O32479   6.423   3.860   7.999
10746WAT     H132480   6.371   3.899   8.074
10746WAT     H232481   6.480   3.930   7.957
10747WAT      O32482   3.833   6.017   9.131
10747WAT     H132483   3.775   6.066   9.066
10747WAT     H232484   3.802   5.923   9.140
10748WAT      O32485   3.904   7.398   0.418
10748WAT     H132486   3.972   7.377   0.348
10748WAT     H232487   3.898   7.497   0.430
10749WAT      O32488   3.004   8.648   1.074
10749WAT     H132489   2.934   8.588   1.035
10749WAT     H232490   3.090   8.597   1.084
10750WAT      O32491   8.211   1.073   1.532
10750WAT     H132492   8.145   1.055   1.459
10750WAT     H232493   8.236   1.170   1.532
10751WAT      O32494   8.848   7.406   4.549
10751WAT     H132495   8.846   7.309   4.573
10751WAT     H232496   8.925   7.423   4.488
10752WAT      O32497   1.841   9.049   6.560
10752WAT     H132498   1.905   9.056   6.484
10752WAT     H232499   1.837   9.135   6.609
10753WAT      O32500   5.587   2.583   5.419
10753WAT     H132501   5.671   2.555   5.465
10753WAT     H232502   5.610   2.634   5.336
10754WAT      O32503   3.491   2.862   6.931
10754WAT     H132504   3.456   2.770   6.914
10754WAT     H232505   3.432   2.929   6.887
10755WAT      O32506   8.485   0.374   5.671
10755WAT     H132507   8.564   0.380   5.609
10755WAT     H232508   8.498   0.297   5.733
10756WAT      O32509   6.214   2.238   0.121
10756WAT     H132510   6.247   2.306   0.186
10756WAT     H232511   6.248   2.260   0.029
10757WAT      O32512   9.312   0.117   1.851
10757WAT     H132513   9.269   0.030   1.829
10757WAT     H232514   9.251   0.192   1.827
10758WAT      O32515   4.609   5.594   1.564
10758WAT     H132516   4.535   5.657   1.539
10758WAT     H232517   4.667   5.637   1.634
10759WAT      O32518   9.138   5.202   0.017
10759WAT     H132519   9.171   5.234  -0.072
10759WAT     H232520   9.038   5.194   0.015
10760WAT      O32521   5.402   7.833   6.648
10760WAT     H132522   5.383   7.744   6.690
10760WAT     H232523   5.492   7.864   6.678
10761WAT      O32524   9.243   6.506   3.006
10761WAT     H132525   9.236   6.559   3.091
10761WAT     H232526   9.247   6.569   2.928
10762WAT      O32527   6.873   3.182   3.459
10762WAT     H132528   6.929   3.261   3.431
10762WAT     H232529   6.921   3.098   3.436
10763WAT      O32530   1.287   6.508   0.726
10763WAT     H132531   1.332   6.552   0.804
10763WAT     H232532   1.353   6.492   0.653
10764WAT      O32533   7.857   1.504   3.374
10764WAT     H132534   7.906   1.422   3.344
10764WAT     H232535   7.778   1.519   3.315
10765WAT      O32536   3.156   5.085   1.237
10765WAT     H132537   3.186   5.180   1.249
10765WAT     H232538   3.137   5.044   1.326
10766WAT      O32539   1.115   4.544   1.852
10766WAT     H132540   1.167   4.571   1.934
10766WAT     H232541   1.034   4.603   1.844
10767WAT      O32542   6.403   5.396   6.375
10767WAT     H132543   6.416   5.442   6.287
10767WAT     H232544   6.465   5.435   6.443
10768WAT      O32545   4.204   0.614   5.222
10768WAT     H132546   4.188   0.638   5.318
10768WAT     H232547   4.301   0.626   5.200
10769WAT      O32548   9.453   6.766   2.475
10769WAT     H132549   9.396   6.737   2.552
10769WAT     H232550   9.465   6.689   2.412
10770WAT      O32551   8.774   7.585   6.798
10770WAT     H132552   8.749   7.680   6.814
10770WAT     H232553   8.824   7.578   6.711
10771WAT      O32554   1.774   7.322   4.906
10771WAT     H132555   1.758   7.369   4.819
10771WAT     H232556   1.846   7.254   4.894
10772WAT      O32557   1.673   2.323   9.048
10772WAT     H132558   1.770   2.305   9.066
10772WAT     H232559   1.665   2.384   8.969
10773WAT      O32560   2.789   9.361   6.507
10773WAT     H132561   2.877   9.324   6.477
10773WAT     H232562   2.803   9.419   6.587
10774WAT      O32563   6.739   5.940   5.114
10774WAT     H132564   6.767   6.035   5.100
10774WAT     H232565   6.732   5.893   5.026
10775WAT      O32566   8.782   7.607   8.257
10775WAT     H132567   8.750   7.702   8.261
10775WAT     H232568   8.806   7.584   8.163
10776WAT      O32569   8.447   9.096   0.954
10776WAT     H132570   8.502   9.042   0.890
10776WAT     H232571   8.352   9.064   0.952
10777WAT      O32572   8.934   5.840   4.073
10777WAT     H132573   8.984   5.923   4.047
10777WAT     H232574   8.998   5.774   4.111
10778WAT      O32575   0.538   7.532   1.372
10778WAT     H132576   0.520   7.503   1.278
10778WAT     H232577   0.625   7.582   1.375
10779WAT      O32578   0.131   4.746   1.077
10779WAT     H132579   0.119   4.800   0.994
10779WAT     H232580   0.050   4.755   1.134
10780WAT      O32581   3.618   0.711   9.598
10780WAT     H132582   3.567   0.753   9.524
10780WAT     H232583   3.621   0.774   9.676
10781WAT      O32584   8.768   7.088   7.140
10781WAT     H132585   8.801   7.178   7.168
10781WAT     H232586   8.800   7.019   7.205
10782WAT      O32587   2.515   7.951   2.103
10782WAT     H132588   2.467   7.895   2.170
10782WAT     H232589   2.551   7.892   2.030
10783WAT      O32590   2.459   9.331   5.772
10783WAT     H132591   2.390   9.379   5.827
10783WAT     H232592   2.484   9.387   5.693
10784WAT      O32593   5.351   0.609   2.643
10784WAT     H132594   5.275   0.569   2.591
10784WAT     H232595   5.338   0.708   2.649
10785WAT      O32596   2.057   6.950   4.988
10785WAT     H132597   2.114   6.916   4.913
10785WAT     H232598   1.990   6.880   5.013
10786WAT      O32599   1.947   0.577   5.414
10786WAT     H132600   1.938   0.495   5.357
10786WAT     H232601   1.909   0.559   5.505
10787WAT      O32602   7.845   8.828   7.550
10787WAT     H132603   7.911   8.892   7.512
10787WAT     H232604   7.875   8.734   7.534
10788WAT      O32605   6.115   4.996   3.415
10788WAT     H132606   6.114   4.899   3.392
10788WAT     H232607   6.205   5.020   3.455
10789WAT      O32608   5.494   4.058   8.520
10789WAT     H132609   5.464   4.151   8.497
10789WAT     H232610   5.442   4.024   8.598
10790WAT      O32611   7.043   2.726   3.112
10790WAT     H132612   7.090   2.730   3.201
10790WAT     H232613   7.100   2.770   3.043
10791WAT      O32614   4.344   5.053   5.661
10791WAT     H132615   4.371   5.015   5.573
10791WAT     H232616   4.244   5.061   5.664
10792WAT      O32617   9.876   3.831   9.077
10792WAT     H132618   9.966   3.815   9.037
10792WAT     H232619   9.876   3.804   9.173
10793WAT      O32620   2.288   8.034   1.483
10793WAT     H132621   2.240   8.075   1.561
10793WAT     H232622   2.385   8.059   1.488
10794WAT      O32623   8.548   5.533   8.170
10794WAT     H132624   8.513   5.445   8.138
10794WAT     H232625   8.513   5.606   8.111
10795WAT      O32626   7.835   0.683   0.765
10795WAT     H132627   7.931   0.703   0.785
10795WAT     H232628   7.791   0.645   0.847
10796WAT      O32629   8.079   0.474   4.211
10796WAT     H132630   8.130   0.546   4.165
10796WAT     H232631   8.051   0.405   4.143
10797WAT      O32632   1.900   2.014   8.689
10797WAT     H132633   1.854   2.100   8.712
10797WAT     H232634   1.950   2.025   8.603
10798WAT      O32635   7.492   1.122   9.033
10798WAT     H132636   7.495   1.099   9.130
10798WAT     H232637   7.534   1.048   8.980
10799WAT      O32638   0.691   4.837   2.663
10799WAT     H132639   0.789   4.856   2.663
10799WAT     H232640   0.656   4.839   2.757
10800WAT      O32641   7.093   7.029   7.707
10800WAT     H132642   7.121   7.106   7.765
10800WAT     H232643   7.161   7.015   7.635
10801WAT      O32644   4.753   7.542   2.525
10801WAT     H132645   4.712   7.461   2.566
10801WAT     H232646   4.729   7.623   2.579
10802WAT      O32647   2.930   1.355   5.036
10802WAT     H132648   2.992   1.280   5.060
10802WAT     H232649   2.887   1.337   4.948
10803WAT      O32650   1.332   1.459   1.417
10803WAT     H132651   1.305   1.362   1.419
10803WAT     H232652   1.404   1.475   1.484
10804WAT      O32653   2.380   7.810   7.596
10804WAT     H132654   2.339   7.871   7.664
10804WAT     H232655   2.401   7.862   7.514
10805WAT      O32656   5.395   6.303   4.781
10805WAT     H132657   5.435   6.219   4.745
10805WAT     H232658   5.299   6.309   4.751
10806WAT      O32659   2.371   1.350   5.444
10806WAT     H132660   2.402   1.443   5.465
10806WAT     H232661   2.416   1.318   5.360
10807WAT      O32662   5.338   1.320   6.103
10807WAT     H132663   5.258   1.290   6.155
10807WAT     H232664   5.421   1.302   6.155
10808WAT      O32665   7.025   1.532   8.765
10808WAT     H132666   7.037   1.577   8.853
10808WAT     H232667   6.930   1.503   8.754
10809WAT      O32668   5.358   2.789   3.502
10809WAT     H132669   5.417   2.749   3.572
10809WAT     H232670   5.266   2.753   3.510
10810WAT      O32671   1.737   9.313   4.174
10810WAT     H132672   1.682   9.396   4.179
10810WAT     H232673   1.684   9.240   4.131
10811WAT      O32674   1.038   4.259   5.402
10811WAT     H132675   1.007   4.354   5.405
10811WAT     H232676   1.060   4.234   5.307
10812WAT      O32677   8.817   5.955   6.234
10812WAT     H132678   8.750   5.967   6.308
10812WAT     H232679   8.799   6.022   6.162
10813WAT      O32680   5.991   3.218   1.265
10813WAT     H132681   5.895   3.204   1.291
10813WAT     H232682   6.022   3.307   1.298
10814WAT      O32683   7.039   3.835   7.013
10814WAT     H132684   7.038   3.746   6.968
10814WAT     H232685   7.031   3.907   6.944
10815WAT      O32686   8.138   6.098   5.468
10815WAT     H132687   8.199   6.023   5.442
10815WAT     H232688   8.177   6.146   5.547
10816WAT      O32689   4.264   6.051   1.825
10816WAT     H132690   4.243   6.148   1.835
10816WAT     H232691   4.179   5.998   1.819
10817WAT      O32692   0.706   4.566   7.934
10817WAT     H132693   0.640   4.638   7.955
10817WAT     H232694   0.737   4.575   7.839
10818WAT      O32695   0.951   9.628   5.132
10818WAT     H132696   0.893   9.592   5.059
10818WAT     H232697   0.922   9.721   5.155
10819WAT      O32698   0.118   6.915   3.488
10819WAT     H132699   0.186   6.986   3.506
10819WAT     H232700   0.062   6.942   3.410
10820WAT      O32701   7.066   2.491   8.660
10820WAT     H132702   6.997   2.558   8.688
10820WAT     H232703   7.027   2.431   8.590
10821WAT      O32704   6.265   2.029   0.994
10821WAT     H132705   6.349   1.999   1.039
10821WAT     H232706   6.206   2.075   1.061
10822WAT      O32707   6.277   8.542   6.236
10822WAT     H132708   6.266   8.444   6.221
10822WAT     H232709   6.250   8.592   6.154
10823WAT      O32710   9.503   0.688   4.102
10823WAT     H132711   9.510   0.751   4.025
10823WAT     H232712   9.595   0.657   4.128
10824WAT      O32713   9.821   0.135   2.561
10824WAT     H132714   9.892   0.106   2.497
10824WAT     H232715   9.735   0.147   2.512
10825WAT      O32716   5.596   1.287   1.801
10825WAT     H132717   5.633   1.220   1.866
10825WAT     H232718   5.624   1.379   1.829
10826WAT      O32719   6.629   4.127   3.301
10826WAT     H132720   6.687   4.062   3.251
10826WAT     H232721   6.599   4.085   3.386
10827WAT      O32722   6.796   6.530   2.964
10827WAT     H132723   6.800   6.513   2.866
10827WAT     H232724   6.857   6.465   3.011
10828WAT      O32725   1.579   4.977   6.540
10828WAT     H132726   1.505   4.910   6.534
10828WAT     H232727   1.661   4.933   6.575
10829WAT      O32728   8.731   6.601   9.430
10829WAT     H132729   8.697   6.536   9.498
10829WAT     H232730   8.654   6.651   9.390
10830WAT      O32731   2.828   3.080   8.435
10830WAT     H132732   2.740   3.125   8.447
10830WAT     H232733   2.901   3.148   8.428
10831WAT      O32734   5.695   1.642   5.997
10831WAT     H132735   5.612   1.625   6.050
10831WAT     H232736   5.707   1.740   5.984
10832WAT      O32737   5.500   3.542   3.259
10832WAT     H132738   5.553   3.503   3.184
10832WAT     H232739   5.556   3.611   3.306
10833WAT      O32740   5.080   4.555   3.712
10833WAT     H132741   5.117   4.630   3.766
10833WAT     H232742   5.077   4.582   3.615
10834WAT      O32743   4.362   5.833   3.058
10834WAT     H132744   4.316   5.773   2.991
10834WAT     H232745   4.419   5.899   3.009
10835WAT      O32746   5.902   4.727   4.889
10835WAT     H132747   5.825   4.762   4.834
10835WAT     H232748   5.914   4.785   4.969
10836WAT      O32749   2.764   0.885   0.591
10836WAT     H132750   2.762   0.911   0.688
10836WAT     H232751   2.736   0.789   0.582
10837WAT      O32752   3.202   0.289   7.573
10837WAT     H132753   3.193   0.380   7.612
10837WAT     H232754   3.157   0.222   7.632
10838WAT      O32755   5.387   2.401   5.337
10838WAT     H132756   5.334   2.386   5.420
10838WAT     H232757   5.476   2.441   5.361
10839WAT      O32758   6.701   9.602   9.643
10839WAT     H132759   6.724   9.568   9.734
10839WAT     H232760   6.645   9.685   9.651
10840WAT      O32761   3.301   7.593   8.233
10840WAT     H132762   3.364   7.648   8.178
10840WAT     H232763   3.293   7.632   8.325
10841WAT      O32764   0.702   1.184   1.856
10841WAT     H132765   0.787   1.131   1.852
10841WAT     H232766   0.654   1.163   1.941
10842WAT      O32767   4.545   9.160   7.459
10842WAT     H132768   4.616   9.109   7.508
10842WAT     H232769   4.578   9.183   7.367
10843WAT      O32770   5.332   7.647   9.636
10843WAT     H132771   5.408   7.669   9.575
10843WAT     H232772   5.361   7.663   9.731
10844WAT      O32773   9.124   9.419   9.494
10844WAT     H132774   9.136   9.336   9.549
10844WAT     H232775   9.052   9.404   9.427
10845WAT      O32776   5.101   4.340   1.316
10845WAT     H132777   5.110   4.352   1.217
10845WAT     H232778   5.178   4.287   1.350
10846WAT      O32779   4.862   8.028   3.899
10846WAT     H132780   4.904   7.957   3.956
10846WAT     H232781   4.932   8.095   3.873
10847WAT      O32782   6.624   2.141   0.593
10847WAT     H132783   6.614   2.180   0.684
10847WAT     H232784   6.544   2.084   0.573
10848WAT      O32785   6.162   1.268   7.614
10848WAT     H132786   6.110   1.277   7.699
10848WAT     H232787   6.258   1.253   7.636
10849WAT      O32788   0.997   6.861   9.025
10849WAT     H132789   1.092   6.859   8.992
10849WAT     H232790   0.995   6.844   9.123
10850WAT      O32791   4.097   5.334   7.351
10850WAT     H132792   4.151   5.274   7.410
10850WAT     H232793   4.076   5.287   7.265
10851WAT      O32794   6.825   3.572   3.547
10851WAT     H132795   6.823   3.594   3.450
10851WAT     H232796   6.874   3.644   3.597
10852WAT      O32797   5.517   7.240   7.479
10852WAT     H132798   5.484   7.163   7.424
10852WAT     H232799   5.573   7.206   7.555
10853WAT      O32800   5.849   1.140   8.560
10853WAT     H132801   5.781   1.070   8.537
10853WAT     H232802   5.935   1.120   8.511
10854WAT      O32803   6.215   0.393   8.124
10854WAT     H132804   6.205   0.301   8.086
10854WAT     H232805   6.287   0.392   8.194
10855WAT      O32806   6.671   0.354   6.123
10855WAT     H132807   6.667   0.256   6.102
10855WAT     H232808   6.766   0.384   6.126
10856WAT      O32809   7.094   2.785   8.096
10856WAT     H132810   7.004   2.823   8.114
10856WAT     H232811   7.131   2.824   8.011
10857WAT      O32812   8.241   3.930   6.801
10857WAT     H132813   8.190   3.940   6.715
10857WAT     H232814   8.190   3.871   6.863
10858WAT      O32815   1.432   6.953   3.774
10858WAT     H132816   1.476   6.964   3.685
10858WAT     H232817   1.339   6.989   3.770
10859WAT      O32818   4.739   6.821   0.397
10859WAT     H132819   4.771   6.780   0.482
10859WAT     H232820   4.686   6.754   0.345
10860WAT      O32821   4.931   5.893   3.791
10860WAT     H132822   4.858   5.960   3.796
10860WAT     H232823   4.895   5.807   3.753
10861WAT      O32824   6.274   2.175   5.010
10861WAT     H132825   6.295   2.260   4.961
10861WAT     H232826   6.340   2.105   4.986
10862WAT      O32827   3.728   6.780   4.357
10862WAT     H132828   3.816   6.775   4.310
10862WAT     H232829   3.739   6.749   4.452
10863WAT      O32830   2.061   3.006   7.503
10863WAT     H132831   1.965   3.033   7.506
10863WAT     H232832   2.068   2.909   7.481
10864WAT      O32833   1.151   0.654   6.346
10864WAT     H132834   1.103   0.656   6.258
10864WAT     H232835   1.175   0.747   6.374
10865WAT      O32836   7.058   7.429   9.688
10865WAT     H132837   7.031   7.335   9.704
10865WAT     H232838   7.004   7.490   9.746
10866WAT      O32839   0.470   8.136   3.907
10866WAT     H132840   0.473   8.144   3.807
10866WAT     H232841   0.450   8.042   3.933
10867WAT      O32842   8.292   8.832   2.673
10867WAT     H132843   8.278   8.900   2.601
10867WAT     H232844   8.325   8.878   2.755
10868WAT      O32845   5.154   5.065   2.976
10868WAT     H132846   5.095   5.145   2.963
10868WAT     H232847   5.133   4.996   2.907
10869WAT      O32848   6.219   5.510   3.733
10869WAT     H132849   6.146   5.506   3.801
10869WAT     H232850   6.187   5.558   3.652
10870WAT      O32851   9.124   9.500   0.162
10870WAT     H132852   9.029   9.528   0.166
10870WAT     H232853   9.176   9.544   0.236
10871WAT      O32854   9.416   7.965   3.517
10871WAT     H132855   9.328   7.953   3.561
10871WAT     H232856   9.453   8.056   3.539
10872WAT      O32857   6.847   2.565   2.395
10872WAT     H132858   6.891   2.557   2.485
10872WAT     H232859   6.748   2.570   2.407
10873WAT      O32860   5.890   3.794   2.370
10873WAT     H132861   5.805   3.812   2.419
10873WAT     H232862   5.963   3.774   2.436
10874WAT      O32863   0.514   2.686   0.713
10874WAT     H132864   0.500   2.627   0.634
10874WAT     H232865   0.512   2.782   0.683
10875WAT      O32866   8.787   7.704   5.888
10875WAT     H132867   8.796   7.676   5.792
10875WAT     H232868   8.779   7.803   5.894
10876WAT      O32869   8.214   3.069   2.166
10876WAT     H132870   8.185   3.106   2.255
10876WAT     H232871   8.280   2.996   2.181
10877WAT      O32872   6.124   2.813   2.214
10877WAT     H132873   6.127   2.904   2.171
10877WAT     H232874   6.080   2.749   2.152
10878WAT      O32875   7.419   1.217   2.920
10878WAT     H132876   7.335   1.252   2.961
10878WAT     H232877   7.402   1.190   2.825
10879WAT      O32878   8.519   2.405   7.415
10879WAT     H132879   8.559   2.435   7.502
10879WAT     H232880   8.530   2.306   7.406
10880WAT      O32881   9.871   3.627   1.037
10880WAT     H132882   9.848   3.561   0.966
10880WAT     H232883   9.916   3.580   1.113
10881WAT      O32884   7.189   7.776   3.002
10881WAT     H132885   7.114   7.838   2.979
10881WAT     H232886   7.195   7.765   3.101
10882WAT      O32887   8.238   2.266   2.999
10882WAT     H132888   8.211   2.214   3.080
10882WAT     H232889   8.185   2.236   2.920
10883WAT      O32890   0.539   5.591   2.637
10883WAT     H132891   0.476   5.659   2.675
10883WAT     H232892   0.546   5.514   2.699
10884WAT      O32893   7.034   1.816   7.076
10884WAT     H132894   6.939   1.837   7.099
10884WAT     H232895   7.043   1.801   6.977
10885WAT      O32896   2.524   5.578   2.126
10885WAT     H132897   2.598   5.644   2.119
10885WAT     H232898   2.554   5.490   2.089
10886WAT      O32899   0.860   1.900   4.944
10886WAT     H132900   0.947   1.855   4.961
10886WAT     H232901   0.802   1.892   5.026
10887WAT      O32902   7.050   4.900   1.091
10887WAT     H132903   7.008   4.850   1.166
10887WAT     H232904   7.003   4.987   1.079
10888WAT      O32905   6.099   0.725   2.522
10888WAT     H132906   6.094   0.626   2.510
10888WAT     H232907   6.136   0.746   2.613
10889WAT      O32908   7.402   5.780   8.791
10889WAT     H132909   7.315   5.754   8.750
10889WAT     H232910   7.398   5.874   8.823
10890WAT      O32911   7.087   3.542   8.185
10890WAT     H132912   7.132   3.574   8.268
10890WAT     H232913   7.066   3.444   8.194
10891WAT      O32914   4.804   3.618   7.299
10891WAT     H132915   4.777   3.664   7.384
10891WAT     H232916   4.899   3.642   7.277
10892WAT      O32917   6.371   8.052   3.725
10892WAT     H132918   6.395   8.058   3.628
10892WAT     H232919   6.440   8.100   3.779
10893WAT      O32920   2.041   7.999   2.506
10893WAT     H132921   2.011   7.978   2.413
10893WAT     H232922   2.117   8.064   2.502
10894WAT      O32923   1.790   6.073   5.729
10894WAT     H132924   1.776   5.975   5.745
10894WAT     H232925   1.887   6.090   5.709
10895WAT      O32926   0.697   6.701   7.607
10895WAT     H132927   0.615   6.657   7.643
10895WAT     H232928   0.709   6.675   7.511
10896WAT      O32929   6.331   3.986   2.478
10896WAT     H132930   6.291   3.931   2.405
10896WAT     H232931   6.280   4.072   2.487
10897WAT      O32932   1.342   2.967   3.882
10897WAT     H132933   1.319   2.983   3.786
10897WAT     H232934   1.413   2.897   3.888
10898WAT      O32935   6.667   5.021   9.061
10898WAT     H132936   6.626   5.031   8.970
10898WAT     H232937   6.609   4.962   9.118
10899WAT      O32938   0.724   4.056   2.778
10899WAT     H132939   0.814   4.099   2.771
10899WAT     H232940   0.734   3.956   2.775
10900WAT      O32941   9.226   5.839   2.451
10900WAT     H132942   9.151   5.861   2.389
10900WAT     H232943   9.262   5.749   2.430
10901WAT      O32944   4.195   8.798   3.326
10901WAT     H132945   4.173   8.771   3.232
10901WAT     H232946   4.209   8.716   3.381
10902WAT      O32947   6.793   2.486   0.837
10902WAT     H132948   6.831   2.447   0.921
10902WAT     H232949   6.694   2.496   0.847
10903WAT      O32950   5.298   2.031   2.730
10903WAT     H132951   5.298   1.983   2.818
10903WAT     H232952   5.223   2.097   2.728
10904WAT      O32953   0.779   8.657   5.066
10904WAT     H132954   0.784   8.757   5.060
10904WAT     H232955   0.695   8.625   5.023
10905WAT      O32956   8.482   1.783   5.161
10905WAT     H132957   8.571   1.780   5.115
10905WAT     H232958   8.489   1.739   5.250
10906WAT      O32959   0.721   8.650   7.928
10906WAT     H132960   0.639   8.595   7.940
10906WAT     H232961   0.793   8.595   7.885
10907WAT      O32962   6.803   3.765   9.713
10907WAT     H132963   6.751   3.805   9.789
10907WAT     H232964   6.743   3.707   9.658
10908WAT      O32965   4.668   9.510   0.070
10908WAT     H132966   4.723   9.441   0.022
10908WAT     H232967   4.724   9.591   0.087
10909WAT      O32968   8.988   7.054   1.080
10909WAT     H132969   8.932   6.982   1.121
10909WAT     H232970   9.084   7.031   1.090
10910WAT      O32971   4.774   8.602   0.828
10910WAT     H132972   4.868   8.572   0.809
10910WAT     H232973   4.713   8.523   0.828
10911WAT      O32974   5.225   7.038   9.012
10911WAT     H132975   5.258   7.104   8.944
10911WAT     H232976   5.192   7.087   9.092
10912WAT      O32977   7.050   4.414   0.573
10912WAT     H132978   7.093   4.402   0.484
10912WAT     H232979   7.111   4.378   0.644
10913WAT      O32980   7.728   5.839   9.608
10913WAT     H132981   7.700   5.934   9.619
10913WAT     H232982   7.664   5.792   9.547
10914WAT      O32983   6.801   9.093   1.804
10914WAT     H132984   6.864   9.099   1.727
10914WAT     H232985   6.851   9.069   1.887
10915WAT      O32986   8.914   2.352   8.651
10915WAT     H132987   8.888   2.346   8.555
10915WAT     H232988   8.968   2.271   8.676
10916WAT      O32989   5.887   3.800   4.565
10916WAT     H132990   5.890   3.880   4.625
10916WAT     H232991   5.962   3.804   4.499
10917WAT      O32992   9.052   5.100   9.447
10917WAT     H132993   9.018   5.007   9.433
10917WAT     H232994   8.980   5.154   9.491
10918WAT      O32995   6.163   4.540   8.317
10918WAT     H132996   6.244   4.512   8.267
10918WAT     H232997   6.132   4.465   8.376
10919WAT      O32998   1.045   8.537   8.755
10919WAT     H132999   1.142   8.550   8.733
10919WAT     H233000   1.033   8.453   8.807
10920WAT      O33001   7.567   1.870   4.064
10920WAT     H133002   7.629   1.797   4.092
10920WAT     H233003   7.476   1.831   4.046
10921WAT      O33004   3.194   2.509   1.028
10921WAT     H133005   3.182   2.496   1.126
10921WAT     H233006   3.256   2.587   1.012
10922WAT      O33007   4.553   1.227   9.864
10922WAT     H133008   4.594   1.318   9.861
10922WAT     H233009   4.458   1.234   9.897
10923WAT      O33010   2.544   2.855   9.164
10923WAT     H133011   2.594   2.872   9.249
10923WAT     H233012   2.595   2.789   9.109
10924WAT      O33013   6.004   6.881   4.204
10924WAT     H133014   5.939   6.849   4.135
10924WAT     H233015   6.057   6.958   4.167
10925WAT      O33016   2.217   4.208   4.864
10925WAT     H133017   2.166   4.123   4.849
10925WAT     H233018   2.311   4.187   4.889
10926WAT      O33019   0.689   4.995   6.269
10926WAT     H133020   0.712   4.898   6.258
10926WAT     H233021   0.693   5.020   6.365
10927WAT      O33022   8.478   2.587   1.534
10927WAT     H133023   8.391   2.605   1.580
10927WAT     H233024   8.460   2.564   1.438
10928WAT      O33025   7.161   8.951   8.430
10928WAT     H133026   7.134   9.043   8.457
10928WAT     H233027   7.085   8.907   8.382
10929WAT      O33028   7.490   6.860   0.817
10929WAT     H133029   7.413   6.889   0.875
10929WAT     H233030   7.486   6.908   0.730
10930WAT      O33031   3.071   7.698   2.388
10930WAT     H133032   3.133   7.765   2.427
10930WAT     H233033   3.110   7.606   2.400
10931WAT      O33034   0.414   1.272   8.391
10931WAT     H133035   0.332   1.216   8.378
10931WAT     H233036   0.495   1.216   8.372
10932WAT      O33037   8.296   8.460   0.145
10932WAT     H133038   8.307   8.408   0.230
10932WAT     H233039   8.297   8.398   0.067
10933WAT      O33040   0.837   2.452   8.022
10933WAT     H133041   0.861   2.455   7.925
10933WAT     H233042   0.908   2.498   8.075
10934WAT      O33043   8.170   9.425   6.221
10934WAT     H133044   8.099   9.363   6.256
10934WAT     H233045   8.257   9.377   6.219
10935WAT      O33046   1.561   9.605   3.807
10935WAT     H133047   1.594   9.683   3.754
10935WAT     H233048   1.624   9.528   3.795
10936WAT      O33049   6.230   9.320   8.079
10936WAT     H133050   6.163   9.349   8.010
10936WAT     H233051   6.197   9.237   8.125
10937WAT      O33052   9.114   7.137   1.828
10937WAT     H133053   9.083   7.107   1.738
10937WAT     H233054   9.175   7.215   1.819
10938WAT      O33055   1.623   2.624   1.018
10938WAT     H133056   1.528   2.649   1.000
10938WAT     H233057   1.665   2.693   1.078
10939WAT      O33058   6.748   0.338   5.815
10939WAT     H133059   6.746   0.343   5.915
10939WAT     H233060   6.831   0.383   5.781
10940WAT      O33061   1.807   5.323   1.211
10940WAT     H133062   1.779   5.418   1.225
10940WAT     H233063   1.899   5.320   1.171
10941WAT      O33064   8.677   8.868   9.751
10941WAT     H133065   8.740   8.828   9.817
10941WAT     H233066   8.631   8.796   9.700
10942WAT      O33067   6.654   0.818   1.768
10942WAT     H133068   6.585   0.856   1.829
10942WAT     H233069   6.744   0.853   1.793
10943WAT      O33070   0.654   4.231   7.739
10943WAT     H133071   0.715   4.204   7.814
10943WAT     H233072   0.668   4.169   7.661
10944WAT      O33073   5.361   9.595   5.946
10944WAT     H133074   5.439   9.563   5.892
10944WAT     H233075   5.300   9.518   5.965
10945WAT      O33076   1.986   0.834   3.824
10945WAT     H133077   2.045   0.871   3.752
10945WAT     H233078   1.983   0.898   3.901
10946WAT      O33079   8.413   9.519   1.173
10946WAT     H133080   8.412   9.565   1.084
10946WAT     H233081   8.346   9.562   1.233
10947WAT      O33082   2.723   2.227   3.482
10947WAT     H133083   2.663   2.189   3.411
10947WAT     H233084   2.670   2.245   3.564
10948WAT      O33085   4.695   4.249   1.448
10948WAT     H133086   4.658   4.198   1.370
10948WAT     H233087   4.700   4.190   1.528
10949WAT      O33088   1.172   7.077   7.834
10949WAT     H133089   1.233   7.117   7.903
10949WAT     H233090   1.224   7.016   7.774
10950WAT      O33091   4.948   6.359   1.567
10950WAT     H133092   5.026   6.375   1.628
10950WAT     H233093   4.954   6.268   1.528
10951WAT      O33094   3.493   4.943   1.310
10951WAT     H133095   3.515   4.996   1.392
10951WAT     H233096   3.395   4.922   1.310
10952WAT      O33097   2.439   8.213   7.383
10952WAT     H133098   2.354   8.232   7.432
10952WAT     H233099   2.493   8.297   7.376
10953WAT      O33100   2.987   4.113   9.301
10953WAT     H133101   2.980   4.013   9.310
10953WAT     H233102   2.942   4.142   9.216
10954WAT      O33103   8.816   8.886   6.720
10954WAT     H133104   8.888   8.854   6.658
10954WAT     H233105   8.766   8.807   6.755
10955WAT      O33106   3.647   5.587   5.423
10955WAT     H133107   3.632   5.632   5.335
10955WAT     H233108   3.744   5.565   5.433
10956WAT      O33109   8.255   3.297   7.079
10956WAT     H133110   8.192   3.305   7.002
10956WAT     H233111   8.344   3.265   7.047
10957WAT      O33112   2.342   6.963   6.437
10957WAT     H133113   2.338   6.959   6.537
10957WAT     H233114   2.266   6.909   6.399
10958WAT      O33115   7.849   1.336   0.431
10958WAT     H133116   7.891   1.248   0.454
10958WAT     H233117   7.876   1.404   0.500
10959WAT      O33118   3.588   6.022   1.968
10959WAT     H133119   3.557   6.056   1.879
10959WAT     H233120   3.523   6.048   2.038
10960WAT      O33121   8.917   2.348   2.144
10960WAT     H133122   8.836   2.336   2.088
10960WAT     H233123   8.911   2.436   2.193
10961WAT      O33124   6.024   2.001   0.874
10961WAT     H133125   6.121   2.011   0.897
10961WAT     H233126   6.011   2.012   0.776
10962WAT      O33127   9.000   9.333   3.863
10962WAT     H133128   8.927   9.354   3.928
10962WAT     H233129   9.083   9.309   3.914
10963WAT      O33130   5.419   4.525   1.136
10963WAT     H133131   5.329   4.543   1.177
10963WAT     H233132   5.474   4.470   1.198
10964WAT      O33133   6.243   0.361   2.100
10964WAT     H133134   6.286   0.321   2.180
10964WAT     H233135   6.312   0.408   2.045
10965WAT      O33136   9.119   0.066   9.423
10965WAT     H133137   9.177  -0.005   9.463
10965WAT     H233138   9.051   0.025   9.362
10966WAT      O33139   9.172   0.976   8.399
10966WAT     H133140   9.073   0.959   8.403
10966WAT     H233141   9.193   1.033   8.320
10967WAT      O33142   4.190   0.090   0.717
10967WAT     H133143   4.274   0.100   0.770
10967WAT     H233144   4.178  -0.006   0.692
10968WAT      O33145   7.972   6.264   0.640
10968WAT     H133146   7.902   6.239   0.706
10968WAT     H233147   8.063   6.252   0.681
10969WAT      O33148   1.622   0.558   0.945
10969WAT     H133149   1.610   0.486   1.013
10969WAT     H233150   1.557   0.632   0.962
10970WAT      O33151   2.612   7.789   4.254
10970WAT     H133152   2.624   7.875   4.305
10970WAT     H233153   2.692   7.772   4.198
10971WAT      O33154   8.190   8.906   5.242
10971WAT     H133155   8.187   8.956   5.155
10971WAT     H233156   8.273   8.932   5.292
10972WAT      O33157   5.550   4.270   3.081
10972WAT     H133158   5.453   4.268   3.103
10972WAT     H233159   5.571   4.353   3.029
10973WAT      O33160   6.878   2.461   0.570
10973WAT     H133161   6.859   2.490   0.664
10973WAT     H233162   6.868   2.362   0.563
10974WAT      O33163   0.305   7.517   0.840
10974WAT     H133164   0.335   7.612   0.841
10974WAT     H233165   0.205   7.513   0.839
10975WAT      O33166   0.344   2.688   7.753
10975WAT     H133167   0.335   2.661   7.657
10975WAT     H233168   0.438   2.717   7.770
10976WAT      O33169   0.907   3.707   8.443
10976WAT     H133170   0.972   3.673   8.511
10976WAT     H233171   0.955   3.723   8.357
10977WAT      O33172   5.793   8.448   8.939
10977WAT     H133173   5.819   8.538   8.904
10977WAT     H233174   5.744   8.458   9.025
10978WAT      O33175   7.641   7.074   4.800
10978WAT     H133176   7.718   7.025   4.760
10978WAT     H233177   7.669   7.168   4.821
10979WAT      O33178   7.194   8.625   7.919
10979WAT     H133179   7.286   8.664   7.919
10979WAT     H233180   7.153   8.638   7.829
10980WAT      O33181   2.229   9.261   5.329
10980WAT     H133182   2.144   9.298   5.292
10980WAT     H233183   2.220   9.251   5.428
10981WAT      O33184   0.595   1.278   8.060
10981WAT     H133185   0.599   1.190   8.108
10981WAT     H233186   0.500   1.307   8.053
10982WAT      O33187   7.826   4.460   8.299
10982WAT     H133188   7.764   4.387   8.269
10982WAT     H233189   7.903   4.419   8.349
10983WAT      O33190   0.382   6.373   9.563
10983WAT     H133191   0.366   6.282   9.525
10983WAT     H233192   0.421   6.364   9.655
10984WAT      O33193   1.534   8.227   3.551
10984WAT     H133194   1.442   8.253   3.581
10984WAT     H233195   1.576   8.304   3.503
10985WAT      O33196   6.283   7.846   8.634
10985WAT     H133197   6.284   7.931   8.688
10985WAT     H233198   6.194   7.802   8.645
10986WAT      O33199   2.567   2.660   9.846
10986WAT     H133200   2.624   2.690   9.922
10986WAT     H233201   2.561   2.560   9.846
10987WAT      O33202   5.314   5.442   7.424
10987WAT     H133203   5.379   5.368   7.442
10987WAT     H233204   5.223   5.404   7.410
10988WAT      O33205   2.836   0.980   6.256
10988WAT     H133206   2.825   1.079   6.264
10988WAT     H233207   2.902   0.949   6.325
10989WAT      O33208   1.528   7.821   3.840
10989WAT     H133209   1.536   7.767   3.756
10989WAT     H233210   1.530   7.760   3.919
10990WAT      O33211   6.727   0.810   7.301
10990WAT     H133212   6.731   0.879   7.373
10990WAT     H233213   6.664   0.737   7.328
10991WAT      O33214   2.823   8.388   3.084
10991WAT     H133215   2.805   8.290   3.092
10991WAT     H233216   2.913   8.402   3.042
10992WAT      O33217   9.769   1.813   0.079
10992WAT     H133218   9.770   1.722   0.037
10992WAT     H233219   9.695   1.817   0.147
10993WAT      O33220   0.734   8.082   1.355
10993WAT     H133221   0.684   8.027   1.422
10993WAT     H233222   0.669   8.126   1.293
10994WAT      O33223   1.186   6.718   1.050
10994WAT     H133224   1.271   6.666   1.045
10994WAT     H233225   1.123   6.688   0.978
10995WAT      O33226   3.821   5.015   7.945
10995WAT     H133227   3.893   4.960   7.988
10995WAT     H233228   3.769   4.959   7.881
10996WAT      O33229   2.343   0.525   4.219
10996WAT     H133230   2.374   0.593   4.285
10996WAT     H233231   2.331   0.437   4.264
10997WAT      O33232   4.837   7.646   3.263
10997WAT     H133233   4.784   7.727   3.237
10997WAT     H233234   4.903   7.624   3.191
10998WAT      O33235   3.842   2.428   6.243
10998WAT     H133236   3.925   2.445   6.190
10998WAT     H233237   3.846   2.338   6.285
10999WAT      O33238   6.251   0.584   0.548
10999WAT     H133239   6.308   0.596   0.630
10999WAT     H233240   6.309   0.562   0.470
11000WAT      O33241   7.170   5.596   5.784
11000WAT     H133242   7.177   5.617   5.686
11000WAT     H233243   7.078   5.563   5.804
11001WAT      O33244   3.815   7.070   9.614
11001WAT     H133245   3.771   7.022   9.538
11001WAT     H233246   3.827   7.008   9.691
11002WAT      O33247   8.580   7.611   2.478
11002WAT     H133248   8.502   7.643   2.423
11002WAT     H233249   8.548   7.588   2.570
11003WAT      O33250   4.707   5.740   7.810
11003WAT     H133251   4.689   5.759   7.714
11003WAT     H233252   4.805   5.746   7.828
11004WAT      O33253   3.317   6.869   1.228
11004WAT     H133254   3.239   6.859   1.291
11004WAT     H233255   3.285   6.859   1.134
11005WAT      O33256   3.428   5.394   9.010
11005WAT     H133257   3.387   5.471   9.060
11005WAT     H233258   3.508   5.426   8.959
11006WAT      O33259   0.954   3.989   6.782
11006WAT     H133260   1.022   3.991   6.856
11006WAT     H233261   0.862   3.991   6.821
11007WAT      O33262   1.869   5.807   0.529
11007WAT     H133263   1.927   5.832   0.451
11007WAT     H233264   1.803   5.738   0.500
11008WAT      O33265   4.496   0.402   9.704
11008WAT     H133266   4.405   0.396   9.744
11008WAT     H233267   4.501   0.483   9.645
11009WAT      O33268   9.073   4.318   5.334
11009WAT     H133269   9.004   4.251   5.304
11009WAT     H233270   9.144   4.326   5.264
11010WAT      O33271   0.804   7.990   2.295
11010WAT     H133272   0.735   7.930   2.335
11010WAT     H233273   0.877   8.006   2.361
11011WAT      O33274   0.837   5.231   0.127
11011WAT     H133275   0.911   5.292   0.098
11011WAT     H233276   0.777   5.280   0.191
11012WAT      O33277   5.930   1.236   2.410
11012WAT     H133278   5.977   1.247   2.322
11012WAT     H233279   5.996   1.243   2.484
11013WAT      O33280   8.487   4.731   7.285
11013WAT     H133281   8.563   4.736   7.351
11013WAT     H233282   8.519   4.687   7.201
11014WAT      O33283   6.003   8.762   1.411
11014WAT     H133284   6.022   8.858   1.390
11014WAT     H233285   6.069   8.704   1.364
11015WAT      O33286   6.378   6.081   6.935
11015WAT     H133287   6.412   6.106   6.845
11015WAT     H233288   6.280   6.101   6.940
11016WAT      O33289   0.914   9.491   5.547
11016WAT     H133290   0.969   9.573   5.550
11016WAT     H233291   0.867   9.478   5.634
11017WAT      O33292   8.623   2.497   6.027
11017WAT     H133293   8.630   2.487   5.928
11017WAT     H233294   8.712   2.522   6.064
11018WAT      O33295   5.523   5.982   2.105
11018WAT     H133296   5.462   6.057   2.077
11018WAT     H233297   5.475   5.895   2.097
11019WAT      O33298   9.454   7.138   7.652
11019WAT     H133299   9.496   7.062   7.603
11019WAT     H233300   9.526   7.196   7.691
11020WAT      O33301   5.584   5.010   2.106
11020WAT     H133302   5.567   5.081   2.038
11020WAT     H233303   5.673   5.025   2.149
11021WAT      O33304   0.745   7.392   8.336
11021WAT     H133305   0.672   7.407   8.269
11021WAT     H233306   0.705   7.368   8.424
11022WAT      O33307   8.556   0.829   4.791
11022WAT     H133308   8.496   0.905   4.764
11022WAT     H233309   8.634   0.865   4.842
11023WAT      O33310   3.874   8.704   5.436
11023WAT     H133311   3.787   8.753   5.427
11023WAT     H233312   3.889   8.680   5.531
11024WAT      O33313   9.026   1.849   1.056
11024WAT     H133314   8.980   1.931   1.023
11024WAT     H233315   9.055   1.864   1.151
11025WAT      O33316   0.335   8.311   1.816
11025WAT     H133317   0.270   8.284   1.888
11025WAT     H233318   0.352   8.409   1.821
11026WAT      O33319   9.642   3.434   2.167
11026WAT     H133320   9.733   3.452   2.129
11026WAT     H233321   9.579   3.411   2.092
11027WAT      O33322   7.123   7.428   5.373
11027WAT     H133323   7.206   7.389   5.334
11027WAT     H233324   7.144   7.515   5.417
11028WAT      O33325   8.183   2.693   3.252
11028WAT     H133326   8.180   2.790   3.227
11028WAT     H233327   8.219   2.640   3.176
11029WAT      O33328   9.784   7.963   6.239
11029WAT     H133329   9.764   7.896   6.168
11029WAT     H233330   9.705   8.021   6.255
11030WAT      O33331   7.713   7.980   8.061
11030WAT     H133332   7.709   8.074   8.094
11030WAT     H233333   7.753   7.978   7.970
11031WAT      O33334   5.782   0.948   2.913
11031WAT     H133335   5.854   1.013   2.886
11031WAT     H233336   5.720   0.992   2.979
11032WAT      O33337   3.627   8.791   0.798
11032WAT     H133338   3.686   8.713   0.817
11032WAT     H233339   3.647   8.826   0.706
11033WAT      O33340   8.755   3.407   5.654
11033WAT     H133341   8.823   3.478   5.635
11033WAT     H233342   8.776   3.363   5.741
11034WAT      O33343   5.992   1.193   9.492
11034WAT     H133344   6.052   1.167   9.568
11034WAT     H233345   6.044   1.249   9.427
11035WAT      O33346   2.038   0.681   9.875
11035WAT     H133347   1.970   0.710   9.808
11035WAT     H233348   2.060   0.584   9.859
11036WAT      O33349   2.510   5.180   7.567
11036WAT     H133350   2.525   5.109   7.498
11036WAT     H233351   2.477   5.263   7.522
11037WAT      O33352   7.328   8.857   4.368
11037WAT     H133353   7.352   8.782   4.306
11037WAT     H233354   7.230   8.857   4.384
11038WAT      O33355   7.945   4.733   2.155
11038WAT     H133356   8.019   4.782   2.201
11038WAT     H233357   7.927   4.648   2.203
11039WAT      O33358   6.281   1.136   4.030
11039WAT     H133359   6.351   1.124   4.100
11039WAT     H233360   6.302   1.216   3.975
11040WAT      O33361   7.404   9.613   6.917
11040WAT     H133362   7.391   9.712   6.928
11040WAT     H233363   7.318   9.566   6.933
11041WAT      O33364   4.894   6.922   0.800
11041WAT     H133365   4.888   7.021   0.791
11041WAT     H233366   4.824   6.878   0.744
11042WAT      O33367   3.867   6.732   2.357
11042WAT     H133368   3.935   6.714   2.428
11042WAT     H233369   3.875   6.827   2.327
11043WAT      O33370   1.623   8.430   4.431
11043WAT     H133371   1.597   8.518   4.392
11043WAT     H233372   1.708   8.398   4.388
11044WAT      O33373   5.245   9.133   9.311
11044WAT     H133374   5.169   9.087   9.357
11044WAT     H233375   5.327   9.127   9.368
11045WAT      O33376   7.126   9.020   6.265
11045WAT     H133377   7.108   9.067   6.178
11045WAT     H233378   7.043   9.019   6.320
11046WAT      O33379   5.140   8.594   8.282
11046WAT     H133380   5.117   8.655   8.206
11046WAT     H233381   5.198   8.643   8.347
11047WAT      O33382   4.550   6.225   1.923
11047WAT     H133383   4.497   6.246   2.005
11047WAT     H233384   4.588   6.133   1.930
11048WAT      O33385   5.020   7.025   4.356
11048WAT     H133386   5.008   6.932   4.321
11048WAT     H233387   5.003   7.091   4.283
11049WAT      O33388   3.811   1.943   8.722
11049WAT     H133389   3.745   2.018   8.723
11049WAT     H233390   3.871   1.951   8.802
11050WAT      O33391   6.078   8.858   7.808
11050WAT     H133392   6.064   8.793   7.734
11050WAT     H233393   6.063   8.951   7.774
11051WAT      O33394   9.653   9.624   6.041
11051WAT     H133395   9.703   9.623   6.128
11051WAT     H233396   9.645   9.718   6.008
11052WAT      O33397   1.335   0.651   6.064
11052WAT     H133398   1.358   0.584   6.135
11052WAT     H233399   1.300   0.735   6.107
11053WAT      O33400   6.628   1.636   7.925
11053WAT     H133401   6.593   1.728   7.942
11053WAT     H233402   6.604   1.576   8.002
11054WAT      O33403   0.426   9.392   6.813
11054WAT     H133404   0.524   9.386   6.793
11054WAT     H233405   0.407   9.479   6.860
11055WAT      O33406   3.153   6.449   8.132
11055WAT     H133407   3.210   6.514   8.082
11055WAT     H233408   3.060   6.485   8.139
11056WAT      O33409   8.145   9.350   9.813
11056WAT     H133410   8.183   9.316   9.727
11056WAT     H233411   8.051   9.379   9.799
11057WAT      O33412   5.866   2.775   5.595
11057WAT     H133413   5.913   2.840   5.536
11057WAT     H233414   5.901   2.683   5.580
11058WAT      O33415   8.893   0.461   3.167
11058WAT     H133416   8.825   0.528   3.139
11058WAT     H233417   8.891   0.450   3.267
11059WAT      O33418   4.686   0.992   9.776
11059WAT     H133419   4.709   1.023   9.684
11059WAT     H233420   4.648   1.068   9.828
11060WAT      O33421   9.018   0.442   8.564
11060WAT     H133422   8.951   0.430   8.637
11060WAT     H233423   9.020   0.360   8.507
11061WAT      O33424   8.480   6.760   5.011
11061WAT     H133425   8.430   6.675   4.998
11061WAT     H233426   8.569   6.740   5.052
11062WAT      O33427   2.027   8.793   7.157
11062WAT     H133428   2.081   8.709   7.161
11062WAT     H233429   1.930   8.771   7.156
11063WAT      O33430   8.585   1.642   8.698
11063WAT     H133431   8.621   1.549   8.686
11063WAT     H233432   8.645   1.708   8.653
11064WAT      O33433   1.744   2.201   6.261
11064WAT     H133434   1.660   2.240   6.223
11064WAT     H233435   1.786   2.268   6.323
11065WAT      O33436   2.224   2.283   1.616
11065WAT     H133437   2.316   2.267   1.580
11065WAT     H233438   2.166   2.322   1.544
11066WAT      O33439   5.865   9.453   4.875
11066WAT     H133440   5.801   9.376   4.867
11066WAT     H233441   5.959   9.419   4.875
11067WAT      O33442   7.824   3.379   3.717
11067WAT     H133443   7.902   3.435   3.690
11067WAT     H233444   7.742   3.436   3.718
11068WAT      O33445   5.516   8.104   1.743
11068WAT     H133446   5.475   8.014   1.734
11068WAT     H233447   5.460   8.172   1.696
11069WAT      O33448   5.072   4.878   1.347
11069WAT     H133449   5.005   4.804   1.357
11069WAT     H233450   5.138   4.852   1.276
11070WAT      O33451   9.121   0.571   8.818
11070WAT     H133452   9.122   0.499   8.887
11070WAT     H233453   9.129   0.530   8.727
11071WAT      O33454   4.897   3.979   1.904
11071WAT     H133455   4.801   3.981   1.929
11071WAT     H233456   4.913   4.039   1.825
11072WAT      O33457   8.039   6.139   2.125
11072WAT     H133458   8.095   6.094   2.194
11072WAT     H233459   7.991   6.071   2.070
11073WAT      O33460   4.190   2.476   5.330
11073WAT     H133461   4.205   2.398   5.391
11073WAT     H233462   4.240   2.556   5.365
11074WAT      O33463   5.797   1.536   0.315
11074WAT     H133464   5.735   1.528   0.392
11074WAT     H233465   5.745   1.531   0.229
11075WAT      O33466   7.193   5.478   3.360
11075WAT     H133467   7.146   5.450   3.276
11075WAT     H233468   7.148   5.435   3.438
11076WAT      O33469   7.143   7.136   8.294
11076WAT     H133470   7.047   7.151   8.270
11076WAT     H233471   7.170   7.043   8.269
11077WAT      O33472   0.657   6.743   1.670
11077WAT     H133473   0.569   6.780   1.697
11077WAT     H233474   0.652   6.710   1.575
11078WAT      O33475   9.259   1.217   6.053
11078WAT     H133476   9.329   1.257   6.113
11078WAT     H233477   9.168   1.238   6.090
11079WAT      O33478   6.715   8.663   1.525
11079WAT     H133479   6.730   8.728   1.600
11079WAT     H233480   6.634   8.692   1.473
11080WAT      O33481   9.405   6.272   2.682
11080WAT     H133482   9.362   6.299   2.768
11080WAT     H233483   9.434   6.176   2.688
11081WAT      O33484   6.665   5.461   9.218
11081WAT     H133485   6.588   5.515   9.183
11081WAT     H233486   6.715   5.421   9.141
11082WAT      O33487   4.279   7.680   9.156
11082WAT     H133488   4.249   7.754   9.096
11082WAT     H233489   4.354   7.630   9.112
11083WAT      O33490   4.199   5.206   0.133
11083WAT     H133491   4.257   5.284   0.154
11083WAT     H233492   4.129   5.195   0.203
11084WAT      O33493   6.436   2.800   7.553
11084WAT     H133494   6.494   2.852   7.615
11084WAT     H233495   6.493   2.758   7.482
11085WAT      O33496   2.851   2.675   3.227
11085WAT     H133497   2.907   2.749   3.265
11085WAT     H233498   2.802   2.629   3.301
11086WAT      O33499   3.597   7.136   0.555
11086WAT     H133500   3.546   7.144   0.469
11086WAT     H233501   3.606   7.040   0.580
11087WAT      O33502   3.521   8.566   1.859
11087WAT     H133503   3.617   8.593   1.854
11087WAT     H233504   3.493   8.525   1.772
11088WAT      O33505   6.706   9.528   2.915
11088WAT     H133506   6.804   9.549   2.924
11088WAT     H233507   6.677   9.548   2.821
11089WAT      O33508   0.894   1.434   2.510
11089WAT     H133509   0.974   1.483   2.476
11089WAT     H233510   0.819   1.499   2.523
11090WAT      O33511   5.370   3.707   4.730
11090WAT     H133512   5.390   3.620   4.686
11090WAT     H233513   5.455   3.749   4.762
11091WAT      O33514   6.442   3.852   6.585
11091WAT     H133515   6.431   3.753   6.575
11091WAT     H233516   6.539   3.875   6.590
11092WAT      O33517   6.755   3.215   3.718
11092WAT     H133518   6.808   3.197   3.635
11092WAT     H233519   6.781   3.304   3.756
11093WAT      O33520   4.233   2.414   0.199
11093WAT     H133521   4.179   2.358   0.135
11093WAT     H233522   4.171   2.474   0.250
11094WAT      O33523   2.728   8.673   5.782
11094WAT     H133524   2.803   8.633   5.833
11094WAT     H233525   2.758   8.759   5.741
11095WAT      O33526   8.410   3.443   6.405
11095WAT     H133527   8.419   3.368   6.471
11095WAT     H233528   8.493   3.450   6.350
11096WAT      O33529   1.655   2.927   7.028
11096WAT     H133530   1.574   2.897   7.078
11096WAT     H233531   1.672   2.866   6.951
11097WAT      O33532   6.975   2.350   8.436
11097WAT     H133533   6.933   2.260   8.453
11097WAT     H233534   6.966   2.373   8.340
11098WAT      O33535   1.680   7.216   3.350
11098WAT     H133536   1.685   7.279   3.272
11098WAT     H233537   1.661   7.124   3.317
11099WAT      O33538   8.162   0.618   9.769
11099WAT     H133539   8.179   0.653   9.861
11099WAT     H233540   8.216   0.670   9.703
11100WAT      O33541   2.087   4.671   3.701
11100WAT     H133542   2.164   4.723   3.666
11100WAT     H233543   2.002   4.721   3.683
11101WAT      O33544   6.062   1.816   7.448
11101WAT     H133545   6.156   1.837   7.422
11101WAT     H233546   6.000   1.879   7.401
11102WAT      O33547   1.155   1.458   2.409
11102WAT     H133548   1.176   1.378   2.465
11102WAT     H233549   1.190   1.443   2.316
11103WAT      O33550   9.515   7.068   6.839
11103WAT     H133551   9.532   7.038   6.745
11103WAT     H233552   9.423   7.107   6.845
11104WAT      O33553   2.040   2.158   3.465
11104WAT     H133554   2.069   2.070   3.429
11104WAT     H233555   1.950   2.149   3.508
11105WAT      O33556   0.267   5.174   9.039
11105WAT     H133557   0.245   5.096   8.980
11105WAT     H233558   0.350   5.219   9.006
11106WAT      O33559   3.533   8.874   1.270
11106WAT     H133560   3.495   8.951   1.321
11106WAT     H233561   3.573   8.808   1.334
11107WAT      O33562   4.182   1.094   4.911
11107WAT     H133563   4.171   1.054   5.002
11107WAT     H233564   4.109   1.160   4.894
11108WAT      O33565   1.712   7.639   1.199
11108WAT     H133566   1.809   7.639   1.174
11108WAT     H233567   1.687   7.549   1.233
11109WAT      O33568   3.843   3.483   3.514
11109WAT     H133569   3.765   3.501   3.454
11109WAT     H233570   3.913   3.554   3.501
11110WAT      O33571   3.312   7.989   4.236
11110WAT     H133572   3.338   8.067   4.294
11110WAT     H233573   3.381   7.975   4.165
11111WAT      O33574   2.254   1.054   2.230
11111WAT     H133575   2.265   0.985   2.301
11111WAT     H233576   2.178   1.114   2.253
11112WAT      O33577   1.917   0.162   3.583
11112WAT     H133578   1.836   0.152   3.526
11112WAT     H233579   1.894   0.211   3.667
11113WAT      O33580   6.055   5.579   9.563
11113WAT     H133581   6.106   5.665   9.556
11113WAT     H233582   6.062   5.543   9.656
11114WAT      O33583   7.227   4.484   5.622
11114WAT     H133584   7.176   4.398   5.625
11114WAT     H233585   7.220   4.530   5.710
11115WAT      O33586   8.905   9.002   7.481
11115WAT     H133587   8.971   8.937   7.443
11115WAT     H233588   8.824   8.953   7.512
11116WAT      O33589   5.704   1.616   7.581
11116WAT     H133590   5.761   1.655   7.509
11116WAT     H233591   5.689   1.686   7.652
11117WAT      O33592   8.525   1.303   1.306
11117WAT     H133593   8.516   1.204   1.297
11117WAT     H233594   8.517   1.329   1.402
11118WAT      O33595   6.042   5.268   8.244
11118WAT     H133596   5.964   5.206   8.244
11118WAT     H233597   6.117   5.227   8.295
11119WAT      O33598   4.419   1.819   4.405
11119WAT     H133599   4.347   1.751   4.387
11119WAT     H233600   4.485   1.817   4.331
11120WAT      O33601   1.182   3.478   3.376
11120WAT     H133602   1.190   3.446   3.281
11120WAT     H233603   1.248   3.552   3.391
11121WAT      O33604   0.732   0.541   5.100
11121WAT     H133605   0.815   0.550   5.045
11121WAT     H233606   0.656   0.588   5.054
11122WAT      O33607   6.307   5.932   5.932
11122WAT     H133608   6.234   5.996   5.955
11122WAT     H233609   6.285   5.885   5.846
11123WAT      O33610   3.698   5.025   0.747
11123WAT     H133611   3.687   5.125   0.741
11123WAT     H233612   3.622   4.986   0.797
11124WAT      O33613   6.677   1.033   5.818
11124WAT     H133614   6.674   0.939   5.851
11124WAT     H233615   6.623   1.091   5.878
11125WAT      O33616   5.138   6.905   6.461
11125WAT     H133617   5.081   6.825   6.481
11125WAT     H233618   5.234   6.882   6.477
11126WAT      O33619   6.524   0.671   3.397
11126WAT     H133620   6.448   0.619   3.359
11126WAT     H233621   6.489   0.741   3.459
11127WAT      O33622   0.217   5.313   8.251
11127WAT     H133623   0.293   5.294   8.313
11127WAT     H233624   0.229   5.260   8.166
11128WAT      O33625   0.979   5.465   4.044
11128WAT     H133626   1.000   5.369   4.062
11128WAT     H233627   0.881   5.480   4.051
11129WAT      O33628   9.622   3.751   4.473
11129WAT     H133629   9.618   3.830   4.534
11129WAT     H233630   9.661   3.673   4.522
11130WAT      O33631   1.837   8.046   8.974
11130WAT     H133632   1.792   8.134   8.990
11130WAT     H233633   1.895   8.053   8.892
11131WAT      O33634   7.954   0.211   7.852
11131WAT     H133635   7.868   0.161   7.864
11131WAT     H233636   8.014   0.161   7.789
11132WAT      O33637   7.269   8.017   9.539
11132WAT     H133638   7.178   7.993   9.572
11132WAT     H233639   7.326   8.044   9.617
11133WAT      O33640   4.824   0.786   6.062
11133WAT     H133641   4.797   0.859   5.999
11133WAT     H233642   4.838   0.824   6.153
11134WAT      O33643   0.993   4.713   0.376
11134WAT     H133644   1.034   4.643   0.434
11134WAT     H233645   0.996   4.683   0.281
11135WAT      O33646   7.521   1.984   9.019
11135WAT     H133647   7.559   2.008   8.929
11135WAT     H233648   7.595   1.971   9.084
11136WAT      O33649   7.264   9.745   4.716
11136WAT     H133650   7.327   9.816   4.685
11136WAT     H233651   7.309   9.656   4.715
11137WAT      O33652   8.745   4.289   2.891
11137WAT     H133653   8.767   4.212   2.951
11137WAT     H233654   8.819   4.357   2.896
11138WAT      O33655   1.328   2.948   2.982
11138WAT     H133656   1.284   2.900   2.906
11138WAT     H233657   1.258   2.981   3.046
11139WAT      O33658   3.779   1.962   5.166
11139WAT     H133659   3.810   1.887   5.224
11139WAT     H233660   3.811   1.948   5.072
11140WAT      O33661   6.636   2.616   2.761
11140WAT     H133662   6.566   2.679   2.794
11140WAT     H233663   6.726   2.646   2.795
11141WAT      O33664   0.307   1.668   6.094
11141WAT     H133665   0.274   1.584   6.052
11141WAT     H233666   0.358   1.721   6.027
11142WAT      O33667   2.622   4.163   1.860
11142WAT     H133668   2.706   4.123   1.899
11142WAT     H233669   2.584   4.229   1.925
11143WAT      O33670   7.560   4.193   1.113
11143WAT     H133671   7.659   4.192   1.099
11143WAT     H233672   7.515   4.137   1.043
11144WAT      O33673   3.207   0.034   4.908
11144WAT     H133674   3.254   0.091   4.976
11144WAT     H233675   3.116   0.072   4.890
11145WAT      O33676   2.229   1.813   1.300
11145WAT     H133677   2.233   1.713   1.300
11145WAT     H233678   2.133   1.842   1.301
11146WAT      O33679   1.527   4.422   2.666
11146WAT     H133680   1.547   4.369   2.748
11146WAT     H233681   1.602   4.487   2.649
11147WAT      O33682   1.973   7.164   4.833
11147WAT     H133683   1.970   7.068   4.862
11147WAT     H233684   1.986   7.168   4.733
11148WAT      O33685   2.270   8.881   6.071
11148WAT     H133686   2.322   8.962   6.044
11148WAT     H233687   2.276   8.869   6.170
11149WAT      O33688   5.635   5.553   8.593
11149WAT     H133689   5.608   5.649   8.597
11149WAT     H233690   5.699   5.533   8.666
11150WAT      O33691   2.701   9.662   6.456
11150WAT     H133692   2.747   9.578   6.428
11150WAT     H233693   2.614   9.670   6.406
11151WAT      O33694   3.250   6.492   5.073
11151WAT     H133695   3.202   6.553   5.010
11151WAT     H233696   3.284   6.413   5.024
11152WAT      O33697   4.002   6.938   0.567
11152WAT     H133698   3.949   6.925   0.651
11152WAT     H233699   3.957   7.006   0.509
11153WAT      O33700   2.116   7.961   0.831
11153WAT     H133701   2.059   8.028   0.878
11153WAT     H233702   2.090   7.957   0.734
11154WAT      O33703   5.492   8.281   1.963
11154WAT     H133704   5.428   8.232   1.905
11154WAT     H233705   5.585   8.253   1.941
11155WAT      O33706   2.846   1.783   9.328
11155WAT     H133707   2.897   1.775   9.242
11155WAT     H233708   2.756   1.822   9.310
11156WAT      O33709   8.599   7.113   8.039
11156WAT     H133710   8.645   7.189   7.992
11156WAT     H233711   8.667   7.058   8.087
11157WAT      O33712   6.152   5.415   4.127
11157WAT     H133713   6.159   5.434   4.225
11157WAT     H233714   6.145   5.316   4.112
11158WAT      O33715   1.728   5.984   7.062
11158WAT     H133716   1.643   6.017   7.103
11158WAT     H233717   1.708   5.934   6.978
11159WAT      O33718   0.578   2.159   9.393
11159WAT     H133719   0.480   2.173   9.402
11159WAT     H233720   0.595   2.071   9.348
11160WAT      O33721   6.479   7.820   0.870
11160WAT     H133722   6.416   7.855   0.939
11160WAT     H233723   6.429   7.759   0.807
11161WAT      O33724   3.948   4.627   7.537
11161WAT     H133725   3.866   4.602   7.590
11161WAT     H233726   3.965   4.725   7.548
11162WAT      O33727   3.947   4.172   3.582
11162WAT     H133728   3.964   4.081   3.619
11162WAT     H233729   4.022   4.197   3.520
11163WAT      O33730   1.649   9.572   5.855
11163WAT     H133731   1.706   9.608   5.781
11163WAT     H233732   1.707   9.520   5.919
11164WAT      O33733   6.697   1.831   1.880
11164WAT     H133734   6.628   1.831   1.953
11164WAT     H233735   6.749   1.916   1.883
11165WAT      O33736   9.175   1.595   0.718
11165WAT     H133737   9.250   1.583   0.653
11165WAT     H233738   9.101   1.532   0.696
11166WAT      O33739   6.241   9.389   4.140
11166WAT     H133740   6.188   9.474   4.140
11166WAT     H233741   6.188   9.317   4.095
11167WAT      O33742   8.848   2.664   7.918
11167WAT     H133743   8.810   2.728   7.984
11167WAT     H233744   8.835   2.700   7.825
11168WAT      O33745   2.836   5.851   1.090
11168WAT     H133746   2.814   5.828   0.995
11168WAT     H233747   2.935   5.855   1.101
11169WAT      O33748   0.770   2.026   9.714
11169WAT     H133749   0.748   1.929   9.714
11169WAT     H233750   0.834   2.045   9.788
11170WAT      O33751   6.932   5.663   1.451
11170WAT     H133752   6.871   5.625   1.521
11170WAT     H233753   6.877   5.696   1.374
11171WAT      O33754   0.832   0.604   8.384
11171WAT     H133755   0.858   0.694   8.419
11171WAT     H233756   0.819   0.610   8.285
11172WAT      O33757   9.275   2.910   8.775
11172WAT     H133758   9.204   2.840   8.770
11172WAT     H233759   9.322   2.916   8.687
11173WAT      O33760   9.078   9.596   3.781
11173WAT     H133761   9.166   9.594   3.734
11173WAT     H233762   9.050   9.503   3.804
11174WAT      O33763   3.129   2.730   0.591
11174WAT     H133764   3.067   2.740   0.513
11174WAT     H233765   3.078   2.697   0.670
11175WAT      O33766   3.732   0.970   2.409
11175WAT     H133767   3.725   1.031   2.487
11175WAT     H233768   3.644   0.965   2.362
11176WAT      O33769   9.692   1.493   5.562
11176WAT     H133770   9.625   1.515   5.633
11176WAT     H233771   9.769   1.445   5.602
11177WAT      O33772   6.944   4.126   5.830
11177WAT     H133773   7.001   4.055   5.872
11177WAT     H233774   6.853   4.123   5.871
11178WAT      O33775   0.193   9.365   4.305
11178WAT     H133776   0.179   9.351   4.403
11178WAT     H233777   0.118   9.422   4.270
11179WAT      O33778   0.289   3.400   0.921
11179WAT     H133779   0.263   3.307   0.896
11179WAT     H233780   0.213   3.462   0.901
11180WAT      O33781   5.492   2.678   6.938
11180WAT     H133782   5.402   2.720   6.942
11180WAT     H233783   5.562   2.749   6.932
11181WAT      O33784   9.461   8.506   5.777
11181WAT     H133785   9.423   8.428   5.726
11181WAT     H233786   9.463   8.484   5.874
11182WAT      O33787   7.833   3.809   8.913
11182WAT     H133788   7.758   3.874   8.926
11182WAT     H233789   7.833   3.776   8.819
11183WAT      O33790   0.553   8.690   6.290
11183WAT     H133791   0.643   8.657   6.262
11183WAT     H233792   0.505   8.617   6.340
11184WAT      O33793   4.253   4.054   1.254
11184WAT     H133794   4.215   4.138   1.293
11184WAT     H233795   4.212   3.975   1.300
11185WAT      O33796   7.967   9.716   6.231
11185WAT     H133797   8.067   9.704   6.232
11185WAT     H233798   7.933   9.718   6.325
11186WAT      O33799   7.256   8.728   4.121
11186WAT     H133800   7.212   8.799   4.065
11186WAT     H233801   7.211   8.640   4.105
11187WAT      O33802   3.803   4.176   5.404
11187WAT     H133803   3.808   4.086   5.446
11187WAT     H233804   3.794   4.167   5.305
11188WAT      O33805   2.140   5.062   4.711
11188WAT     H133806   2.082   5.020   4.780
11188WAT     H233807   2.176   5.148   4.747
11189WAT      O33808   4.199   1.461   6.615
11189WAT     H133809   4.147   1.533   6.570
11189WAT     H233810   4.165   1.448   6.708
11190WAT      O33811   8.357   8.682   9.879
11190WAT     H133812   8.320   8.625   9.807
11190WAT     H233813   8.326   8.648   9.968
11191WAT      O33814   3.223   5.117   0.431
11191WAT     H133815   3.164   5.197   0.441
11191WAT     H233816   3.262   5.115   0.339
11192WAT      O33817   8.698   4.476   1.324
11192WAT     H133818   8.785   4.480   1.275
11192WAT     H233819   8.688   4.385   1.365
11193WAT      O33820   6.306   1.612   9.513
11193WAT     H133821   6.403   1.635   9.521
11193WAT     H233822   6.251   1.691   9.537
11194WAT      O33823   6.943   8.861   8.267
11194WAT     H133824   6.967   8.808   8.186
11194WAT     H233825   6.844   8.877   8.269
11195WAT      O33826   2.200   1.178   0.155
11195WAT     H133827   2.298   1.194   0.165
11195WAT     H233828   2.163   1.241   0.087
11196WAT      O33829   5.449   4.134   2.018
11196WAT     H133830   5.398   4.049   2.005
11196WAT     H233831   5.403   4.209   1.972
11197WAT      O33832   8.026   4.808   7.027
11197WAT     H133833   8.012   4.887   7.087
11197WAT     H233834   8.121   4.808   6.995
11198WAT      O33835   5.452   2.383   1.055
11198WAT     H133836   5.385   2.323   1.010
11198WAT     H233837   5.497   2.333   1.129
11199WAT      O33838   0.567   7.906   4.661
11199WAT     H133839   0.644   7.967   4.644
11199WAT     H233840   0.567   7.832   4.593
11200WAT      O33841   8.963   7.150   9.728
11200WAT     H133842   8.984   7.077   9.793
11200WAT     H233843   8.924   7.228   9.776
11201WAT      O33844   5.210   2.711   2.064
11201WAT     H133845   5.126   2.755   2.096
11201WAT     H233846   5.212   2.713   1.964
11202WAT      O33847   0.532   5.298   2.720
11202WAT     H133848   0.476   5.291   2.638
11202WAT     H233849   0.621   5.257   2.704
11203WAT      O33850   6.417   7.255   5.866
11203WAT     H133851   6.365   7.189   5.813
11203WAT     H233852   6.487   7.207   5.919
11204WAT      O33853   4.971   8.594   4.263
11204WAT     H133854   4.961   8.497   4.283
11204WAT     H233855   5.038   8.606   4.189
11205WAT      O33856   5.496   3.692   7.389
11205WAT     H133857   5.470   3.741   7.472
11205WAT     H233858   5.564   3.622   7.410
11206WAT      O33859   5.342   9.028   1.351
11206WAT     H133860   5.365   8.940   1.394
11206WAT     H233861   5.359   9.102   1.415
11207WAT      O33862   5.679   9.297   0.887
11207WAT     H133863   5.777   9.279   0.896
11207WAT     H233864   5.630   9.211   0.880
11208WAT      O33865   3.375   2.745   4.972
11208WAT     H133866   3.355   2.828   4.922
11208WAT     H233867   3.393   2.767   5.068
11209WAT      O33868   7.610   1.850   0.728
11209WAT     H133869   7.524   1.893   0.700
11209WAT     H233870   7.640   1.786   0.657
11210WAT      O33871   1.954   4.097   8.181
11210WAT     H133872   1.958   4.163   8.256
11210WAT     H233873   1.948   4.004   8.219
11211WAT      O33874   7.813   0.502   6.464
11211WAT     H133875   7.753   0.558   6.521
11211WAT     H233876   7.901   0.548   6.454
11212WAT      O33877   8.872   8.647   9.088
11212WAT     H133878   8.931   8.727   9.099
11212WAT     H233879   8.786   8.674   9.044
11213WAT      O33880   7.253   5.915   2.946
11213WAT     H133881   7.185   5.852   2.907
11213WAT     H233882   7.207   5.999   2.975
11214WAT      O33883   4.850   3.920   0.869
11214WAT     H133884   4.808   3.844   0.918
11214WAT     H233885   4.849   3.901   0.771
11215WAT      O33886   5.712   4.506   5.789
11215WAT     H133887   5.771   4.471   5.716
11215WAT     H233888   5.735   4.602   5.807
11216WAT      O33889   3.288   3.708   4.242
11216WAT     H133890   3.276   3.804   4.264
11216WAT     H233891   3.378   3.694   4.200
11217WAT      O33892   8.253   5.744   7.492
11217WAT     H133893   8.348   5.730   7.465
11217WAT     H233894   8.198   5.667   7.462
11218WAT      O33895   4.844   3.664   3.196
11218WAT     H133896   4.929   3.612   3.199
11218WAT     H233897   4.829   3.709   3.284
11219WAT      O33898   7.126   6.764   1.837
11219WAT     H133899   7.044   6.821   1.839
11219WAT     H233900   7.112   6.684   1.895
11220WAT      O33901   4.920   6.144   6.956
11220WAT     H133902   4.868   6.185   7.031
11220WAT     H233903   4.937   6.048   6.976
11221WAT      O33904   2.872   9.192   5.621
11221WAT     H133905   2.829   9.221   5.535
11221WAT     H233906   2.971   9.193   5.610
11222WAT      O33907   1.949   0.846   8.170
11222WAT     H133908   2.018   0.775   8.184
11222WAT     H233909   1.913   0.841   8.077
11223WAT      O33910   7.759   2.158   7.927
11223WAT     H133911   7.789   2.129   8.017
11223WAT     H233912   7.727   2.252   7.931
11224WAT      O33913   2.820   8.200   7.402
11224WAT     H133914   2.787   8.137   7.472
11224WAT     H233915   2.882   8.266   7.443
11225WAT      O33916   9.854   1.127   1.427
11225WAT     H133917   9.953   1.112   1.426
11225WAT     H233918   9.831   1.196   1.359
11226WAT      O33919   1.464   8.894   6.903
11226WAT     H133920   1.473   8.893   6.803
11226WAT     H233921   1.379   8.940   6.929
11227WAT      O33922   8.473   5.280   8.141
11227WAT     H133923   8.485   5.197   8.086
11227WAT     H233924   8.486   5.258   8.238
11228WAT      O33925   0.524   7.559   9.644
11228WAT     H133926   0.485   7.491   9.707
11228WAT     H233927   0.458   7.578   9.572
11229WAT      O33928   3.319   9.830   9.616
11229WAT     H133929   3.242   9.835   9.553
11229WAT     H233930   3.401   9.867   9.572
11230WAT      O33931   5.306   4.190   6.342
11230WAT     H133932   5.295   4.191   6.441
11230WAT     H233933   5.231   4.139   6.300
11231WAT      O33934   7.380   1.110   8.558
11231WAT     H133935   7.479   1.101   8.548
11231WAT     H233936   7.348   1.188   8.505
11232WAT      O33937   8.912   1.811   4.304
11232WAT     H133938   8.867   1.840   4.220
11232WAT     H233939   8.849   1.821   4.381
11233WAT      O33940   5.957   4.682   1.383
11233WAT     H133941   5.953   4.585   1.410
11233WAT     H233942   5.871   4.707   1.337
11234WAT      O33943   8.013   2.610   0.553
11234WAT     H133944   7.960   2.580   0.633
11234WAT     H233945   8.034   2.530   0.496
11235WAT      O33946   1.348   6.704   5.995
11235WAT     H133947   1.335   6.786   6.052
11235WAT     H233948   1.260   6.674   5.959
11236WAT      O33949   6.947   5.494   8.515
11236WAT     H133950   6.910   5.435   8.587
11236WAT     H233951   6.946   5.446   8.428
11237WAT      O33952   5.396   1.051   8.104
11237WAT     H133953   5.373   1.062   8.007
11237WAT     H233954   5.319   1.007   8.151
11238WAT      O33955   2.333   4.813   7.693
11238WAT     H133956   2.352   4.774   7.784
11238WAT     H233957   2.235   4.822   7.681
11239WAT      O33958   8.803   1.276   0.178
11239WAT     H133959   8.795   1.362   0.127
11239WAT     H233960   8.726   1.216   0.155
11240WAT      O33961   6.784   4.115   6.702
11240WAT     H133962   6.774   4.206   6.742
11240WAT     H233963   6.766   4.120   6.603
11241WAT      O33964   8.865   0.481   4.649
11241WAT     H133965   8.865   0.497   4.551
11241WAT     H233966   8.783   0.522   4.690
11242WAT      O33967   7.802   2.227   9.346
11242WAT     H133968   7.785   2.315   9.301
11242WAT     H233969   7.771   2.231   9.441
11243WAT      O33970   9.637   7.280   4.702
11243WAT     H133971   9.710   7.276   4.633
11243WAT     H233972   9.671   7.325   4.784
11244WAT      O33973   5.097   1.434   5.434
11244WAT     H133974   5.112   1.533   5.422
11244WAT     H233975   5.142   1.384   5.360
11245WAT      O33976   8.864   0.607   5.653
11245WAT     H133977   8.947   0.658   5.633
11245WAT     H233978   8.784   0.666   5.642
11246WAT      O33979   2.796   3.946   7.084
11246WAT     H133980   2.838   3.902   7.163
11246WAT     H233981   2.755   4.033   7.112
11247WAT      O33982   0.384   6.253   7.743
11247WAT     H133983   0.441   6.297   7.812
11247WAT     H233984   0.338   6.174   7.783
11248WAT      O33985   4.080   2.789   4.010
11248WAT     H133986   4.034   2.737   3.939
11248WAT     H233987   4.049   2.757   4.100
11249WAT      O33988   4.818   9.208   7.802
11249WAT     H133989   4.723   9.236   7.815
11249WAT     H233990   4.853   9.169   7.888
11250WAT      O33991   0.048   8.200   3.667
11250WAT     H133992   0.107   8.250   3.604
11250WAT     H233993  -0.038   8.177   3.621
11251WAT      O33994   6.388   1.237   7.754
11251WAT     H133995   6.363   1.218   7.849
11251WAT     H233996   6.434   1.326   7.749
11252WAT      O33997   7.778   5.571   4.248
11252WAT     H133998   7.741   5.489   4.203
11252WAT     H233999   7.703   5.635   4.265
11253WAT      O34000   3.732   4.687   5.660
11253WAT     H134001   3.643   4.729   5.675
11253WAT     H234002   3.785   4.745   5.598
11254WAT      O34003   0.808   8.608   6.254
11254WAT     H134004   0.855   8.572   6.334
11254WAT     H234005   0.858   8.584   6.172
11255WAT      O34006   4.988   4.882   3.594
11255WAT     H134007   4.969   4.858   3.499
11255WAT     H234008   5.080   4.920   3.601
11256WAT      O34009   2.452   8.638   5.301
11256WAT     H134010   2.472   8.567   5.369
11256WAT     H234011   2.361   8.675   5.316
11257WAT      O34012   9.177   1.444   4.474
11257WAT     H134013   9.203   1.363   4.422
11257WAT     H234014   9.245   1.516   4.459
11258WAT      O34015   5.070   0.138   1.734
11258WAT     H134016   5.124   0.054   1.727
11258WAT     H234017   4.990   0.122   1.791
11259WAT      O34018   0.901   2.684   2.867
11259WAT     H134019   0.938   2.661   2.957
11259WAT     H234020   0.929   2.615   2.800
11260WAT      O34021   6.148   1.242   9.277
11260WAT     H134022   6.238   1.211   9.306
11260WAT     H234023   6.128   1.208   9.185
11261WAT      O34024   3.474   9.476   7.899
11261WAT     H134025   3.546   9.436   7.958
11261WAT     H234026   3.401   9.511   7.957
11262WAT      O34027   8.577   6.275   4.872
11262WAT     H134028   8.525   6.310   4.950
11262WAT     H234029   8.555   6.178   4.859
11263WAT      O34030   9.484   0.192   7.862
11263WAT     H134031   9.392   0.201   7.898
11263WAT     H234032   9.527   0.282   7.856
11264WAT      O34033   8.540   5.029   8.018
11264WAT     H134034   8.603   4.956   8.043
11264WAT     H234035   8.530   5.033   7.919
11265WAT      O34036   0.091   8.283   6.932
11265WAT     H134037   0.028   8.232   6.874
11265WAT     H234038   0.129   8.360   6.881
11266WAT      O34039   3.660   0.448   7.022
11266WAT     H134040   3.732   0.455   7.090
11266WAT     H234041   3.573   0.477   7.061
11267WAT      O34042   1.010   7.127   1.491
11267WAT     H134043   1.105   7.153   1.476
11267WAT     H234044   0.994   7.035   1.452
11268WAT      O34045   1.373   5.410   1.422
11268WAT     H134046   1.403   5.359   1.341
11268WAT     H234047   1.441   5.401   1.494
11269WAT      O34048   2.043   2.529   1.033
11269WAT     H134049   2.070   2.610   0.981
11269WAT     H234050   1.996   2.558   1.117
11270WAT      O34051   1.020   7.775   3.436
11270WAT     H134052   1.078   7.742   3.511
11270WAT     H234053   1.078   7.800   3.359
11271WAT      O34054   8.836   0.814   3.389
11271WAT     H134055   8.908   0.776   3.331
11271WAT     H234056   8.860   0.908   3.415
11272WAT      O34057   7.150   2.966   5.188
11272WAT     H134058   7.069   2.922   5.227
11272WAT     H234059   7.130   3.062   5.169
11273WAT      O34060   0.409   9.257   7.437
11273WAT     H134061   0.397   9.291   7.344
11273WAT     H234062   0.392   9.332   7.502
11274WAT      O34063   4.259   2.861   8.611
11274WAT     H134064   4.300   2.770   8.613
11274WAT     H234065   4.261   2.896   8.517
11275WAT      O34066   3.397   7.054   7.810
11275WAT     H134067   3.441   6.978   7.858
11275WAT     H234068   3.335   7.101   7.873
11276WAT      O34069   9.281   0.229   4.758
11276WAT     H134070   9.246   0.136   4.771
11276WAT     H234071   9.208   0.294   4.779
11277WAT      O34072   1.611   2.323   5.851
11277WAT     H134073   1.545   2.356   5.919
11277WAT     H234074   1.567   2.256   5.791
11278WAT      O34075   6.847   5.593   4.932
11278WAT     H134076   6.870   5.504   4.892
11278WAT     H234077   6.797   5.580   5.017
11279WAT      O34078   1.446   6.160   5.998
11279WAT     H134079   1.452   6.060   5.986
11279WAT     H234080   1.382   6.197   5.931
11280WAT      O34081   6.089   2.536   1.657
11280WAT     H134082   6.135   2.453   1.690
11280WAT     H234083   6.079   2.531   1.558
11281WAT      O34084   8.600   4.379   6.170
11281WAT     H134085   8.569   4.401   6.078
11281WAT     H234086   8.535   4.415   6.237
11282WAT      O34087   9.746   2.728   8.409
11282WAT     H134088   9.718   2.708   8.503
11282WAT     H234089   9.845   2.739   8.404
11283WAT      O34090   3.343   3.630   1.977
11283WAT     H134091   3.397   3.555   1.939
11283WAT     H234092   3.335   3.619   2.076
11284WAT      O34093   2.912   4.362   4.481
11284WAT     H134094   2.880   4.389   4.572
11284WAT     H234095   3.000   4.406   4.463
11285WAT      O34096   9.643   2.485   3.576
11285WAT     H134097   9.685   2.573   3.553
11285WAT     H234098   9.576   2.460   3.505
11286WAT      O34099   3.606   1.179   0.698
11286WAT     H134100   3.581   1.210   0.790
11286WAT     H234101   3.681   1.113   0.704
11287WAT      O34102   8.098   8.067   2.261
11287WAT     H134103   8.127   8.004   2.189
11287WAT     H234104   8.002   8.052   2.282
11288WAT      O34105   1.283   9.743   7.166
11288WAT     H134106   1.240   9.653   7.174
11288WAT     H234107   1.234   9.797   7.099
11289WAT      O34108   7.982   0.513   9.594
11289WAT     H134109   8.043   0.586   9.625
11289WAT     H234110   7.904   0.506   9.655
11290WAT      O34111   1.595   7.721   5.287
11290WAT     H134112   1.689   7.741   5.260
11290WAT     H234113   1.582   7.622   5.295
11291WAT      O34114   2.029   0.814   3.036
11291WAT     H134115   1.969   0.736   3.022
11291WAT     H234116   2.056   0.819   3.132
11292WAT      O34117   5.304   9.767   6.725
11292WAT     H134118   5.366   9.760   6.647
11292WAT     H234119   5.297   9.863   6.753
11293WAT      O34120   7.909   6.007   4.353
11293WAT     H134121   7.890   6.022   4.450
11293WAT     H234122   7.903   6.095   4.305
11294WAT      O34123   7.293   4.962   0.341
11294WAT     H134124   7.298   5.007   0.430
11294WAT     H234125   7.216   5.000   0.290
11295WAT      O34126   1.927   3.990   5.275
11295WAT     H134127   1.975   3.988   5.363
11295WAT     H234128   1.994   3.981   5.201
11296WAT      O34129   8.634   9.488   8.448
11296WAT     H134130   8.652   9.545   8.528
11296WAT     H234131   8.717   9.439   8.423
11297WAT      O34132   7.347   4.491   4.678
11297WAT     H134133   7.332   4.586   4.706
11297WAT     H234134   7.437   4.483   4.635
11298WAT      O34135   9.846   7.390   6.613
11298WAT     H134136   9.897   7.449   6.551
11298WAT     H234137   9.867   7.294   6.593
11299WAT      O34138   4.425   5.283   3.144
11299WAT     H134139   4.468   5.289   3.054
11299WAT     H234140   4.434   5.371   3.191
11300WAT      O34141   5.990   3.043   3.523
11300WAT     H134142   6.039   3.052   3.436
11300WAT     H234143   5.896   3.077   3.512
11301WAT      O34144   9.075   4.886   7.941
11301WAT     H134145   9.140   4.837   8.000
11301WAT     H234146   9.048   4.971   7.985
11302WAT      O34147   0.371   7.073   9.504
11302WAT     H134148   0.427   7.115   9.433
11302WAT     H234149   0.276   7.104   9.495
11303WAT      O34150   8.446   2.173   7.763
11303WAT     H134151   8.398   2.160   7.850
11303WAT     H234152   8.403   2.116   7.692
11304WAT      O34153   6.892   9.119   0.344
11304WAT     H134154   6.963   9.140   0.277
11304WAT     H234155   6.811   9.174   0.325
11305WAT      O34156   4.579   2.815   4.903
11305WAT     H134157   4.536   2.857   4.983
11305WAT     H234158   4.649   2.875   4.867
11306WAT      O34159   0.902   9.557   9.096
11306WAT     H134160   0.945   9.603   9.019
11306WAT     H234161   0.913   9.612   9.179
11307WAT      O34162   2.268   2.699   7.864
11307WAT     H134163   2.342   2.681   7.798
11307WAT     H234164   2.215   2.616   7.879
11308WAT      O34165   8.937   2.982   5.162
11308WAT     H134166   8.948   2.944   5.070
11308WAT     H234167   8.946   3.081   5.158
11309WAT      O34168   7.448   7.390   3.060
11309WAT     H134169   7.536   7.421   3.094
11309WAT     H234170   7.405   7.463   3.007
11310WAT      O34171   7.507   8.235   4.263
11310WAT     H134172   7.560   8.225   4.178
11310WAT     H234173   7.477   8.330   4.272
11311WAT      O34174   9.083   9.004   2.502
11311WAT     H134175   9.172   9.049   2.509
11311WAT     H234176   9.013   9.060   2.546
11312WAT      O34177   4.592   4.392   4.498
11312WAT     H134178   4.528   4.460   4.464
11312WAT     H234179   4.627   4.421   4.588
11313WAT      O34180   9.301   7.292   1.520
11313WAT     H134181   9.400   7.297   1.506
11313WAT     H234182   9.255   7.354   1.457
11314WAT      O34183   5.459   3.725   5.628
11314WAT     H134184   5.399   3.753   5.703
11314WAT     H234185   5.427   3.638   5.590
11315WAT      O34186   7.658   7.375   6.841
11315WAT     H134187   7.567   7.415   6.849
11315WAT     H234188   7.655   7.299   6.776
11316WAT      O34189   0.138   1.307   6.419
11316WAT     H134190   0.211   1.249   6.454
11316WAT     H234191   0.176   1.392   6.383
11317WAT      O34192   3.072   3.269   8.661
11317WAT     H134193   3.111   3.203   8.725
11317WAT     H234194   3.135   3.346   8.650
11318WAT      O34195   2.714   4.954   3.463
11318WAT     H134196   2.656   4.901   3.401
11318WAT     H234197   2.775   5.013   3.409
11319WAT      O34198   8.421   3.916   0.651
11319WAT     H134199   8.456   3.991   0.595
11319WAT     H234200   8.347   3.870   0.603
11320WAT      O34201   6.073   2.165   2.053
11320WAT     H134202   6.063   2.264   2.045
11320WAT     H234203   6.008   2.130   2.120
11321WAT      O34204   2.912   1.389   8.996
11321WAT     H134205   2.891   1.316   9.061
11321WAT     H234206   2.834   1.402   8.935
11322WAT      O34207   8.243   8.996   7.993
11322WAT     H134208   8.272   8.900   7.990
11322WAT     H234209   8.195   9.014   8.079
11323WAT      O34210   3.001   8.404   1.398
11323WAT     H134211   3.085   8.395   1.344
11323WAT     H234212   2.929   8.349   1.355
11324WAT      O34213   9.619   7.153   2.528
11324WAT     H134214   9.680   7.088   2.483
11324WAT     H234215   9.535   7.164   2.474
11325WAT      O34216   7.500   8.364   5.619
11325WAT     H134217   7.507   8.371   5.520
11325WAT     H234218   7.510   8.455   5.660
11326WAT      O34219   0.906   4.474   3.555
11326WAT     H134220   0.835   4.538   3.585
11326WAT     H234221   0.992   4.523   3.544
11327WAT      O34222   1.089   7.137   9.701
11327WAT     H134223   1.065   7.228   9.667
11327WAT     H234224   1.007   7.093   9.739
11328WAT      O34225   0.575   8.831   6.528
11328WAT     H134226   0.653   8.850   6.586
11328WAT     H234227   0.606   8.819   6.433
11329WAT      O34228   6.552   1.027   4.602
11329WAT     H134229   6.631   1.003   4.546
11329WAT     H234230   6.581   1.032   4.698
11330WAT      O34231   0.950   3.487   3.138
11330WAT     H134232   1.048   3.472   3.125
11330WAT     H234233   0.934   3.579   3.173
11331WAT      O34234   3.480   2.158   3.910
11331WAT     H134235   3.497   2.130   4.004
11331WAT     H234236   3.566   2.157   3.858
11332WAT      O34237   6.723   3.657   8.519
11332WAT     H134238   6.638   3.710   8.515
11332WAT     H234239   6.702   3.560   8.506
11333WAT      O34240   2.366   5.499   0.830
11333WAT     H134241   2.413   5.545   0.906
11333WAT     H234242   2.317   5.419   0.865
11334WAT      O34243   4.991   0.411   5.931
11334WAT     H134244   5.040   0.327   5.909
11334WAT     H234245   4.924   0.431   5.859
11335WAT      O34246   9.722   8.624   2.701
11335WAT     H134247   9.705   8.562   2.625
11335WAT     H234248   9.655   8.607   2.773
11336WAT      O34249   0.282   9.111   4.241
11336WAT     H134250   0.234   9.196   4.263
11336WAT     H234251   0.243   9.036   4.293
11337WAT      O34252   3.049   0.739   5.168
11337WAT     H134253   3.124   0.675   5.186
11337WAT     H234254   3.022   0.732   5.072
11338WAT      O34255   6.663   9.307   1.245
11338WAT     H134256   6.693   9.399   1.216
11338WAT     H234257   6.743   9.247   1.250
11339WAT      O34258   3.730   9.395   9.472
11339WAT     H134259   3.670   9.373   9.550
11339WAT     H234260   3.707   9.486   9.438
11340WAT      O34261   4.163   0.926   5.563
11340WAT     H134262   4.088   0.892   5.506
11340WAT     H234263   4.223   0.850   5.588
11341WAT      O34264   2.843   4.559   6.330
11341WAT     H134265   2.830   4.640   6.387
11341WAT     H234266   2.890   4.584   6.246
11342WAT      O34267   6.941   3.981   1.679
11342WAT     H134268   6.854   4.031   1.682
11342WAT     H234269   7.003   4.018   1.748
11343WAT      O34270   6.787   6.969   8.648
11343WAT     H134271   6.871   6.983   8.595
11343WAT     H234272   6.710   6.955   8.585
11344WAT      O34273   4.702   2.532   6.567
11344WAT     H134274   4.801   2.545   6.571
11344WAT     H234275   4.672   2.480   6.647
11345WAT      O34276   3.663   5.870   2.917
11345WAT     H134277   3.757   5.892   2.891
11345WAT     H234278   3.663   5.806   2.994
11346WAT      O34279   3.080   6.068   0.931
11346WAT     H134280   3.111   6.161   0.948
11346WAT     H234281   2.981   6.062   0.942
11347WAT      O34282   3.287   3.007   6.802
11347WAT     H134283   3.200   3.035   6.842
11347WAT     H234284   3.333   3.087   6.764
11348WAT      O34285   2.182   8.588   7.147
11348WAT     H134286   2.206   8.513   7.085
11348WAT     H234287   2.227   8.573   7.236
11349WAT      O34288   4.192   4.348   8.150
11349WAT     H134289   4.149   4.319   8.064
11349WAT     H234290   4.233   4.269   8.196
11350WAT      O34291   8.826   0.985   4.599
11350WAT     H134292   8.746   1.020   4.648
11350WAT     H234293   8.904   1.045   4.615
11351WAT      O34294   0.547   4.271   9.528
11351WAT     H134295   0.612   4.207   9.487
11351WAT     H234296   0.588   4.312   9.610
11352WAT      O34297   6.987   2.221   1.472
11352WAT     H134298   6.920   2.186   1.407
11352WAT     H234299   7.075   2.177   1.456
11353WAT      O34300   5.841   4.174   6.779
11353WAT     H134301   5.830   4.273   6.785
11353WAT     H234302   5.763   4.129   6.822
11354WAT      O34303   0.617   0.559   6.146
11354WAT     H134304   0.573   0.525   6.229
11354WAT     H234305   0.583   0.651   6.126
11355WAT      O34306   9.391   1.171   7.402
11355WAT     H134307   9.445   1.255   7.404
11355WAT     H234308   9.336   1.168   7.319
11356WAT      O34309   1.232   1.772   7.916
11356WAT     H134310   1.165   1.828   7.963
11356WAT     H234311   1.188   1.722   7.841
11357WAT      O34312   3.585   6.248   2.534
11357WAT     H134313   3.661   6.205   2.486
11357WAT     H234314   3.525   6.177   2.573
11358WAT      O34315   4.643   5.168   7.724
11358WAT     H134316   4.548   5.138   7.714
11358WAT     H234317   4.661   5.245   7.662
11359WAT      O34318   9.353   2.793   4.718
11359WAT     H134319   9.315   2.708   4.756
11359WAT     H234320   9.440   2.814   4.763
11360WAT      O34321   7.089   8.177   4.544
11360WAT     H134322   7.009   8.125   4.576
11360WAT     H234323   7.068   8.219   4.456
11361WAT      O34324   2.652   1.960   9.177
11361WAT     H134325   2.642   1.861   9.167
11361WAT     H234326   2.571   2.006   9.139
11362WAT      O34327   1.693   1.167   4.288
11362WAT     H134328   1.724   1.248   4.237
11362WAT     H234329   1.699   1.087   4.229
11363WAT      O34330   2.830   6.994   1.515
11363WAT     H134331   2.733   6.972   1.528
11363WAT     H234332   2.837   7.082   1.469
11364WAT      O34333   2.111   6.207   3.322
11364WAT     H134334   2.182   6.270   3.356
11364WAT     H234335   2.029   6.217   3.378
11365WAT      O34336   1.390   1.501   6.872
11365WAT     H134337   1.323   1.444   6.824
11365WAT     H234338   1.421   1.575   6.813
11366WAT      O34339   7.092   7.374   6.524
11366WAT     H134340   7.152   7.427   6.464
11366WAT     H234341   7.001   7.415   6.525
11367WAT      O34342   6.022   2.066   9.087
11367WAT     H134343   5.934   2.030   9.055
11367WAT     H234344   6.013   2.095   9.182
11368WAT      O34345   3.665   5.409   5.770
11368WAT     H134346   3.681   5.359   5.855
11368WAT     H234347   3.638   5.502   5.791
11369WAT      O34348   9.060   2.836   9.385
11369WAT     H134349   9.083   2.768   9.316
11369WAT     H234350   9.058   2.927   9.343
11370WAT      O34351   5.859   9.059   6.471
11370WAT     H134352   5.919   9.104   6.537
11370WAT     H234353   5.800   8.994   6.518
11371WAT      O34354   7.156   8.452   4.082
11371WAT     H134355   7.236   8.395   4.065
11371WAT     H234356   7.107   8.418   4.163
11372WAT      O34357   8.370   4.500   1.646
11372WAT     H134358   8.391   4.404   1.632
11372WAT     H234359   8.356   4.518   1.744
11373WAT      O34360   1.660   2.347   0.433
11373WAT     H134361   1.710   2.365   0.517
11373WAT     H234362   1.671   2.423   0.370
11374WAT      O34363   3.123   8.320   6.261
11374WAT     H134364   3.144   8.308   6.164
11374WAT     H234365   3.159   8.409   6.292
11375WAT      O34366   3.152   1.384   4.244
11375WAT     H134367   3.130   1.453   4.313
11375WAT     H234368   3.150   1.426   4.153
11376WAT      O34369   9.026   3.178   8.480
11376WAT     H134370   9.091   3.196   8.555
11376WAT     H234371   9.077   3.164   8.395
11377WAT      O34372   0.039   3.024   6.247
11377WAT     H134373   0.075   2.937   6.281
11377WAT     H234374   0.063   3.035   6.151
11378WAT      O34375   7.773   4.278   6.004
11378WAT     H134376   7.829   4.358   6.026
11378WAT     H234377   7.737   4.239   6.089
11379WAT      O34378   2.342   9.162   9.184
11379WAT     H134379   2.368   9.073   9.220
11379WAT     H234380   2.349   9.231   9.257
11380WAT      O34381   7.437   7.237   4.238
11380WAT     H134382   7.419   7.331   4.209
11380WAT     H234383   7.504   7.237   4.312
11381WAT      O34384   2.960   7.573   6.926
11381WAT     H134385   2.866   7.600   6.947
11381WAT     H234386   2.998   7.523   7.004
11382WAT      O34387   0.562   1.415   9.829
11382WAT     H134388   0.631   1.360   9.877
11382WAT     H234389   0.514   1.473   9.894
11383WAT      O34390   0.549   8.618   4.565
11383WAT     H134391   0.567   8.693   4.628
11383WAT     H234392   0.593   8.534   4.598
11384WAT      O34393   7.278   5.543   0.592
11384WAT     H134394   7.304   5.634   0.624
11384WAT     H234395   7.268   5.482   0.670
11385WAT      O34396   0.253   7.052   4.131
11385WAT     H134397   0.281   7.106   4.052
11385WAT     H234398   0.167   7.005   4.110
11386WAT      O34399   3.642   7.143   1.065
11386WAT     H134400   3.576   7.151   0.990
11386WAT     H234401   3.675   7.049   1.070
11387WAT      O34402   3.858   6.284   1.918
11387WAT     H134403   3.924   6.222   1.876
11387WAT     H234404   3.840   6.360   1.856
11388WAT      O34405   9.540   7.197   4.291
11388WAT     H134406   9.634   7.165   4.306
11388WAT     H234407   9.518   7.192   4.193
11389WAT      O34408   8.557   0.943   2.838
11389WAT     H134409   8.526   1.031   2.803
11389WAT     H234410   8.655   0.934   2.824
11390WAT      O34411   1.033   6.899   8.050
11390WAT     H134412   1.021   6.935   7.958
11390WAT     H234413   1.128   6.870   8.062
11391WAT      O34414   0.049   1.463   3.064
11391WAT     H134415  -0.029   1.446   3.004
11391WAT     H234416   0.053   1.560   3.088
11392WAT      O34417   3.636   3.828   3.585
11392WAT     H134418   3.673   3.900   3.643
11392WAT     H234419   3.642   3.740   3.634
11393WAT      O34420   4.349   3.898   3.993
11393WAT     H134421   4.393   3.987   3.996
11393WAT     H234422   4.258   3.904   4.035
11394WAT      O34423   7.863   9.765   6.483
11394WAT     H134424   7.767   9.793   6.475
11394WAT     H234425   7.907   9.818   6.555
11395WAT      O34426   9.567   5.473   2.186
11395WAT     H134427   9.548   5.481   2.283
11395WAT     H234428   9.609   5.384   2.167
11396WAT      O34429   2.552   7.167   3.534
11396WAT     H134430   2.458   7.152   3.504
11396WAT     H234431   2.559   7.146   3.631
11397WAT      O34432   8.132   6.209   9.262
11397WAT     H134433   8.109   6.301   9.295
11397WAT     H234434   8.097   6.198   9.168
11398WAT      O34435   2.593   4.149   1.575
11398WAT     H134436   2.582   4.195   1.662
11398WAT     H234437   2.662   4.076   1.584
11399WAT      O34438   6.034   5.740   1.490
11399WAT     H134439   5.989   5.653   1.471
11399WAT     H234440   6.115   5.724   1.548
11400WAT      O34441   5.573   6.107   6.291
11400WAT     H134442   5.616   6.021   6.265
11400WAT     H234443   5.541   6.154   6.208
11401WAT      O34444   2.791   2.824   2.570
11401WAT     H134445   2.768   2.756   2.500
11401WAT     H234446   2.815   2.910   2.526
11402WAT      O34447   2.109   0.615   9.386
11402WAT     H134448   2.128   0.615   9.288
11402WAT     H234449   2.119   0.523   9.423
11403WAT      O34450   1.539   7.320   0.721
11403WAT     H134451   1.578   7.234   0.753
11403WAT     H234452   1.604   7.366   0.660
11404WAT      O34453   7.529   5.466   1.643
11404WAT     H134454   7.598   5.525   1.685
11404WAT     H234455   7.443   5.473   1.695
11405WAT      O34456   7.986   9.118   0.157
11405WAT     H134457   8.075   9.127   0.112
11405WAT     H234458   7.969   9.021   0.176
11406WAT      O34459   0.103   1.691   7.648
11406WAT     H134460   0.129   1.760   7.580
11406WAT     H234461   0.044   1.733   7.718
11407WAT      O34462   2.786   7.990   0.381
11407WAT     H134463   2.728   7.928   0.433
11407WAT     H234464   2.744   8.081   0.378
11408WAT      O34465   6.496   8.611   4.030
11408WAT     H134466   6.506   8.578   4.124
11408WAT     H234467   6.505   8.535   3.966
11409WAT      O34468   2.319   7.836   9.334
11409WAT     H134469   2.383   7.859   9.407
11409WAT     H234470   2.285   7.920   9.292
11410WAT      O34471   3.136   8.867   4.770
11410WAT     H134472   3.178   8.783   4.806
11410WAT     H234473   3.140   8.867   4.671
11411WAT      O34474   4.206   2.040   4.313
11411WAT     H134475   4.229   1.979   4.237
11411WAT     H234476   4.230   1.995   4.400
11412WAT      O34477   9.014   8.172   3.133
11412WAT     H134478   9.070   8.089   3.124
11412WAT     H234479   9.073   8.252   3.135
11413WAT      O34480   6.949   2.937   5.422
11413WAT     H134481   6.913   3.012   5.478
11413WAT     H234482   7.038   2.909   5.458
11414WAT      O34483   5.349   8.543   4.233
11414WAT     H134484   5.311   8.502   4.315
11414WAT     H234485   5.396   8.473   4.179
11415WAT      O34486   6.541   9.775   0.189
11415WAT     H134487   6.446   9.761   0.162
11415WAT     H234488   6.579   9.853   0.139
11416WAT      O34489   0.214   7.178   0.398
11416WAT     H134490   0.221   7.268   0.443
11416WAT     H234491   0.118   7.160   0.376
11417WAT      O34492   2.675   1.740   0.100
11417WAT     H134493   2.748   1.730   0.033
11417WAT     H234494   2.714   1.748   0.191
11418WAT      O34495   3.112   6.512   7.141
11418WAT     H134496   3.115   6.504   7.042
11418WAT     H234497   3.194   6.558   7.174
11419WAT      O34498   6.469   8.825   2.103
11419WAT     H134499   6.564   8.810   2.076
11419WAT     H234500   6.444   8.920   2.086
11420WAT      O34501   3.091   8.574   9.222
11420WAT     H134502   3.072   8.642   9.151
11420WAT     H234503   3.151   8.504   9.185
11421WAT      O34504   2.303   1.730   5.857
11421WAT     H134505   2.248   1.813   5.853
11421WAT     H234506   2.275   1.674   5.935
11422WAT      O34507   2.613   6.895   8.052
11422WAT     H134508   2.665   6.913   8.136
11422WAT     H234509   2.520   6.931   8.062
11423WAT      O34510   9.493   4.853   9.006
11423WAT     H134511   9.477   4.903   9.091
11423WAT     H234512   9.528   4.915   8.936
11424WAT      O34513   4.385   0.169   1.741
11424WAT     H134514   4.467   0.207   1.698
11424WAT     H234515   4.398   0.167   1.840
11425WAT      O34516   8.324   6.607   7.546
11425WAT     H134517   8.255   6.535   7.556
11425WAT     H234518   8.332   6.633   7.450
11426WAT      O34519   3.248   7.407   0.591
11426WAT     H134520   3.219   7.374   0.502
11426WAT     H234521   3.342   7.441   0.586
11427WAT      O34522   4.474   7.078   4.145
11427WAT     H134523   4.383   7.060   4.108
11427WAT     H234524   4.537   7.006   4.116
11428WAT      O34525   6.144   8.003   0.678
11428WAT     H134526   6.061   8.059   0.683
11428WAT     H234527   6.121   7.907   0.689
11429WAT      O34528   9.589   4.585   5.514
11429WAT     H134529   9.639   4.649   5.455
11429WAT     H234530   9.632   4.495   5.510
11430WAT      O34531   2.411   4.328   8.257
11430WAT     H134532   2.363   4.241   8.244
11430WAT     H234533   2.419   4.346   8.355
11431WAT      O34534   7.328   4.035   2.937
11431WAT     H134535   7.297   4.011   3.029
11431WAT     H234536   7.256   4.015   2.871
11432WAT      O34537   8.494   6.012   4.882
11432WAT     H134538   8.525   5.981   4.792
11432WAT     H234539   8.480   5.933   4.942
11433WAT      O34540   3.819   1.419   0.722
11433WAT     H134541   3.818   1.320   0.739
11433WAT     H234542   3.880   1.438   0.645
11434WAT      O34543   5.734   8.987   2.591
11434WAT     H134544   5.832   8.973   2.574
11434WAT     H234545   5.721   9.073   2.640
11435WAT      O34546   9.690   3.112   9.582
11435WAT     H134547   9.741   3.172   9.521
11435WAT     H234548   9.637   3.168   9.646
11436WAT      O34549   0.325   2.578   1.220
11436WAT     H134550   0.273   2.644   1.274
11436WAT     H234551   0.263   2.512   1.178
11437WAT      O34552   0.489   1.702   0.542
11437WAT     H134553   0.500   1.655   0.454
11437WAT     H234554   0.572   1.691   0.596
11438WAT      O34555   8.751   9.330   6.922
11438WAT     H134556   8.762   9.327   6.822
11438WAT     H234557   8.702   9.248   6.952
11439WAT      O34558   9.592   0.436   9.586
11439WAT     H134559   9.617   0.490   9.506
11439WAT     H234560   9.671   0.426   9.646
11440WAT      O34561   5.427   6.242   2.404
11440WAT     H134562   5.349   6.194   2.364
11440WAT     H234563   5.499   6.176   2.426
11441WAT      O34564   8.871   0.667   1.995
11441WAT     H134565   8.891   0.752   2.044
11441WAT     H234566   8.883   0.590   2.057
11442WAT      O34567   9.889   1.221   9.083
11442WAT     H134568   9.823   1.146   9.090
11442WAT     H234569   9.955   1.216   9.157
11443WAT      O34570   3.703   4.839   2.106
11443WAT     H134571   3.635   4.911   2.111
11443WAT     H234572   3.786   4.868   2.153
11444WAT      O34573   2.490   4.939   1.530
11444WAT     H134574   2.417   5.005   1.548
11444WAT     H234575   2.506   4.884   1.611
11445WAT      O34576   0.302   4.292   8.313
11445WAT     H134577   0.216   4.253   8.278
11445WAT     H234578   0.323   4.252   8.402
11446WAT      O34579   4.442   4.637   0.995
11446WAT     H134580   4.482   4.596   0.913
11446WAT     H234581   4.361   4.585   1.022
11447WAT      O34582   6.140   6.012   2.785
11447WAT     H134583   6.222   6.014   2.842
11447WAT     H234584   6.152   6.074   2.708
11448WAT      O34585   7.753   8.554   5.528
11448WAT     H134586   7.797   8.501   5.456
11448WAT     H234587   7.815   8.563   5.606
11449WAT      O34588   4.078   3.659   3.456
11449WAT     H134589   4.046   3.680   3.364
11449WAT     H234590   4.174   3.629   3.452
11450WAT      O34591   2.120   5.340   1.961
11450WAT     H134592   2.167   5.375   2.042
11450WAT     H234593   2.126   5.408   1.887
11451WAT      O34594   3.718   7.625   0.716
11451WAT     H134595   3.732   7.531   0.685
11451WAT     H234596   3.715   7.628   0.816
11452WAT      O34597   2.963   3.477   2.856
11452WAT     H134598   2.871   3.451   2.829
11452WAT     H234599   2.994   3.554   2.800
11453WAT      O34600   3.931   0.426   7.509
11453WAT     H134601   3.988   0.456   7.586
11453WAT     H234602   3.841   0.400   7.543
11454WAT      O34603   3.438   6.762   9.129
11454WAT     H134604   3.390   6.751   9.215
11454WAT     H234605   3.535   6.744   9.142
11455WAT      O34606   0.739   2.914   0.999
11455WAT     H134607   0.798   2.867   1.065
11455WAT     H234608   0.708   2.849   0.929
11456WAT      O34609   5.085   3.237   4.802
11456WAT     H134610   5.174   3.281   4.798
11456WAT     H234611   5.080   3.163   4.735
11457WAT      O34612   6.114   4.089   6.498
11457WAT     H134613   6.125   4.003   6.547
11457WAT     H234614   6.179   4.156   6.532
11458WAT      O34615   0.829   0.123   0.164
11458WAT     H134616   0.760   0.169   0.220
11458WAT     H234617   0.784   0.061   0.099
11459WAT      O34618   6.211   9.593   6.211
11459WAT     H134619   6.255   9.503   6.208
11459WAT     H234620   6.163   9.609   6.125
11460WAT      O34621   3.168   3.163   1.349
11460WAT     H134622   3.092   3.220   1.318
11460WAT     H234623   3.138   3.107   1.427
11461WAT      O34624   0.719   6.773   4.878
11461WAT     H134625   0.783   6.796   4.804
11461WAT     H234626   0.717   6.674   4.890
11462WAT      O34627   3.107   4.408   6.032
11462WAT     H134628   3.099   4.355   5.947
11462WAT     H234629   3.071   4.500   6.017
11463WAT      O34630   4.965   5.763   2.032
11463WAT     H134631   4.875   5.807   2.040
11463WAT     H234632   4.957   5.684   1.970
11464WAT      O34633   5.151   5.984   5.764
11464WAT     H134634   5.196   6.073   5.771
11464WAT     H234635   5.052   5.997   5.763
11465WAT      O34636   6.672   2.243   7.485
11465WAT     H134637   6.682   2.241   7.386
11465WAT     H234638   6.681   2.338   7.517
11466WAT      O34639   8.902   9.800   4.483
11466WAT     H134640   8.813   9.820   4.442
11466WAT     H234641   8.971   9.859   4.442
11467WAT      O34642   7.717   7.346   1.921
11467WAT     H134643   7.793   7.326   1.859
11467WAT     H234644   7.740   7.425   1.978
11468WAT      O34645   0.620   7.197   7.148
11468WAT     H134646   0.645   7.159   7.237
11468WAT     H234647   0.665   7.146   7.076
11469WAT      O34648   1.109   9.190   3.999
11469WAT     H134649   1.048   9.193   3.919
11469WAT     H234650   1.124   9.283   4.033
11470WAT      O34651   7.905   2.200   4.696
11470WAT     H134652   7.959   2.251   4.630
11470WAT     H234653   7.871   2.262   4.767
11471WAT      O34654   5.886   3.825   0.606
11471WAT     H134655   5.845   3.859   0.690
11471WAT     H234656   5.938   3.898   0.562
11472WAT      O34657   8.587   9.429   0.438
11472WAT     H134658   8.538   9.442   0.352
11472WAT     H234659   8.679   9.397   0.419
11473WAT      O34660   4.249   7.720   2.827
11473WAT     H134661   4.180   7.649   2.838
11473WAT     H234662   4.206   7.807   2.802
11474WAT      O34663   4.351   8.271   3.162
11474WAT     H134664   4.294   8.192   3.140
11474WAT     H234665   4.367   8.274   3.260
11475WAT      O34666   5.359   0.584   9.305
11475WAT     H134667   5.372   0.588   9.404
11475WAT     H234668   5.374   0.491   9.273
11476WAT      O34669   3.027   7.625   8.194
11476WAT     H134670   3.013   7.579   8.106
11476WAT     H234671   3.125   7.632   8.213
11477WAT      O34672   2.503   5.160   9.287
11477WAT     H134673   2.575   5.122   9.344
11477WAT     H234674   2.537   5.172   9.193
11478WAT      O34675   9.215   0.286   7.881
11478WAT     H134676   9.223   0.383   7.903
11478WAT     H234677   9.118   0.260   7.877
11479WAT      O34678   9.880   8.999   1.279
11479WAT     H134679   9.919   8.928   1.221
11479WAT     H234680   9.949   9.068   1.299
11480WAT      O34681   9.240   2.046   0.086
11480WAT     H134682   9.259   2.117   0.018
11480WAT     H234683   9.324   2.024   0.136
11481WAT      O34684   2.987   1.672   0.216
11481WAT     H134685   3.073   1.720   0.234
11481WAT     H234686   2.916   1.707   0.276
11482WAT      O34687   4.810   5.357   8.448
11482WAT     H134688   4.777   5.288   8.512
11482WAT     H234689   4.857   5.312   8.372
11483WAT      O34690   9.650   8.264   6.527
11483WAT     H134691   9.630   8.246   6.623
11483WAT     H234692   9.615   8.353   6.501
11484WAT      O34693   4.590   4.149   9.128
11484WAT     H134694   4.498   4.137   9.089
11484WAT     H234695   4.588   4.221   9.198
11485WAT      O34696   8.519   5.401   7.040
11485WAT     H134697   8.559   5.489   7.064
11485WAT     H234698   8.588   5.329   7.050
11486WAT      O34699   7.460   6.855   6.167
11486WAT     H134700   7.510   6.768   6.169
11486WAT     H234701   7.395   6.857   6.242
11487WAT      O34702   8.407   3.532   3.419
11487WAT     H134703   8.417   3.449   3.364
11487WAT     H234704   8.490   3.547   3.472
11488WAT      O34705   4.339   4.827   6.109
11488WAT     H134706   4.425   4.864   6.075
11488WAT     H234707   4.280   4.805   6.032
11489WAT      O34708   2.211   7.965   3.820
11489WAT     H134709   2.213   8.042   3.757
11489WAT     H234710   2.280   7.979   3.892
11490WAT      O34711   0.244   1.143   5.730
11490WAT     H134712   0.212   1.106   5.642
11490WAT     H234713   0.327   1.196   5.715
11491WAT      O34714   1.651   0.497   4.815
11491WAT     H134715   1.562   0.525   4.850
11491WAT     H234716   1.649   0.501   4.715
11492WAT      O34717   0.979   7.502   5.296
11492WAT     H134718   1.030   7.423   5.261
11492WAT     H234719   0.986   7.505   5.396
11493WAT      O34720   3.448   2.272   0.174
11493WAT     H134721   3.505   2.252   0.255
11493WAT     H234722   3.471   2.362   0.138
11494WAT      O34723   8.786   5.192   5.896
11494WAT     H134724   8.805   5.220   5.802
11494WAT     H234725   8.763   5.273   5.951
11495WAT      O34726   0.778   0.022   2.771
11495WAT     H134727   0.752  -0.062   2.723
11495WAT     H234728   0.722   0.031   2.853
11496WAT      O34729   8.382   0.880   1.445
11496WAT     H134730   8.422   0.934   1.371
11496WAT     H234731   8.322   0.939   1.500
11497WAT      O34732   5.330   1.449   4.645
11497WAT     H134733   5.251   1.418   4.699
11497WAT     H234734   5.347   1.546   4.662
11498WAT      O34735   5.730   1.162   7.525
11498WAT     H134736   5.716   1.068   7.556
11498WAT     H234737   5.756   1.162   7.429
11499WAT      O34738   7.710   9.328   5.648
11499WAT     H134739   7.699   9.353   5.744
11499WAT     H234740   7.706   9.229   5.639
11500WAT      O34741   1.082   7.199   5.597
11500WAT     H134742   1.107   7.120   5.652
11500WAT     H234743   1.068   7.278   5.656
11501WAT      O34744   8.417   1.791   6.196
11501WAT     H134745   8.447   1.776   6.102
11501WAT     H234746   8.482   1.852   6.242
11502WAT      O34747   5.615   0.221   9.472
11502WAT     H134748   5.614   0.128   9.509
11502WAT     H234749   5.677   0.225   9.393
11503WAT      O34750   3.024   2.424   9.286
11503WAT     H134751   3.054   2.519   9.273
11503WAT     H234752   3.091   2.362   9.246
11504WAT      O34753   9.713   4.291   0.413
11504WAT     H134754   9.745   4.250   0.498
11504WAT     H234755   9.721   4.225   0.339
11505WAT      O34756   1.454   3.000   2.720
11505WAT     H134757   1.409   2.981   2.807
11505WAT     H234758   1.462   2.914   2.668
11506WAT      O34759   1.838   5.057   2.746
11506WAT     H134760   1.761   5.064   2.809
11506WAT     H234761   1.877   5.148   2.731
11507WAT      O34762   8.883   7.243   7.728
11507WAT     H134763   8.805   7.185   7.703
11507WAT     H234764   8.964   7.214   7.676
11508WAT      O34765   1.371   1.509   5.090
11508WAT     H134766   1.469   1.502   5.073
11508WAT     H234767   1.323   1.529   5.005
11509WAT      O34768   3.906   3.049   1.955
11509WAT     H134769   3.829   3.019   1.899
11509WAT     H234770   3.964   2.970   1.976
11510WAT      O34771   4.797   1.875   7.509
11510WAT     H134772   4.712   1.909   7.547
11510WAT     H234773   4.793   1.878   7.409
11511WAT      O34774   7.501   4.617   3.162
11511WAT     H134775   7.473   4.583   3.252
11511WAT     H234776   7.478   4.715   3.155
11512WAT      O34777   8.390   7.287   2.712
11512WAT     H134778   8.299   7.258   2.741
11512WAT     H234779   8.455   7.213   2.730
11513WAT      O34780   0.938   2.079   8.778
11513WAT     H134781   0.960   1.983   8.763
11513WAT     H234782   0.974   2.108   8.867
11514WAT      O34783   7.148   6.192   2.241
11514WAT     H134784   7.239   6.163   2.214
11514WAT     H234785   7.151   6.232   2.333
11515WAT      O34786   6.686   0.015   4.308
11515WAT     H134787   6.752   0.052   4.243
11515WAT     H234788   6.704  -0.082   4.323
11516WAT      O34789   8.115   1.757   5.834
11516WAT     H134790   8.109   1.786   5.929
11516WAT     H234791   8.024   1.733   5.800
11517WAT      O34792   4.519   8.886   2.202
11517WAT     H134793   4.618   8.889   2.192
11517WAT     H234794   4.480   8.824   2.133
11518WAT      O34795   6.413   5.570   2.637
11518WAT     H134796   6.327   5.532   2.671
11518WAT     H234797   6.428   5.660   2.678
11519WAT      O34798   5.995   8.881   5.722
11519WAT     H134799   5.934   8.911   5.796
11519WAT     H234800   5.967   8.924   5.636
11520WAT      O34801   1.430   9.047   0.895
11520WAT     H134802   1.516   9.096   0.904
11520WAT     H234803   1.383   9.076   0.811
11521WAT      O34804   5.289   7.444   8.064
11521WAT     H134805   5.381   7.423   8.030
11521WAT     H234806   5.292   7.528   8.118
11522WAT      O34807   4.212   9.191   4.294
11522WAT     H134808   4.231   9.140   4.211
11522WAT     H234809   4.254   9.145   4.372
11523WAT      O34810   6.501   8.623   0.727
11523WAT     H134811   6.450   8.570   0.794
11523WAT     H234812   6.498   8.576   0.638
11524WAT      O34813   8.012   0.824   4.248
11524WAT     H134814   8.035   0.827   4.151
11524WAT     H234815   7.913   0.821   4.259
11525WAT      O34816   3.635   5.843   2.643
11525WAT     H134817   3.677   5.848   2.733
11525WAT     H234818   3.628   5.748   2.614
11526WAT      O34819   0.952   0.537   9.655
11526WAT     H134820   0.911   0.549   9.565
11526WAT     H234821   1.008   0.617   9.677
11527WAT      O34822   0.813   5.471   4.595
11527WAT     H134823   0.772   5.381   4.580
11527WAT     H234824   0.814   5.491   4.693
11528WAT      O34825   6.785   6.194   5.069
11528WAT     H134826   6.796   6.218   5.166
11528WAT     H234827   6.803   6.275   5.013
11529WAT      O34828   3.910   0.869   7.424
11529WAT     H134829   3.893   0.965   7.445
11529WAT     H234830   3.887   0.851   7.329
11530WAT      O34831   7.464   7.430   5.605
11530WAT     H134832   7.442   7.518   5.647
11530WAT     H234833   7.441   7.433   5.508
11531WAT      O34834   5.381   8.685   8.504
11531WAT     H134835   5.423   8.596   8.521
11531WAT     H234836   5.353   8.726   8.590
11532WAT      O34837   8.543   4.172   2.377
11532WAT     H134838   8.624   4.115   2.362
11532WAT     H234839   8.500   4.192   2.289
11533WAT      O34840   9.846   6.068   7.918
11533WAT     H134841   9.921   6.133   7.933
11533WAT     H234842   9.796   6.093   7.835
11534WAT      O34843   0.018   3.072   3.385
11534WAT     H134844   0.036   2.975   3.399
11534WAT     H234845  -0.041   3.084   3.305
11535WAT      O34846   4.873   8.012   6.202
11535WAT     H134847   4.775   7.996   6.218
11535WAT     H234848   4.889   8.025   6.104
11536WAT      O34849   5.337   0.773   1.671
11536WAT     H134850   5.332   0.818   1.760
11536WAT     H234851   5.387   0.831   1.607
11537WAT      O34852   6.923   4.916   2.268
11537WAT     H134853   6.823   4.921   2.263
11537WAT     H234854   6.950   4.872   2.353
11538WAT      O34855   3.891   0.895   5.057
11538WAT     H134856   3.966   0.895   5.124
11538WAT     H234857   3.819   0.833   5.087
11539WAT      O34858   5.324   4.160   0.638
11539WAT     H134859   5.254   4.229   0.618
11539WAT     H234860   5.415   4.200   0.627
11540WAT      O34861   0.550   9.748   9.534
11540WAT     H134862   0.639   9.725   9.572
11540WAT     H234863   0.525   9.680   9.465
11541WAT      O34864   8.949   3.477   2.835
11541WAT     H134865   8.994   3.415   2.770
11541WAT     H234866   8.899   3.547   2.785
11542WAT      O34867   8.914   2.705   6.309
11542WAT     H134868   8.941   2.667   6.398
11542WAT     H234869   8.841   2.772   6.322
11543WAT      O34870   2.739   0.285   6.061
11543WAT     H134871   2.780   0.274   6.151
11543WAT     H234872   2.755   0.379   6.029
11544WAT      O34873   4.225   5.837   3.907
11544WAT     H134874   4.283   5.759   3.883
11544WAT     H234875   4.280   5.904   3.957
11545WAT      O34876   8.393   7.119   2.498
11545WAT     H134877   8.361   7.039   2.549
11545WAT     H234878   8.398   7.198   2.559
11546WAT      O34879   1.795   4.390   4.119
11546WAT     H134880   1.738   4.308   4.130
11546WAT     H234881   1.823   4.424   4.208
11547WAT      O34882   9.748   9.687   5.655
11547WAT     H134883   9.805   9.739   5.593
11547WAT     H234884   9.766   9.589   5.644
11548WAT      O34885   3.831   8.671   1.395
11548WAT     H134886   3.927   8.659   1.371
11548WAT     H234887   3.819   8.755   1.447
11549WAT      O34888   1.816   5.992   9.377
11549WAT     H134889   1.732   5.937   9.376
11549WAT     H234890   1.839   6.016   9.471
11550WAT      O34891   2.608   7.187   2.653
11550WAT     H134892   2.529   7.243   2.678
11550WAT     H234893   2.577   7.095   2.628
11551WAT      O34894   8.507   4.432   5.920
11551WAT     H134895   8.464   4.345   5.897
11551WAT     H234896   8.519   4.487   5.837
11552WAT      O34897   7.430   7.855   4.805
11552WAT     H134898   7.378   7.940   4.811
11552WAT     H234899   7.437   7.813   4.896
11553WAT      O34900   1.467   4.330   3.394
11553WAT     H134901   1.486   4.423   3.424
11553WAT     H234902   1.489   4.321   3.296
11554WAT      O34903   8.092   6.461   4.555
11554WAT     H134904   8.027   6.456   4.631
11554WAT     H234905   8.177   6.502   4.587
11555WAT      O34906   7.821   9.629   7.385
11555WAT     H134907   7.796   9.654   7.479
11555WAT     H234908   7.857   9.709   7.338
11556WAT      O34909   6.296   1.847   6.707
11556WAT     H134910   6.308   1.858   6.608
11556WAT     H234911   6.205   1.881   6.733
11557WAT      O34912   1.696   3.289   6.692
11557WAT     H134913   1.674   3.311   6.787
11557WAT     H234914   1.727   3.372   6.645
11558WAT      O34915   0.814   8.314   7.890
11558WAT     H134916   0.810   8.333   7.988
11558WAT     H234917   0.848   8.394   7.841
11559WAT      O34918   0.126   6.739   5.312
11559WAT     H134919   0.099   6.652   5.353
11559WAT     H234920   0.174   6.794   5.381
11560WAT      O34921   5.717   1.887   0.522
11560WAT     H134922   5.702   1.919   0.616
11560WAT     H234923   5.783   1.812   0.522
11561WAT      O34924   2.695   4.923   2.049
11561WAT     H134925   2.634   4.973   1.987
11561WAT     H234926   2.775   4.890   1.998
11562WAT      O34927   8.240   9.802   7.110
11562WAT     H134928   8.279   9.761   7.027
11562WAT     H234929   8.141   9.813   7.098
11563WAT      O34930   0.019   1.260   3.915
11563WAT     H134931   0.062   1.252   4.005
11563WAT     H234932   0.075   1.211   3.847
11564WAT      O34933   0.014   1.843   8.784
11564WAT     H134934   0.098   1.896   8.772
11564WAT     H234935  -0.025   1.820   8.695
11565WAT      O34936   4.233   0.514   1.460
11565WAT     H134937   4.204   0.435   1.514
11565WAT     H234938   4.229   0.596   1.517
11566WAT      O34939   2.744   7.569   3.843
11566WAT     H134940   2.649   7.538   3.853
11566WAT     H234941   2.806   7.494   3.863
11567WAT      O34942   4.235   2.604   8.027
11567WAT     H134943   4.204   2.651   7.945
11567WAT     H234944   4.333   2.583   8.019
11568WAT      O34945   9.614   8.860   1.066
11568WAT     H134946   9.683   8.897   1.128
11568WAT     H234947   9.529   8.911   1.076
11569WAT      O34948   3.606   7.815   4.813
11569WAT     H134949   3.550   7.873   4.753
11569WAT     H234950   3.566   7.815   4.905
11570WAT      O34951   7.099   0.927   3.824
11570WAT     H134952   7.012   0.891   3.790
11570WAT     H234953   7.165   0.852   3.833
11571WAT      O34954   0.699   1.631   2.529
11571WAT     H134955   0.667   1.623   2.434
11571WAT     H234956   0.634   1.686   2.581
11572WAT      O34957   5.754   3.379   6.687
11572WAT     H134958   5.797   3.435   6.616
11572WAT     H234959   5.762   3.282   6.664
11573WAT      O34960   7.011   6.299   2.762
11573WAT     H134961   7.080   6.372   2.764
11573WAT     H234962   7.022   6.241   2.842
11574WAT      O34963   0.395   6.592   9.404
11574WAT     H134964   0.409   6.680   9.448
11574WAT     H234965   0.376   6.522   9.473
11575WAT      O34966   7.751   8.439   5.001
11575WAT     H134967   7.713   8.361   4.952
11575WAT     H234968   7.822   8.409   5.064
11576WAT      O34969   2.818   2.055   4.808
11576WAT     H134970   2.856   2.123   4.872
11576WAT     H234971   2.740   2.095   4.761
11577WAT      O34972   0.072   4.655   0.173
11577WAT     H134973   0.161   4.700   0.183
11577WAT     H234974   0.049   4.607   0.258
11578WAT      O34975   1.367   1.124   7.268
11578WAT     H134976   1.418   1.053   7.318
11578WAT     H234977   1.350   1.093   7.175
11579WAT      O34978   6.683   8.573   3.497
11579WAT     H134979   6.686   8.562   3.398
11579WAT     H234980   6.742   8.505   3.540
11580WAT      O34981   9.122   6.707   5.293
11580WAT     H134982   9.075   6.693   5.380
11580WAT     H234983   9.217   6.734   5.310
11581WAT      O34984   9.864   0.726   0.539
11581WAT     H134985   9.958   0.694   0.541
11581WAT     H234986   9.859   0.811   0.487
11582WAT      O34987   4.238   7.238   5.830
11582WAT     H134988   4.336   7.233   5.847
11582WAT     H234989   4.190   7.178   5.894
11583WAT      O34990   0.212   9.656   9.125
11583WAT     H134991   0.255   9.736   9.083
11583WAT     H234992   0.225   9.659   9.224
11584WAT      O34993   7.487   3.654   1.910
11584WAT     H134994   7.455   3.737   1.956
11584WAT     H234995   7.586   3.657   1.900
11585WAT      O34996   8.333   0.225   2.048
11585WAT     H134997   8.400   0.297   2.061
11585WAT     H234998   8.253   0.262   2.001
11586WAT      O34999   1.779   3.911   2.475
11586WAT     H135000   1.687   3.898   2.438
11586WAT     H235001   1.778   3.897   2.574
11587WAT      O35002   0.169   4.052   2.369
11587WAT     H135003   0.241   4.109   2.330
11587WAT     H235004   0.097   4.111   2.408
11588WAT      O35005   1.038   9.206   0.863
11588WAT     H135006   0.942   9.217   0.886
11588WAT     H235007   1.070   9.286   0.812
11589WAT      O35008   6.259   8.548   3.772
11589WAT     H135009   6.284   8.644   3.760
11589WAT     H235010   6.338   8.497   3.805
11590WAT      O35011   3.901   1.758   3.520
11590WAT     H135012   3.849   1.676   3.545
11590WAT     H235013   3.908   1.818   3.600
11591WAT      O35014   2.645   0.381   5.577
11591WAT     H135015   2.739   0.349   5.574
11591WAT     H235016   2.623   0.411   5.670
11592WAT      O35017   3.587   0.210   8.045
11592WAT     H135018   3.611   0.150   7.968
11592WAT     H235019   3.670   0.240   8.092
11593WAT      O35020   4.819   1.742   5.604
11593WAT     H135021   4.745   1.738   5.671
11593WAT     H235022   4.900   1.695   5.640
11594WAT      O35023   4.274   3.927   9.243
11594WAT     H135024   4.190   3.893   9.286
11594WAT     H235025   4.353   3.884   9.286
11595WAT      O35026   4.852   1.856   8.618
11595WAT     H135027   4.903   1.940   8.635
11595WAT     H235028   4.764   1.879   8.576
11596WAT      O35029   4.226   1.929   2.479
11596WAT     H135030   4.169   2.011   2.484
11596WAT     H235031   4.282   1.922   2.561
11597WAT      O35032   3.895   3.488   6.560
11597WAT     H135033   3.820   3.421   6.561
11597WAT     H235034   3.869   3.567   6.616
11598WAT      O35035   0.549   4.334   3.350
11598WAT     H135036   0.644   4.340   3.321
11598WAT     H235037   0.505   4.257   3.305
11599WAT      O35038   2.634   4.032   9.038
11599WAT     H135039   2.715   4.067   9.086
11599WAT     H235040   2.638   4.059   8.942
11600WAT      O35041   2.028   3.611   6.109
11600WAT     H135042   1.929   3.601   6.109
11600WAT     H235043   2.059   3.638   6.018
11601WAT      O35044   8.577   0.575   5.107
11601WAT     H135045   8.600   0.513   5.032
11601WAT     H235046   8.635   0.656   5.102
11602WAT      O35047   6.025   8.442   7.368
11602WAT     H135048   6.105   8.427   7.310
11602WAT     H235049   5.945   8.397   7.328
11603WAT      O35050   7.793   7.598   5.875
11603WAT     H135051   7.790   7.544   5.791
11603WAT     H235052   7.802   7.537   5.953
11604WAT      O35053   4.785   8.107   1.070
11604WAT     H135054   4.766   8.120   1.167
11604WAT     H235055   4.774   8.011   1.046
11605WAT      O35056   8.254   0.636   4.097
11605WAT     H135057   8.338   0.598   4.060
11605WAT     H235058   8.272   0.726   4.136
11606WAT      O35059   2.519   2.884   2.690
11606WAT     H135060   2.612   2.873   2.653
11606WAT     H235061   2.472   2.957   2.640
11607WAT      O35062   7.065   7.192   0.658
11607WAT     H135063   6.966   7.210   0.660
11607WAT     H235064   7.099   7.186   0.752
11608WAT      O35065   6.679   0.732   5.867
11608WAT     H135066   6.729   0.715   5.952
11608WAT     H235067   6.742   0.727   5.789
11609WAT      O35068   0.560   0.069   5.999
11609WAT     H135069   0.540   0.167   6.011
11609WAT     H235070   0.502   0.032   5.926
11610WAT      O35071   8.609   8.327   3.519
11610WAT     H135072   8.686   8.266   3.539
11610WAT     H235073   8.602   8.397   3.590
11611WAT      O35074   3.182   3.170   3.223
11611WAT     H135075   3.226   3.133   3.304
11611WAT     H235076   3.123   3.100   3.182
11612WAT      O35077   3.442   9.419   2.087
11612WAT     H135078   3.373   9.393   2.019
11612WAT     H235079   3.402   9.412   2.179
11613WAT      O35080   7.999   2.122   1.591
11613WAT     H135081   8.061   2.110   1.513
11613WAT     H235082   7.931   2.192   1.569
11614WAT      O35083   4.720   7.897   3.222
11614WAT     H135084   4.710   7.950   3.306
11614WAT     H235085   4.643   7.918   3.161
11615WAT      O35086   6.016   0.033   6.138
11615WAT     H135087   6.003  -0.001   6.231
11615WAT     H235088   5.930   0.072   6.105
11616WAT      O35089   8.040   8.341   9.459
11616WAT     H135090   8.132   8.308   9.437
11616WAT     H235091   8.014   8.415   9.397
11617WAT      O35092   8.430   7.608   0.223
11617WAT     H135093   8.376   7.565   0.297
11617WAT     H235094   8.442   7.543   0.149
11618WAT      O35095   7.843   0.901   2.733
11618WAT     H135096   7.912   0.874   2.665
11618WAT     H235097   7.889   0.927   2.818
11619WAT      O35098   1.994   2.648   5.922
11619WAT     H135099   2.042   2.734   5.903
11619WAT     H235100   1.970   2.643   6.018
11620WAT      O35101   0.733   9.489   5.324
11620WAT     H135102   0.751   9.453   5.232
11620WAT     H235103   0.813   9.473   5.382
11621WAT      O35104   5.554   7.340   1.655
11621WAT     H135105   5.458   7.366   1.654
11621WAT     H235106   5.595   7.358   1.565
11622WAT      O35107   4.913   9.182   1.802
11622WAT     H135108   4.832   9.224   1.761
11622WAT     H235109   4.900   9.083   1.807
11623WAT      O35110   3.515   9.413   5.186
11623WAT     H135111   3.484   9.497   5.230
11623WAT     H235112   3.440   9.374   5.132
11624WAT      O35113   9.329   4.763   4.968
11624WAT     H135114   9.371   4.733   4.882
11624WAT     H235115   9.306   4.860   4.962
11625WAT      O35116   5.400   9.183   4.439
11625WAT     H135117   5.346   9.264   4.417
11625WAT     H235118   5.483   9.181   4.383
11626WAT      O35119   0.633   2.486   0.264
11626WAT     H135120   0.700   2.509   0.193
11626WAT     H235121   0.549   2.454   0.220
11627WAT      O35122   6.109   5.191   8.642
11627WAT     H135123   6.152   5.188   8.732
11627WAT     H235124   6.019   5.233   8.649
11628WAT      O35125   6.021   7.656   0.797
11628WAT     H135126   5.960   7.579   0.817
11628WAT     H235127   5.978   7.741   0.827
11629WAT      O35128   3.871   0.521   8.430
11629WAT     H135129   3.938   0.489   8.363
11629WAT     H235130   3.781   0.485   8.406
11630WAT      O35131   4.837   1.089   8.381
11630WAT     H135132   4.907   1.039   8.329
11630WAT     H235133   4.815   1.174   8.333
11631WAT      O35134   3.248   1.254   6.656
11631WAT     H135135   3.232   1.345   6.693
11631WAT     H235136   3.195   1.187   6.708
11632WAT      O35137   6.951   9.713   3.110
11632WAT     H135138   6.988   9.643   3.049
11632WAT     H235139   6.890   9.774   3.058
11633WAT      O35140   8.889   5.262   8.081
11633WAT     H135141   8.796   5.233   8.102
11633WAT     H235142   8.893   5.295   7.986
11634WAT      O35143   6.983   4.160   9.144
11634WAT     H135144   6.936   4.097   9.082
11634WAT     H235145   6.935   4.247   9.147
11635WAT      O35146   1.428   2.949   1.795
11635WAT     H135147   1.340   2.992   1.813
11635WAT     H235148   1.457   2.970   1.702
11636WAT      O35149   0.235   8.840   0.535
11636WAT     H135150   0.274   8.748   0.539
11636WAT     H235151   0.213   8.871   0.627
11637WAT      O35152   3.098   5.227   3.493
11637WAT     H135153   3.144   5.173   3.563
11637WAT     H235154   3.164   5.286   3.446
11638WAT      O35155   9.589   9.816   8.808
11638WAT     H135156   9.527   9.759   8.863
11638WAT     H235157   9.536   9.874   8.747
11639WAT      O35158   4.136   6.141   7.890
11639WAT     H135159   4.075   6.179   7.820
11639WAT     H235160   4.098   6.161   7.980
11640WAT      O35161   2.337   0.255   7.917
11640WAT     H135162   2.242   0.281   7.931
11640WAT     H235163   2.342   0.175   7.856
11641WAT      O35164   9.265   2.274   6.667
11641WAT     H135165   9.169   2.252   6.688
11641WAT     H235166   9.275   2.286   6.569
11642WAT      O35167   8.876   9.291   5.280
11642WAT     H135168   8.819   9.211   5.263
11642WAT     H235169   8.971   9.262   5.294
11643WAT      O35170   5.242   5.513   2.025
11643WAT     H135171   5.195   5.540   1.941
11643WAT     H235172   5.188   5.541   2.105
11644WAT      O35173   9.603   7.708   3.052
11644WAT     H135174   9.657   7.751   3.125
11644WAT     H235175   9.616   7.609   3.055
11645WAT      O35176   6.105   8.487   0.247
11645WAT     H135177   6.116   8.586   0.248
11645WAT     H235178   6.184   8.444   0.290
11646WAT      O35179   0.309   2.416   8.931
11646WAT     H135180   0.269   2.418   9.023
11646WAT     H235181   0.368   2.335   8.923
11647WAT      O35182   7.135   0.827   9.048
11647WAT     H135183   7.071   0.760   9.011
11647WAT     H235184   7.214   0.779   9.086
11648WAT      O35185   7.888   8.533   2.898
11648WAT     H135186   7.963   8.497   2.954
11648WAT     H235187   7.912   8.626   2.867
11649WAT      O35188   9.865   4.860   2.570
11649WAT     H135189   9.881   4.937   2.510
11649WAT     H235190   9.878   4.889   2.665
11650WAT      O35191   1.511   1.107   8.020
11650WAT     H135192   1.505   1.071   8.113
11650WAT     H235193   1.606   1.111   7.992
11651WAT      O35194   7.446   9.105   4.355
11651WAT     H135195   7.511   9.097   4.279
11651WAT     H235196   7.410   9.014   4.377
11652WAT      O35197   4.798   7.848   1.840
11652WAT     H135198   4.884   7.798   1.852
11652WAT     H235199   4.808   7.941   1.874
11653WAT      O35200   9.369   4.464   2.998
11653WAT     H135201   9.320   4.377   2.989
11653WAT     H235202   9.428   4.461   3.079
11654WAT      O35203   0.498   4.387   2.474
11654WAT     H135204   0.415   4.360   2.522
11654WAT     H235205   0.540   4.465   2.519
11655WAT      O35206   0.476   7.387   6.945
11655WAT     H135207   0.408   7.416   7.011
11655WAT     H235208   0.518   7.302   6.975
11656WAT      O35209   3.611   9.614   2.054
11656WAT     H135210   3.549   9.536   2.052
11656WAT     H235211   3.587   9.675   2.129
11657WAT      O35212   6.587   6.500   7.787
11657WAT     H135213   6.681   6.486   7.818
11657WAT     H235214   6.579   6.469   7.692
11658WAT      O35215   3.905   2.843   3.737
11658WAT     H135216   3.873   2.839   3.642
11658WAT     H235217   3.907   2.750   3.775
11659WAT      O35218   6.614   4.877   8.255
11659WAT     H135219   6.698   4.857   8.205
11659WAT     H235220   6.626   4.961   8.308
11660WAT      O35221   3.442   0.537   4.001
11660WAT     H135222   3.525   0.526   4.055
11660WAT     H235223   3.362   0.515   4.057
11661WAT      O35224   8.469   1.255   9.235
11661WAT     H135225   8.501   1.326   9.298
11661WAT     H235226   8.476   1.166   9.279
11662WAT      O35227   6.615   4.740   6.712
11662WAT     H135228   6.539   4.743   6.647
11662WAT     H235229   6.697   4.776   6.669
11663WAT      O35230   9.785   6.470   6.732
11663WAT     H135231   9.795   6.387   6.788
11663WAT     H235232   9.739   6.447   6.646
11664WAT      O35233   0.911   8.507   5.274
11664WAT     H135234   0.962   8.428   5.239
11664WAT     H235235   0.886   8.567   5.198
11665WAT      O35236   7.220   2.504   3.495
11665WAT     H135237   7.319   2.518   3.498
11665WAT     H235238   7.175   2.571   3.555
11666WAT      O35239   2.625   8.922   2.689
11666WAT     H135240   2.720   8.913   2.716
11666WAT     H235241   2.606   9.017   2.662
11667WAT      O35242   2.907   6.549   9.740
11667WAT     H135243   2.982   6.507   9.791
11667WAT     H235244   2.925   6.540   9.642
11668WAT      O35245   9.672   6.471   5.428
11668WAT     H135246   9.634   6.445   5.339
11668WAT     H235247   9.615   6.542   5.469
11669WAT      O35248   4.747   6.946   5.146
11669WAT     H135249   4.705   7.029   5.182
11669WAT     H235250   4.685   6.902   5.081
11670WAT      O35251   5.157   6.121   4.592
11670WAT     H135252   5.123   6.215   4.592
11670WAT     H235253   5.234   6.114   4.528
11671WAT      O35254   2.643   0.080   7.850
11671WAT     H135255   2.693   0.121   7.773
11671WAT     H235256   2.561   0.033   7.815
11672WAT      O35257   4.563   9.638   5.862
11672WAT     H135258   4.620   9.718   5.881
11672WAT     H235259   4.484   9.639   5.923
11673WAT      O35260   3.164   1.502   9.004
11673WAT     H135261   3.068   1.478   8.988
11673WAT     H235262   3.168   1.574   9.073
11674WAT      O35263   6.390   5.629   7.504
11674WAT     H135264   6.415   5.602   7.597
11674WAT     H235265   6.357   5.723   7.504
11675WAT      O35266   4.417   6.569   0.583
11675WAT     H135267   4.498   6.571   0.525
11675WAT     H235268   4.384   6.662   0.598
11676WAT      O35269   5.734   4.510   0.149
11676WAT     H135270   5.827   4.495   0.115
11676WAT     H235271   5.680   4.427   0.133
11677WAT      O35272   1.831   3.166   6.334
11677WAT     H135273   1.781   3.233   6.279
11677WAT     H235274   1.813   3.075   6.298
11678WAT      O35275   9.420   7.840   6.184
11678WAT     H135276   9.429   7.917   6.247
11678WAT     H235277   9.324   7.813   6.178
11679WAT      O35278   6.448   2.389   0.172
11679WAT     H135279   6.466   2.361   0.266
11679WAT     H235280   6.535   2.396   0.123
11680WAT      O35281   6.469   4.199   4.426
11680WAT     H135282   6.532   4.121   4.430
11680WAT     H235283   6.377   4.169   4.451
11681WAT      O35284   7.608   2.411   8.407
11681WAT     H135285   7.652   2.417   8.317
11681WAT     H235286   7.625   2.322   8.448
11682WAT      O35287   2.503   2.368   8.447
11682WAT     H135288   2.445   2.333   8.520
11682WAT     H235289   2.450   2.433   8.392
11683WAT      O35290   8.642   3.939   4.274
11683WAT     H135291   8.571   3.900   4.216
11683WAT     H235292   8.686   4.015   4.227
11684WAT      O35293   6.713   1.243   2.077
11684WAT     H135294   6.662   1.182   2.138
11684WAT     H235295   6.658   1.260   1.995
11685WAT      O35296   6.865   7.372   2.571
11685WAT     H135297   6.884   7.373   2.473
11685WAT     H235298   6.884   7.282   2.608
11686WAT      O35299   8.885   6.022   4.781
11686WAT     H135300   8.793   6.025   4.742
11686WAT     H235301   8.890   6.081   4.861
11687WAT      O35302   4.420   8.127   1.605
11687WAT     H135303   4.501   8.181   1.583
11687WAT     H235304   4.448   8.036   1.637
11688WAT      O35305   8.334   9.493   4.776
11688WAT     H135306   8.319   9.588   4.803
11688WAT     H235307   8.318   9.483   4.677
11689WAT      O35308   7.450   8.105   9.114
11689WAT     H135309   7.490   8.172   9.176
11689WAT     H235310   7.488   8.014   9.135
11690WAT      O35311   1.749   3.336   8.637
11690WAT     H135312   1.768   3.415   8.695
11690WAT     H235313   1.831   3.280   8.631
11691WAT      O35314   6.559   2.763   9.831
11691WAT     H135315   6.544   2.809   9.744
11691WAT     H235316   6.658   2.759   9.850
11692WAT      O35317   3.228   6.348   3.122
11692WAT     H135318   3.309   6.309   3.164
11692WAT     H235319   3.237   6.448   3.119
11693WAT      O35320   4.458   7.809   6.371
11693WAT     H135321   4.450   7.722   6.322
11693WAT     H235322   4.368   7.853   6.376
11694WAT      O35323   8.626   7.417   0.668
11694WAT     H135324   8.687   7.431   0.746
11694WAT     H235325   8.672   7.444   0.584
11695WAT      O35326   3.856   7.988   4.044
11695WAT     H135327   3.838   8.062   3.979
11695WAT     H235328   3.879   7.905   3.994
11696WAT      O35329   0.936   7.388   0.156
11696WAT     H135330   1.002   7.314   0.139
11696WAT     H235331   0.972   7.474   0.121
11697WAT      O35332   7.203   9.233   9.783
11697WAT     H135333   7.218   9.330   9.766
11697WAT     H235334   7.282   9.195   9.832
11698WAT      O35335   8.153   3.728   2.808
11698WAT     H135336   8.088   3.709   2.882
11698WAT     H235337   8.103   3.742   2.722
11699WAT      O35338   0.825   5.120   7.088
11699WAT     H135339   0.807   5.103   7.185
11699WAT     H235340   0.873   5.042   7.049
11700WAT      O35341   7.632   7.126   7.577
11700WAT     H135342   7.633   7.029   7.553
11700WAT     H235343   7.603   7.180   7.499
11701WAT      O35344   3.593   8.328   8.009
11701WAT     H135345   3.508   8.290   8.047
11701WAT     H235346   3.573   8.374   7.922
11702WAT      O35347   9.874   3.027   7.730
11702WAT     H135348   9.950   2.970   7.759
11702WAT     H235349   9.908   3.103   7.674
11703WAT      O35350   1.433   4.404   5.043
11703WAT     H135351   1.347   4.442   5.009
11703WAT     H235352   1.422   4.377   5.139
11704WAT      O35353   0.508   8.125   6.374
11704WAT     H135354   0.415   8.157   6.361
11704WAT     H235355   0.567   8.165   6.304
11705WAT      O35356   6.487   0.496   1.986
11705WAT     H135357   6.524   0.539   2.068
11705WAT     H235358   6.514   0.399   1.984
11706WAT      O35359   7.148   6.498   4.711
11706WAT     H135360   7.214   6.447   4.766
11706WAT     H235361   7.056   6.463   4.727
11707WAT      O35362   7.659   4.830   5.839
11707WAT     H135363   7.572   4.863   5.803
11707WAT     H235364   7.681   4.880   5.923
11708WAT      O35365   3.213   8.007   1.811
11708WAT     H135366   3.248   7.939   1.877
11708WAT     H235367   3.126   7.975   1.774
11709WAT      O35368   3.287   5.360   8.761
11709WAT     H135369   3.328   5.373   8.851
11709WAT     H235370   3.359   5.363   8.691
11710WAT      O35371   8.212   1.922   8.581
11710WAT     H135372   8.205   1.967   8.492
11710WAT     H235373   8.178   1.828   8.573
11711WAT      O35374   9.179   8.934   6.569
11711WAT     H135375   9.139   9.022   6.544
11711WAT     H235376   9.258   8.916   6.510
11712WAT      O35377   6.106   8.337   0.641
11712WAT     H135378   6.206   8.329   0.632
11712WAT     H235379   6.063   8.298   0.560
11713WAT      O35380   1.281   8.514   3.689
11713WAT     H135381   1.210   8.580   3.712
11713WAT     H235382   1.368   8.545   3.727
11714WAT      O35383   4.588   7.865   3.570
11714WAT     H135384   4.596   7.875   3.669
11714WAT     H235385   4.661   7.916   3.525
11715WAT      O35386   0.656   0.220   1.395
11715WAT     H135387   0.627   0.166   1.473
11715WAT     H235388   0.756   0.221   1.390
11716WAT      O35389   0.787   6.665   8.235
11716WAT     H135390   0.751   6.757   8.246
11716WAT     H235391   0.843   6.641   8.314
11717WAT      O35392   8.099   9.805   9.584
11717WAT     H135393   8.095   9.750   9.667
11717WAT     H235394   8.105   9.902   9.608
11718WAT      O35395   7.149   3.883   5.589
11718WAT     H135396   7.051   3.872   5.570
11718WAT     H235397   7.181   3.969   5.550
11719WAT      O35398   9.077   3.119   1.634
11719WAT     H135399   9.008   3.179   1.675
11719WAT     H235400   9.068   3.027   1.672
11720WAT      O35401   5.902   7.833   6.567
11720WAT     H135402   5.912   7.913   6.509
11720WAT     H235403   5.815   7.838   6.616
11721WAT      O35404   4.438   0.284   7.133
11721WAT     H135405   4.422   0.199   7.083
11721WAT     H235406   4.409   0.273   7.228
11722WAT      O35407   7.806   6.091   8.134
11722WAT     H135408   7.823   6.039   8.217
11722WAT     H235409   7.857   6.177   8.138
11723WAT      O35410   9.459   0.594   1.703
11723WAT     H135411   9.386   0.593   1.771
11723WAT     H235412   9.541   0.636   1.743
11724WAT      O35413   5.737   5.607   2.463
11724WAT     H135414   5.712   5.658   2.545
11724WAT     H235415   5.836   5.606   2.453
11725WAT      O35416   2.780   6.763   2.114
11725WAT     H135417   2.856   6.744   2.175
11725WAT     H235418   2.814   6.785   2.022
11726WAT      O35419   9.095   3.483   0.386
11726WAT     H135420   8.998   3.479   0.363
11726WAT     H235421   9.106   3.470   0.485
11727WAT      O35422   4.854   3.878   7.844
11727WAT     H135423   4.935   3.906   7.794
11727WAT     H235424   4.799   3.959   7.867
11728WAT      O35425   3.312   5.354   9.469
11728WAT     H135426   3.366   5.293   9.410
11728WAT     H235427   3.346   5.448   9.460
11729WAT      O35428   6.286   5.011   7.101
11729WAT     H135429   6.339   4.969   7.174
11729WAT     H235430   6.325   4.986   7.012
11730WAT      O35431   0.060   4.532   6.678
11730WAT     H135432   0.093   4.581   6.598
11730WAT     H235433   0.135   4.523   6.744
11731WAT      O35434   7.575   3.551   0.593
11731WAT     H135435   7.621   3.463   0.607
11731WAT     H235436   7.641   3.625   0.602
11732WAT      O35437   2.128   1.613   4.718
11732WAT     H135438   2.068   1.625   4.639
11732WAT     H235439   2.103   1.529   4.767
11733WAT      O35440   7.092   7.000   7.053
11733WAT     H135441   7.053   6.914   7.021
11733WAT     H235442   7.028   7.046   7.114
11734WAT      O35443   4.284   4.814   1.312
11734WAT     H135444   4.254   4.834   1.219
11734WAT     H235445   4.342   4.889   1.345
11735WAT      O35446   2.832   2.790   4.290
11735WAT     H135447   2.877   2.871   4.252
11735WAT     H235448   2.830   2.718   4.221
11736WAT      O35449   4.559   3.005   3.175
11736WAT     H135450   4.555   3.008   3.075
11736WAT     H235451   4.497   3.074   3.212
11737WAT      O35452   9.622   3.004   2.041
11737WAT     H135453   9.633   2.915   2.086
11737WAT     H235454   9.666   3.074   2.096
11738WAT      O35455   8.620   5.461   7.388
11738WAT     H135456   8.616   5.380   7.331
11738WAT     H235457   8.629   5.434   7.484
11739WAT      O35458   2.837   7.738   7.911
11739WAT     H135459   2.878   7.794   7.983
11739WAT     H235460   2.870   7.769   7.822
11740WAT      O35461   8.446   4.137   0.507
11740WAT     H135462   8.533   4.185   0.523
11740WAT     H235463   8.407   4.169   0.420
11741WAT      O35464   9.059   0.654   3.950
11741WAT     H135465   9.151   0.623   3.974
11741WAT     H235466   8.996   0.627   4.023
11742WAT      O35467   0.241   1.015   6.922
11742WAT     H135468   0.238   1.078   6.845
11742WAT     H235469   0.149   1.006   6.961
11743WAT      O35470   3.184   6.961   4.742
11743WAT     H135471   3.221   6.869   4.737
11743WAT     H235472   3.236   7.022   4.681
11744WAT      O35473   6.204   0.874   3.401
11744WAT     H135474   6.169   0.946   3.461
11744WAT     H235475   6.280   0.910   3.347
11745WAT      O35476   8.595   3.773   7.531
11745WAT     H135477   8.656   3.733   7.599
11745WAT     H235478   8.528   3.704   7.501
11746WAT      O35479   8.450   0.653   2.330
11746WAT     H135480   8.500   0.714   2.391
11746WAT     H235481   8.386   0.706   2.274
11747WAT      O35482   6.610   3.278   6.137
11747WAT     H135483   6.671   3.200   6.124
11747WAT     H235484   6.516   3.245   6.151
11748WAT      O35485   1.658   0.448   9.503
11748WAT     H135486   1.654   0.548   9.495
11748WAT     H235487   1.697   0.410   9.418
11749WAT      O35488   0.861   9.780   9.288
11749WAT     H135489   0.774   9.814   9.251
11749WAT     H235490   0.843   9.723   9.368
11750WAT      O35491   9.229   6.211   5.525
11750WAT     H135492   9.219   6.234   5.428
11750WAT     H235493   9.316   6.163   5.539
11751WAT      O35494   2.063   7.922   5.163
11751WAT     H135495   2.039   7.966   5.249
11751WAT     H235496   2.139   7.859   5.177
11752WAT      O35497   2.362   1.924   3.589
11752WAT     H135498   2.314   2.005   3.623
11752WAT     H235499   2.395   1.869   3.666
11753WAT      O35500   8.877   5.005   4.448
11753WAT     H135501   8.969   5.028   4.481
11753WAT     H235502   8.809   5.038   4.514
11754WAT      O35503   8.756   4.441   4.831
11754WAT     H135504   8.850   4.454   4.801
11754WAT     H235505   8.694   4.455   4.754
11755WAT      O35506   5.984   3.558   0.156
11755WAT     H135507   5.926   3.571   0.075
11755WAT     H235508   5.933   3.508   0.226
11756WAT      O35509   1.534   7.255   4.619
11756WAT     H135510   1.600   7.309   4.670
11756WAT     H235511   1.558   7.256   4.522
11757WAT      O35512   7.073   9.291   1.152
11757WAT     H135513   7.027   9.242   1.226
11757WAT     H235514   7.050   9.248   1.064
11758WAT      O35515   4.142   2.065   7.820
11758WAT     H135516   4.226   2.016   7.799
11758WAT     H235517   4.124   2.133   7.748
11759WAT      O35518   1.939   4.728   9.055
11759WAT     H135519   1.872   4.801   9.041
11759WAT     H235520   2.031   4.764   9.042
11760WAT      O35521   7.440   0.425   5.819
11760WAT     H135522   7.366   0.363   5.844
11760WAT     H235523   7.526   0.373   5.812
11761WAT      O35524   5.750   0.668   0.317
11761WAT     H135525   5.769   0.765   0.328
11761WAT     H235526   5.675   0.656   0.252
11762WAT      O35527   9.790   4.881   7.760
11762WAT     H135528   9.715   4.937   7.794
11762WAT     H235529   9.816   4.912   7.668
11763WAT      O35530   1.023   4.373   2.898
11763WAT     H135531   1.033   4.461   2.944
11763WAT     H235532   1.110   4.347   2.856
11764WAT      O35533   0.771   5.750   3.583
11764WAT     H135534   0.792   5.781   3.676
11764WAT     H235535   0.806   5.816   3.517
11765WAT      O35536   2.876   4.352   7.718
11765WAT     H135537   2.796   4.378   7.772
11765WAT     H235538   2.867   4.387   7.625
11766WAT      O35539   8.906   9.623   5.690
11766WAT     H135540   8.987   9.571   5.720
11766WAT     H235541   8.856   9.569   5.622
11767WAT      O35542   8.385   4.621   5.223
11767WAT     H135543   8.319   4.566   5.275
11767WAT     H235544   8.425   4.564   5.151
11768WAT      O35545   0.871   9.582   6.425
11768WAT     H135546   0.933   9.654   6.456
11768WAT     H235547   0.870   9.579   6.325
11769WAT      O35548   8.382   9.670   9.778
11769WAT     H135549   8.284   9.685   9.794
11769WAT     H235550   8.394   9.596   9.712
11770WAT      O35551   5.338   0.903   5.358
11770WAT     H135552   5.259   0.872   5.305
11770WAT     H235553   5.324   0.998   5.385
11771WAT      O35554   0.062   7.967   8.694
11771WAT     H135555   0.026   7.911   8.768
11771WAT     H235556   0.123   7.912   8.637
11772WAT      O35557   5.841   3.075   4.226
11772WAT     H135558   5.798   3.108   4.142
11772WAT     H235559   5.884   2.986   4.208
11773WAT      O35560   4.947   9.154   7.007
11773WAT     H135561   4.952   9.124   6.912
11773WAT     H235562   5.033   9.133   7.053
11774WAT      O35563   8.197   8.987   0.958
11774WAT     H135564   8.155   9.066   1.002
11774WAT     H235565   8.186   8.907   1.017
11775WAT      O35566   2.857   3.754   1.915
11775WAT     H135567   2.835   3.693   1.991
11775WAT     H235568   2.816   3.717   1.831
11776WAT      O35569   4.955   3.078   0.240
11776WAT     H135570   5.052   3.074   0.265
11776WAT     H235571   4.908   3.142   0.302
11777WAT      O35572   2.085   2.974   9.269
11777WAT     H135573   2.139   3.013   9.343
11777WAT     H235574   2.054   2.883   9.296
11778WAT      O35575   3.477   8.026   3.803
11778WAT     H135576   3.550   7.989   3.746
11778WAT     H235577   3.390   8.021   3.755
11779WAT      O35578   5.138   6.636   1.031
11779WAT     H135579   5.203   6.592   0.969
11779WAT     H235580   5.085   6.567   1.080
11780WAT      O35581   9.620   5.017   9.403
11780WAT     H135582   9.689   5.023   9.475
11780WAT     H235583   9.658   5.056   9.319
11781WAT      O35584   4.547   0.439   6.412
11781WAT     H135585   4.462   0.491   6.423
11781WAT     H235586   4.530   0.360   6.353
11782WAT      O35587   1.409   6.578   3.736
11782WAT     H135588   1.490   6.634   3.754
11782WAT     H235589   1.361   6.614   3.655
11783WAT      O35590   0.917   1.692   4.372
11783WAT     H135591   0.981   1.623   4.406
11783WAT     H235592   0.963   1.749   4.304
11784WAT      O35593   7.009   8.822   3.408
11784WAT     H135594   6.941   8.806   3.480
11784WAT     H235595   7.094   8.855   3.450
11785WAT      O35596   2.335   0.816   5.394
11785WAT     H135597   2.252   0.853   5.436
11785WAT     H235598   2.401   0.889   5.381
11786WAT      O35599   9.129   9.756   3.088
11786WAT     H135600   9.030   9.772   3.087
11786WAT     H235601   9.176   9.842   3.109
11787WAT      O35602   7.367   5.402   6.365
11787WAT     H135603   7.458   5.439   6.346
11787WAT     H235604   7.298   5.459   6.320
11788WAT      O35605   4.135   4.446   2.100
11788WAT     H135606   4.145   4.505   2.020
11788WAT     H235607   4.046   4.464   2.143
11789WAT      O35608   6.203   8.242   4.047
11789WAT     H135609   6.300   8.227   4.062
11789WAT     H235610   6.151   8.165   4.084
11790WAT      O35611   7.716   6.847   8.732
11790WAT     H135612   7.700   6.944   8.748
11790WAT     H235613   7.754   6.834   8.640
11791WAT      O35614   7.558   6.281   6.111
11791WAT     H135615   7.654   6.257   6.128
11791WAT     H235616   7.552   6.377   6.084
11792WAT      O35617   8.950   2.899   8.278
11792WAT     H135618   9.025   2.859   8.225
11792WAT     H235619   8.969   2.888   8.375
11793WAT      O35620   7.074   5.933   5.048
11793WAT     H135621   7.015   5.928   5.129
11793WAT     H235622   7.021   5.909   4.967
11794WAT      O35623   7.647   4.537   2.213
11794WAT     H135624   7.665   4.482   2.295
11794WAT     H235625   7.712   4.511   2.141
11795WAT      O35626   7.583   2.779   8.818
11795WAT     H135627   7.557   2.744   8.908
11795WAT     H235628   7.510   2.839   8.783
11796WAT      O35629   0.597   7.958   5.754
11796WAT     H135630   0.591   7.867   5.714
11796WAT     H235631   0.506   7.998   5.762
11797WAT      O35632   1.035   3.503   2.359
11797WAT     H135633   0.985   3.515   2.445
11797WAT     H235634   1.112   3.566   2.357
11798WAT      O35635   9.408   2.374   0.043
11798WAT     H135636   9.389   2.305  -0.027
11798WAT     H235637   9.323   2.403   0.086
11799WAT      O35638   1.743   2.983   9.383
11799WAT     H135639   1.672   3.046   9.416
11799WAT     H235640   1.722   2.954   9.290
11800WAT      O35641   0.129   9.569   6.406
11800WAT     H135642   0.216   9.544   6.364
11800WAT     H235643   0.058   9.573   6.336
11801WAT      O35644   3.076   5.004   5.989
11801WAT     H135645   3.084   4.991   5.890
11801WAT     H235646   3.158   4.970   6.034
11802WAT      O35647   1.792   8.334   7.421
11802WAT     H135648   1.735   8.405   7.380
11802WAT     H235649   1.866   8.311   7.358
11803WAT      O35650   1.411   5.801   4.677
11803WAT     H135651   1.397   5.836   4.770
11803WAT     H235652   1.385   5.871   4.611
11804WAT      O35653   7.856   7.264   8.610
11804WAT     H135654   7.919   7.321   8.663
11804WAT     H235655   7.784   7.230   8.670
11805WAT      O35656   1.912   1.592   7.033
11805WAT     H135657   1.843   1.554   7.095
11805WAT     H235658   2.003   1.560   7.061
11806WAT      O35659   2.859   7.344   3.848
11806WAT     H135660   2.779   7.308   3.896
11806WAT     H235661   2.937   7.282   3.862
11807WAT      O35662   7.623   1.913   5.584
11807WAT     H135663   7.643   1.864   5.499
11807WAT     H235664   7.564   1.991   5.565
11808WAT      O35665   6.672   8.847   7.753
11808WAT     H135666   6.575   8.823   7.748
11808WAT     H235667   6.727   8.763   7.754
11809WAT      O35668   7.039   4.417   8.315
11809WAT     H135669   6.944   4.439   8.336
11809WAT     H235670   7.053   4.318   8.320
11810WAT      O35671   5.206   4.089   5.881
11810WAT     H135672   5.152   4.173   5.891
11810WAT     H235673   5.145   4.013   5.859
11811WAT      O35674   2.409   8.088   6.909
11811WAT     H135675   2.358   8.134   6.981
11811WAT     H235676   2.504   8.119   6.909
11812WAT      O35677   3.196   1.320   2.810
11812WAT     H135678   3.115   1.364   2.772
11812WAT     H235679   3.168   1.239   2.863
11813WAT      O35680   4.350   4.436   8.370
11813WAT     H135681   4.333   4.397   8.280
11813WAT     H235682   4.276   4.411   8.432
11814WAT      O35683   8.884   1.933   5.709
11814WAT     H135684   8.972   1.979   5.698
11814WAT     H235685   8.891   1.864   5.781
11815WAT      O35686   9.116   4.278   4.320
11815WAT     H135687   9.200   4.260   4.371
11815WAT     H235688   9.045   4.310   4.384
11816WAT      O35689   3.454   8.067   0.321
11816WAT     H135690   3.515   7.989   0.311
11816WAT     H235691   3.362   8.035   0.346
11817WAT      O35692   3.426   4.389   5.542
11817WAT     H135693   3.449   4.400   5.445
11817WAT     H235694   3.433   4.292   5.566
11818WAT      O35695   0.424   1.485   5.563
11818WAT     H135696   0.437   1.579   5.532
11818WAT     H235697   0.343   1.446   5.520
11819WAT      O35698   9.679   4.384   5.904
11819WAT     H135699   9.598   4.433   5.935
11819WAT     H235700   9.759   4.445   5.909
11820WAT      O35701   5.139   6.843   0.847
11820WAT     H135702   5.046   6.879   0.845
11820WAT     H235703   5.155   6.796   0.934
11821WAT      O35704   7.823   6.311   5.213
11821WAT     H135705   7.831   6.310   5.313
11821WAT     H235706   7.736   6.270   5.186
11822WAT      O35707   2.429   8.507   4.379
11822WAT     H135708   2.350   8.489   4.321
11822WAT     H235709   2.498   8.437   4.364
11823WAT      O35710   9.108   3.220   0.847
11823WAT     H135711   9.086   3.196   0.753
11823WAT     H235712   9.103   3.319   0.859
11824WAT      O35713   0.786   7.650   3.467
11824WAT     H135714   0.869   7.701   3.445
11824WAT     H235715   0.707   7.695   3.425
11825WAT      O35716   2.989   9.002   7.568
11825WAT     H135717   2.980   9.065   7.491
11825WAT     H235718   2.902   8.999   7.618
11826WAT      O35719   8.534   3.299   0.554
11826WAT     H135720   8.489   3.295   0.465
11826WAT     H235721   8.578   3.211   0.573
11827WAT      O35722   4.611   3.755   5.620
11827WAT     H135723   4.627   3.752   5.521
11827WAT     H235724   4.697   3.736   5.667
11828WAT      O35725   3.020   4.653   3.809
11828WAT     H135726   3.099   4.708   3.835
11828WAT     H235727   2.978   4.614   3.891
11829WAT      O35728   0.941   7.936   6.949
11829WAT     H135729   0.954   8.009   6.883
11829WAT     H235730   1.028   7.891   6.967
11830WAT      O35731   3.114   2.377   7.420
11830WAT     H135732   3.167   2.328   7.489
11830WAT     H235733   3.112   2.474   7.442
11831WAT      O35734   3.239   4.672   5.805
11831WAT     H135735   3.240   4.579   5.769
11831WAT     H235736   3.219   4.669   5.903
11832WAT      O35737   4.897   5.980   6.605
11832WAT     H135738   4.878   5.960   6.509
11832WAT     H235739   4.881   6.077   6.622
11833WAT      O35740   5.132   5.502   3.893
11833WAT     H135741   5.090   5.578   3.943
11833WAT     H235742   5.074   5.421   3.901
11834WAT      O35743   3.342   6.674   2.721
11834WAT     H135744   3.262   6.630   2.680
11834WAT     H235745   3.327   6.773   2.726
11835WAT      O35746   1.164   6.542   0.344
11835WAT     H135747   1.118   6.471   0.397
11835WAT     H235748   1.263   6.534   0.357
11836WAT      O35749   7.055   5.047   0.232
11836WAT     H135750   7.087   5.061   0.139
11836WAT     H235751   6.994   5.122   0.259
11837WAT      O35752   4.687   3.719   4.606
11837WAT     H135753   4.711   3.746   4.513
11837WAT     H235754   4.765   3.732   4.666
11838WAT      O35755   1.792   6.890   8.160
11838WAT     H135756   1.726   6.960   8.187
11838WAT     H235757   1.751   6.800   8.170
11839WAT      O35758   3.203   7.170   9.833
11839WAT     H135759   3.239   7.241   9.893
11839WAT     H235760   3.276   7.107   9.807
11840WAT      O35761   0.916   5.886   7.629
11840WAT     H135762   0.889   5.802   7.675
11840WAT     H235763   1.006   5.873   7.586
11841WAT      O35764   3.813   9.767   0.910
11841WAT     H135765   3.842   9.818   0.829
11841WAT     H235766   3.723   9.726   0.894
11842WAT      O35767   9.571   7.549   4.536
11842WAT     H135768   9.646   7.494   4.574
11842WAT     H235769   9.600   7.645   4.530
11843WAT      O35770   6.424   4.939   1.445
11843WAT     H135771   6.403   4.868   1.378
11843WAT     H235772   6.407   4.904   1.537
11844WAT      O35773   4.788   2.924   5.814
11844WAT     H135774   4.713   2.988   5.796
11844WAT     H235775   4.813   2.927   5.911
11845WAT      O35776   2.363   4.788   2.056
11845WAT     H135777   2.322   4.879   2.066
11845WAT     H235778   2.379   4.749   2.147
11846WAT      O35779   0.855   6.948   2.944
11846WAT     H135780   0.851   6.852   2.971
11846WAT     H235781   0.912   6.958   2.863
11847WAT      O35782   8.500   3.169   1.361
11847WAT     H135783   8.507   3.245   1.296
11847WAT     H235784   8.562   3.185   1.438
11848WAT      O35785   3.235   4.030   0.383
11848WAT     H135786   3.137   4.011   0.385
11848WAT     H235787   3.249   4.129   0.387
11849WAT      O35788   1.010   5.234   1.557
11849WAT     H135789   1.032   5.188   1.471
11849WAT     H235790   1.030   5.174   1.634
11850WAT      O35791   2.110   9.254   8.633
11850WAT     H135792   2.164   9.170   8.636
11850WAT     H235793   2.076   9.275   8.725
11851WAT      O35794   4.514   7.910   3.041
11851WAT     H135795   4.499   8.000   3.000
11851WAT     H235796   4.536   7.844   2.969
11852WAT      O35797   3.703   6.758   2.040
11852WAT     H135798   3.683   6.681   2.100
11852WAT     H235799   3.676   6.844   2.084
11853WAT      O35800   3.715   4.875   2.824
11853WAT     H135801   3.673   4.944   2.883
11853WAT     H235802   3.725   4.790   2.875
11854WAT      O35803   8.848   5.936   3.830
11854WAT     H135804   8.866   5.903   3.923
11854WAT     H235805   8.752   5.918   3.807
11855WAT      O35806   4.171   2.795   0.230
11855WAT     H135807   4.252   2.739   0.243
11855WAT     H235808   4.182   2.851   0.148
11856WAT      O35809   3.863   8.923   7.975
11856WAT     H135810   3.868   8.863   8.055
11856WAT     H235811   3.772   8.916   7.933
11857WAT      O35812   4.479   1.603   8.330
11857WAT     H135813   4.555   1.655   8.290
11857WAT     H235814   4.421   1.664   8.383
11858WAT      O35815   9.866   7.338   8.872
11858WAT     H135816   9.811   7.316   8.792
11858WAT     H235817   9.849   7.271   8.944
11859WAT      O35818   2.295   4.259   2.449
11859WAT     H135819   2.207   4.306   2.443
11859WAT     H235820   2.293   4.178   2.392
11860WAT      O35821   9.695   0.529   3.751
11860WAT     H135822   9.632   0.599   3.718
11860WAT     H235823   9.722   0.470   3.675
11861WAT      O35824   4.464   8.105   5.263
11861WAT     H135825   4.512   8.193   5.253
11861WAT     H235826   4.388   8.101   5.199
11862WAT      O35827   8.387   8.509   3.895
11862WAT     H135828   8.317   8.528   3.964
11862WAT     H235829   8.439   8.428   3.922
11863WAT      O35830   3.746   3.832   0.052
11863WAT     H135831   3.728   3.903   0.120
11863WAT     H235832   3.757   3.744   0.098
11864WAT      O35833   7.560   8.267   6.701
11864WAT     H135834   7.601   8.251   6.611
11864WAT     H235835   7.461   8.269   6.693
11865WAT      O35836   4.694   4.725   0.454
11865WAT     H135837   4.794   4.729   0.453
11865WAT     H235838   4.658   4.818   0.453
11866WAT      O35839   6.074   4.187   6.865
11866WAT     H135840   6.127   4.106   6.842
11866WAT     H235841   5.980   4.177   6.831
11867WAT      O35842   3.700   4.446   1.433
11867WAT     H135843   3.709   4.533   1.480
11867WAT     H235844   3.645   4.383   1.489
11868WAT      O35845   0.435   5.828   7.436
11868WAT     H135846   0.421   5.806   7.340
11868WAT     H235847   0.486   5.913   7.444
11869WAT      O35848   0.118   8.924   0.789
11869WAT     H135849   0.047   8.855   0.780
11869WAT     H235850   0.146   8.931   0.885
11870WAT      O35851   2.364   7.176   6.093
11870WAT     H135852   2.267   7.202   6.085
11870WAT     H235853   2.409   7.186   6.005
11871WAT      O35854   0.053   5.722   1.744
11871WAT     H135855  -0.017   5.793   1.732
11871WAT     H235856   0.018   5.650   1.804
11872WAT      O35857   4.661   0.292   0.021
11872WAT     H135858   4.603   0.357  -0.028
11872WAT     H235859   4.643   0.200  -0.014
11873WAT      O35860   2.582   8.788   3.159
11873WAT     H135861   2.606   8.847   3.236
11873WAT     H235862   2.592   8.838   3.073
11874WAT      O35863   6.912   1.659   1.941
11874WAT     H135864   6.832   1.711   1.913
11874WAT     H235865   6.993   1.718   1.937
11875WAT      O35866   2.207   4.807   7.988
11875WAT     H135867   2.180   4.733   8.049
11875WAT     H235868   2.142   4.814   7.913
11876WAT      O35869   9.650   8.934   9.455
11876WAT     H135870   9.720   8.940   9.526
11876WAT     H235871   9.672   8.858   9.393
11877WAT      O35872   1.431   1.665   4.579
11877WAT     H135873   1.389   1.756   4.576
11877WAT     H235874   1.397   1.610   4.502
11878WAT      O35875   6.132   5.901   6.413
11878WAT     H135876   6.040   5.863   6.415
11878WAT     H235877   6.164   5.916   6.506
11879WAT      O35878   8.563   8.484   1.473
11879WAT     H135879   8.611   8.399   1.454
11879WAT     H235880   8.573   8.507   1.570
11880WAT      O35881   7.916   8.219   6.362
11880WAT     H135882   7.914   8.234   6.263
11880WAT     H235883   8.008   8.194   6.391
11881WAT      O35884   6.761   8.667   3.997
11881WAT     H135885   6.662   8.664   4.010
11881WAT     H235886   6.797   8.574   3.991
11882WAT      O35887   7.851   5.169   1.768
11882WAT     H135888   7.771   5.182   1.826
11882WAT     H235889   7.932   5.158   1.825
11883WAT      O35890   5.520   8.106   8.459
11883WAT     H135891   5.566   8.136   8.542
11883WAT     H235892   5.425   8.083   8.480
11884WAT      O35893   1.564   0.916   9.873
11884WAT     H135894   1.477   0.965   9.872
11884WAT     H235895   1.548   0.821   9.899
11885WAT      O35896   1.706   8.193   3.952
11885WAT     H135897   1.692   8.292   3.939
11885WAT     H235898   1.654   8.143   3.884
11886WAT      O35899   9.681   4.874   3.851
11886WAT     H135900   9.595   4.879   3.801
11886WAT     H235901   9.673   4.808   3.925
11887WAT      O35902   5.147   3.644   6.149
11887WAT     H135903   5.158   3.591   6.065
11887WAT     H235904   5.114   3.585   6.222
11888WAT      O35905   1.077   0.894   7.520
11888WAT     H135906   1.167   0.871   7.485
11888WAT     H235907   1.010   0.886   7.447
11889WAT      O35908   2.651   1.862   8.044
11889WAT     H135909   2.580   1.837   8.110
11889WAT     H235910   2.626   1.829   7.953
11890WAT      O35911   1.561   6.206   6.323
11890WAT     H135912   1.643   6.259   6.304
11890WAT     H235913   1.480   6.261   6.302
11891WAT      O35914   0.805   6.366   7.808
11891WAT     H135915   0.856   6.282   7.791
11891WAT     H235916   0.865   6.434   7.851
11892WAT      O35917   9.482   6.306   4.577
11892WAT     H135918   9.576   6.273   4.569
11892WAT     H235919   9.459   6.363   4.498
11893WAT      O35920   9.368   4.293   8.853
11893WAT     H135921   9.290   4.279   8.793
11893WAT     H235922   9.450   4.257   8.810
11894WAT      O35923   5.491   7.127   3.414
11894WAT     H135924   5.408   7.184   3.416
11894WAT     H235925   5.465   7.031   3.417
11895WAT      O35926   5.670   7.397   1.936
11895WAT     H135927   5.581   7.355   1.953
11895WAT     H235928   5.683   7.410   1.838
11896WAT      O35929   2.215   5.129   5.205
11896WAT     H135930   2.138   5.147   5.266
11896WAT     H235931   2.197   5.171   5.116
11897WAT      O35932   9.143   7.077   6.057
11897WAT     H135933   9.192   6.992   6.036
11897WAT     H235934   9.209   7.145   6.091
11898WAT      O35935   8.060   5.603   4.623
11898WAT     H135936   8.032   5.592   4.527
11898WAT     H235937   8.041   5.697   4.653
11899WAT      O35938   8.513   0.810   1.822
11899WAT     H135939   8.440   0.878   1.836
11899WAT     H235940   8.599   0.857   1.805
11900WAT      O35941   6.414   6.027   1.400
11900WAT     H135942   6.414   5.975   1.485
11900WAT     H235943   6.492   6.001   1.344
11901WAT      O35944   7.764   0.809   8.345
11901WAT     H135945   7.853   0.854   8.348
11901WAT     H235946   7.764   0.741   8.271
11902WAT      O35947   2.780   7.875   3.119
11902WAT     H135948   2.727   7.798   3.154
11902WAT     H235949   2.833   7.847   3.039
11903WAT      O35950   7.966   1.246   4.703
11903WAT     H135951   7.992   1.294   4.786
11903WAT     H235952   7.879   1.199   4.718
11904WAT      O35953   1.346   5.556   8.223
11904WAT     H135954   1.400   5.602   8.294
11904WAT     H235955   1.340   5.459   8.244
11905WAT      O35956   3.496   3.167   4.624
11905WAT     H135957   3.569   3.235   4.620
11905WAT     H235958   3.407   3.213   4.616
11906WAT      O35959   5.364   7.990   9.861
11906WAT     H135960   5.323   8.042   9.786
11906WAT     H235961   5.301   7.987   9.938
11907WAT      O35962   6.360   5.800   8.934
11907WAT     H135963   6.373   5.719   8.991
11907WAT     H235964   6.406   5.786   8.846
11908WAT      O35965   4.134   8.697   7.151
11908WAT     H135966   4.127   8.597   7.158
11908WAT     H235967   4.060   8.731   7.093
11909WAT      O35968   8.212   9.261   2.208
11909WAT     H135969   8.248   9.282   2.117
11909WAT     H235970   8.288   9.234   2.267
11910WAT      O35971   1.881   9.334   6.445
11910WAT     H135972   1.935   9.373   6.518
11910WAT     H235973   1.932   9.259   6.402
11911WAT      O35974   7.168   7.359   2.748
11911WAT     H135975   7.201   7.337   2.657
11911WAT     H235976   7.119   7.447   2.746
11912WAT      O35977   8.020   0.394   0.035
11912WAT     H135978   8.111   0.361   0.058
11912WAT     H235979   8.028   0.480  -0.016
11913WAT      O35980   7.497   0.814   0.777
11913WAT     H135981   7.527   0.757   0.700
11913WAT     H235982   7.569   0.817   0.846
11914WAT      O35983   8.026   3.231   1.292
11914WAT     H135984   8.093   3.174   1.340
11914WAT     H235985   8.031   3.325   1.327
11915WAT      O35986   3.795   7.585   7.646
11915WAT     H135987   3.762   7.560   7.737
11915WAT     H235988   3.717   7.605   7.586
11916WAT      O35989   8.981   8.384   5.535
11916WAT     H135990   8.919   8.317   5.576
11916WAT     H235991   8.935   8.429   5.459
11917WAT      O35992   0.111   8.405   5.202
11917WAT     H135993   0.149   8.319   5.238
11917WAT     H235994   0.182   8.456   5.154
11918WAT      O35995   1.112   9.507   3.718
11918WAT     H135996   1.210   9.528   3.717
11918WAT     H235997   1.092   9.444   3.793
11919WAT      O35998   2.101   7.088   9.766
11919WAT     H135999   2.102   7.036   9.681
11919WAT     H236000   2.151   7.174   9.753
11920WAT      O36001   1.543   6.588   7.801
11920WAT     H136002   1.586   6.502   7.828
11920WAT     H236003   1.595   6.629   7.726
11921WAT      O36004   2.471   1.348   4.239
11921WAT     H136005   2.422   1.264   4.216
11921WAT     H236006   2.409   1.409   4.289
11922WAT      O36007   5.940   6.560   9.543
11922WAT     H136008   5.898   6.517   9.463
11922WAT     H236009   5.875   6.624   9.584
11923WAT      O36010   1.341   0.153   1.711
11923WAT     H136011   1.320   0.247   1.738
11923WAT     H236012   1.291   0.129   1.628
11924WAT      O36013   5.344   7.328   7.124
11924WAT     H136014   5.437   7.302   7.152
11924WAT     H236015   5.279   7.299   7.194
11925WAT      O36016   0.604   8.335   1.831
11925WAT     H136017   0.515   8.288   1.837
11925WAT     H236018   0.674   8.280   1.874
11926WAT      O36019   6.972   9.468   8.643
11926WAT     H136020   6.984   9.434   8.737
11926WAT     H236021   7.062   9.474   8.599
11927WAT      O36022   5.222   1.492   8.032
11927WAT     H136023   5.146   1.496   7.968
11927WAT     H236024   5.195   1.535   8.119
11928WAT      O36025   5.189   3.468   6.816
11928WAT     H136026   5.230   3.525   6.744
11928WAT     H236027   5.262   3.428   6.871
11929WAT      O36028   4.017   4.072   5.853
11929WAT     H136029   3.941   4.009   5.872
11929WAT     H236030   4.085   4.026   5.796
11930WAT      O36031   5.505   2.099   0.360
11930WAT     H136032   5.563   2.180   0.354
11930WAT     H236033   5.431   2.116   0.425
11931WAT      O36034   2.027   8.491   5.592
11931WAT     H136035   2.120   8.527   5.595
11931WAT     H236036   1.991   8.482   5.685
11932WAT      O36037   5.483   3.737   6.463
11932WAT     H136038   5.408   3.780   6.411
11932WAT     H236039   5.567   3.791   6.450
11933WAT      O36040   2.940   3.509   5.564
11933WAT     H136041   3.037   3.524   5.548
11933WAT     H236042   2.886   3.565   5.500
11934WAT      O36043   1.203   2.042   5.231
11934WAT     H136044   1.251   2.123   5.197
11934WAT     H236045   1.270   1.974   5.258
11935WAT      O36046   7.307   2.080   1.167
11935WAT     H136047   7.395   2.032   1.166
11935WAT     H236048   7.319   2.173   1.131
11936WAT      O36049   9.666   4.335   9.062
11936WAT     H136050   9.579   4.288   9.054
11936WAT     H236051   9.669   4.387   9.147
11937WAT      O36052   4.608   1.406   9.559
11937WAT     H136053   4.647   1.317   9.584
11937WAT     H236054   4.524   1.393   9.508
11938WAT      O36055   9.154   8.366   2.260
11938WAT     H136056   9.245   8.408   2.265
11938WAT     H236057   9.145   8.317   2.174
11939WAT      O36058   2.680   1.313   4.520
11939WAT     H136059   2.708   1.222   4.491
11939WAT     H236060   2.759   1.374   4.521
11940WAT      O36061   4.485   5.684   4.829
11940WAT     H136062   4.529   5.751   4.770
11940WAT     H236063   4.387   5.682   4.810
11941WAT      O36064   6.981   9.265   8.157
11941WAT     H136065   6.962   9.362   8.140
11941WAT     H236066   6.895   9.217   8.172
11942WAT      O36067   3.136   5.131   7.117
11942WAT     H136068   3.176   5.222   7.133
11942WAT     H236069   3.209   5.067   7.092
11943WAT      O36070   7.691   2.153   3.242
11943WAT     H136071   7.612   2.198   3.202
11943WAT     H236072   7.761   2.221   3.264
11944WAT      O36073   9.171   2.674   6.091
11944WAT     H136074   9.218   2.758   6.116
11944WAT     H236075   9.225   2.595   6.123
11945WAT      O36076   7.655   8.400   2.999
11945WAT     H136077   7.572   8.448   3.028
11945WAT     H236078   7.730   8.466   2.991
11946WAT      O36079   7.994   9.711   2.890
11946WAT     H136080   7.898   9.687   2.879
11946WAT     H236081   8.044   9.635   2.931
11947WAT      O36082   1.940   7.398   9.280
11947WAT     H136083   1.894   7.309   9.275
11947WAT     H236084   1.943   7.439   9.189
11948WAT      O36085   2.533   3.625   7.789
11948WAT     H136086   2.506   3.698   7.853
11948WAT     H236087   2.562   3.665   7.702
11949WAT      O36088   1.528   9.322   2.796
11949WAT     H136089   1.607   9.303   2.853
11949WAT     H236090   1.550   9.396   2.732
11950WAT      O36091   6.045   1.783   3.675
11950WAT     H136092   6.038   1.684   3.685
11950WAT     H236093   6.000   1.811   3.589
11951WAT      O36094   2.883   2.866   9.833
11951WAT     H136095   2.960   2.891   9.774
11951WAT     H236096   2.825   2.946   9.847
11952WAT      O36097   8.721   0.262   7.731
11952WAT     H136098   8.734   0.185   7.669
11952WAT     H236099   8.644   0.318   7.700
11953WAT      O36100   5.505   6.620   5.047
11953WAT     H136101   5.494   6.686   4.973
11953WAT     H236102   5.579   6.649   5.108
11954WAT      O36103   2.875   5.152   9.547
11954WAT     H136104   2.946   5.157   9.476
11954WAT     H236105   2.796   5.103   9.512
11955WAT      O36106   5.962   3.383   8.502
11955WAT     H136107   5.986   3.442   8.426
11955WAT     H236108   5.897   3.430   8.562
11956WAT      O36109   8.154   5.933   6.687
11956WAT     H136110   8.238   5.965   6.644
11956WAT     H236111   8.075   5.974   6.639
11957WAT      O36112   2.041   2.354   0.817
11957WAT     H136113   2.105   2.381   0.745
11957WAT     H236114   2.033   2.428   0.884
11958WAT      O36115   3.443   4.923   4.237
11958WAT     H136116   3.392   4.971   4.308
11958WAT     H236117   3.419   4.961   4.147
11959WAT      O36118   7.324   7.569   2.890
11959WAT     H136119   7.289   7.520   2.810
11959WAT     H236120   7.257   7.639   2.917
11960WAT      O36121   1.378   9.593   6.786
11960WAT     H136122   1.318   9.566   6.710
11960WAT     H236123   1.395   9.514   6.845
11961WAT      O36124   9.808   7.119   6.609
11961WAT     H136125   9.723   7.068   6.620
11961WAT     H236126   9.857   7.084   6.529
11962WAT      O36127   1.869   9.740   0.749
11962WAT     H136128   1.892   9.707   0.657
11962WAT     H236129   1.774   9.770   0.751
11963WAT      O36130   1.503   6.354   6.890
11963WAT     H136131   1.584   6.375   6.836
11963WAT     H236132   1.454   6.439   6.911
11964WAT      O36133   7.550   5.032   8.501
11964WAT     H136134   7.642   5.044   8.539
11964WAT     H236135   7.543   4.942   8.458
11965WAT      O36136   8.565   4.663   8.607
11965WAT     H136137   8.659   4.691   8.588
11965WAT     H236138   8.564   4.589   8.674
11966WAT      O36139   3.882   4.563   8.288
11966WAT     H136140   3.871   4.490   8.220
11966WAT     H236141   3.969   4.610   8.273
11967WAT      O36142   3.150   4.525   5.387
11967WAT     H136143   3.167   4.478   5.473
11967WAT     H236144   3.097   4.466   5.326
11968WAT      O36145   6.721   4.697   1.794
11968WAT     H136146   6.693   4.742   1.879
11968WAT     H236147   6.801   4.640   1.812
11969WAT      O36148   3.635   7.481   5.695
11969WAT     H136149   3.676   7.566   5.728
11969WAT     H236150   3.707   7.415   5.676
11970WAT      O36151   1.008   5.608   3.501
11970WAT     H136152   0.911   5.625   3.482
11970WAT     H236153   1.023   5.605   3.599
11971WAT      O36154   4.914   1.172   7.030
11971WAT     H136155   4.874   1.176   6.938
11971WAT     H236156   4.897   1.258   7.077
11972WAT      O36157   7.235   4.664   0.760
11972WAT     H136158   7.167   4.685   0.690
11972WAT     H236159   7.200   4.593   0.821
11973WAT      O36160   6.883   6.172   9.215
11973WAT     H136161   6.876   6.184   9.116
11973WAT     H236162   6.965   6.218   9.249
11974WAT      O36163   3.367   4.990   1.717
11974WAT     H136164   3.309   5.071   1.727
11974WAT     H236165   3.428   5.001   1.639
11975WAT      O36166   4.291   1.916   9.316
11975WAT     H136167   4.273   1.954   9.407
11975WAT     H236168   4.343   1.982   9.262
11976WAT      O36169   3.415   2.395   8.638
11976WAT     H136170   3.347   2.405   8.566
11976WAT     H236171   3.504   2.372   8.598
11977WAT      O36172   1.540   2.132   0.516
11977WAT     H136173   1.591   2.211   0.481
11977WAT     H236174   1.594   2.049   0.504
11978WAT      O36175   4.387   0.277   2.891
11978WAT     H136176   4.437   0.205   2.939
11978WAT     H236177   4.357   0.346   2.957
11979WAT      O36178   2.813   1.022   2.764
11979WAT     H136179   2.859   1.066   2.687
11979WAT     H236180   2.733   0.973   2.731
11980WAT      O36181   8.232   6.075   5.083
11980WAT     H136182   8.134   6.080   5.101
11980WAT     H236183   8.277   6.024   5.156
11981WAT      O36184   5.912   8.834   5.028
11981WAT     H136185   5.855   8.887   4.964
11981WAT     H236186   5.887   8.858   5.122
11982WAT      O36187   2.771   3.058   0.325
11982WAT     H136188   2.749   3.082   0.419
11982WAT     H236189   2.829   3.129   0.285
11983WAT      O36190   1.217   6.171   2.266
11983WAT     H136191   1.276   6.097   2.232
11983WAT     H236192   1.259   6.259   2.244
11984WAT      O36193   7.981   2.621   7.856
11984WAT     H136194   7.970   2.718   7.834
11984WAT     H236195   7.926   2.566   7.792
11985WAT      O36196   7.944   0.004   5.671
11985WAT     H136197   8.039  -0.003   5.704
11985WAT     H236198   7.911   0.097   5.686
11986WAT      O36199   1.848   2.393   0.608
11986WAT     H136200   1.919   2.369   0.674
11986WAT     H236201   1.876   2.474   0.556
11987WAT      O36202   0.349   3.625   6.873
11987WAT     H136203   0.308   3.695   6.814
11987WAT     H236204   0.282   3.556   6.895
11988WAT      O36205   5.992   6.474   2.555
11988WAT     H136206   5.950   6.387   2.579
11988WAT     H236207   5.993   6.484   2.455
11989WAT      O36208   1.406   0.112   0.939
11989WAT     H136209   1.321   0.160   0.959
11989WAT     H236210   1.474   0.177   0.905
11990WAT      O36211   3.539   1.421   4.931
11990WAT     H136212   3.452   1.464   4.909
11990WAT     H236213   3.613   1.468   4.882
11991WAT      O36214   2.191   3.641   9.753
11991WAT     H136215   2.220   3.552   9.790
11991WAT     H236216   2.265   3.682   9.701
11992WAT      O36217   3.192   0.665   5.569
11992WAT     H136218   3.212   0.623   5.658
11992WAT     H236219   3.116   0.618   5.526
11993WAT      O36220   8.987   2.263   3.470
11993WAT     H136221   9.041   2.228   3.392
11993WAT     H236222   8.892   2.232   3.460
11994WAT      O36223   7.735   8.402   0.951
11994WAT     H136224   7.707   8.399   1.046
11994WAT     H236225   7.663   8.445   0.896
11995WAT      O36226   1.620   8.236   8.776
11995WAT     H136227   1.678   8.171   8.727
11995WAT     H236228   1.529   8.238   8.733
11996WAT      O36229   5.012   1.750   5.170
11996WAT     H136230   4.949   1.828   5.170
11996WAT     H236231   4.964   1.669   5.138
11997WAT      O36232   5.677   1.365   5.721
11997WAT     H136233   5.590   1.391   5.764
11997WAT     H236234   5.715   1.286   5.768
11998WAT      O36235   0.495   3.147   1.544
11998WAT     H136236   0.423   3.078   1.538
11998WAT     H236237   0.542   3.154   1.456
11999WAT      O36238   3.697   5.895   3.721
11999WAT     H136239   3.749   5.866   3.640
11999WAT     H236240   3.754   5.886   3.802
12000WAT      O36241   1.555   9.794   5.525
12000WAT     H136242   1.490   9.852   5.475
12000WAT     H236243   1.610   9.850   5.587
12001WAT      O36244   5.896   3.591   0.753
12001WAT     H136245   5.957   3.529   0.704
12001WAT     H236246   5.906   3.683   0.716
12002WAT      O36247   2.317   1.828   4.931
12002WAT     H136248   2.243   1.802   4.993
12002WAT     H236249   2.278   1.861   4.845
12003WAT      O36250   2.184   2.406   6.934
12003WAT     H136251   2.177   2.314   6.972
12003WAT     H236252   2.281   2.432   6.925
12004WAT      O36253   2.251   6.696   6.332
12004WAT     H136254   2.242   6.753   6.250
12004WAT     H236255   2.252   6.600   6.306
12005WAT      O36256   4.504   5.480   5.247
12005WAT     H136257   4.540   5.392   5.277
12005WAT     H236258   4.415   5.497   5.290
12006WAT      O36259   6.361   4.021   9.050
12006WAT     H136260   6.405   3.931   9.059
12006WAT     H236261   6.377   4.057   8.959
12007WAT      O36262   3.752   2.015   3.756
12007WAT     H136263   3.712   2.041   3.668
12007WAT     H236264   3.830   2.074   3.776
12008WAT      O36265   5.934   2.785   2.409
12008WAT     H136266   5.864   2.856   2.418
12008WAT     H236267   6.004   2.816   2.343
12009WAT      O36268   1.667   9.331   5.623
12009WAT     H136269   1.718   9.369   5.545
12009WAT     H236270   1.575   9.372   5.626
12010WAT      O36271   1.958   4.319   8.972
12010WAT     H136272   1.862   4.343   8.954
12010WAT     H236273   2.018   4.382   8.923
12011WAT      O36274   6.139   0.505   4.712
12011WAT     H136275   6.220   0.448   4.728
12011WAT     H236276   6.061   0.447   4.689
12012WAT      O36277   2.994   5.586   2.571
12012WAT     H136278   2.985   5.523   2.648
12012WAT     H236279   3.090   5.594   2.545
12013WAT      O36280   2.148   2.198   6.598
12013WAT     H136281   2.059   2.241   6.609
12013WAT     H236282   2.150   2.110   6.646
12014WAT      O36283   1.523   0.231   8.750
12014WAT     H136284   1.586   0.179   8.692
12014WAT     H236285   1.542   0.211   8.846
12015WAT      O36286   6.377   2.420   5.843
12015WAT     H136287   6.335   2.447   5.929
12015WAT     H236288   6.389   2.501   5.785
12016WAT      O36289   2.049   8.893   1.039
12016WAT     H136290   2.017   8.957   1.109
12016WAT     H236291   2.008   8.803   1.055
12017WAT      O36292   7.155   7.740   7.659
12017WAT     H136293   7.110   7.659   7.696
12017WAT     H236294   7.232   7.712   7.603
12018WAT      O36295   2.060   0.505   6.610
12018WAT     H136296   2.136   0.563   6.639
12018WAT     H236297   1.974   0.550   6.634
12019WAT      O36298   8.879   1.574   2.961
12019WAT     H136299   8.848   1.527   3.044
12019WAT     H236300   8.799   1.608   2.911
12020WAT      O36301   4.068   4.935   6.595
12020WAT     H136302   4.061   4.846   6.551
12020WAT     H236303   4.140   4.934   6.664
12021WAT      O36304   9.403   2.850   2.430
12021WAT     H136305   9.487   2.799   2.452
12021WAT     H236306   9.326   2.808   2.478
12022WAT      O36307   6.448   3.391   6.449
12022WAT     H136308   6.384   3.455   6.490
12022WAT     H236309   6.433   3.300   6.488
12023WAT      O36310   3.606   2.132   9.711
12023WAT     H136311   3.572   2.074   9.785
12023WAT     H236312   3.700   2.105   9.688
12024WAT      O36313   9.663   6.193   1.418
12024WAT     H136314   9.756   6.181   1.385
12024WAT     H236315   9.599   6.154   1.353
12025WAT      O36316   3.454   3.674   0.791
12025WAT     H136317   3.455   3.681   0.691
12025WAT     H236318   3.463   3.578   0.817
12026WAT      O36319   3.541   8.020   6.585
12026WAT     H136320   3.479   7.992   6.659
12026WAT     H236321   3.632   7.984   6.604
12027WAT      O36322   7.381   9.595   2.017
12027WAT     H136323   7.384   9.670   1.951
12027WAT     H236324   7.474   9.558   2.030
12028WAT      O36325   5.941   2.934   8.891
12028WAT     H136326   6.001   2.989   8.832
12028WAT     H236327   5.996   2.877   8.951
12029WAT      O36328   6.095   1.079   8.489
12029WAT     H136329   6.088   1.102   8.392
12029WAT     H236330   6.187   1.099   8.521
12030WAT      O36331   6.211   1.775   4.258
12030WAT     H136332   6.112   1.774   4.270
12030WAT     H236333   6.254   1.721   4.331
12031WAT      O36334   1.241   9.633   8.720
12031WAT     H136335   1.157   9.642   8.775
12031WAT     H236336   1.317   9.678   8.767
12032WAT      O36337   6.807   5.978   5.747
12032WAT     H136338   6.816   5.948   5.842
12032WAT     H236339   6.828   5.901   5.686
12033WAT      O36340   6.314   5.067   7.684
12033WAT     H136341   6.295   5.047   7.780
12033WAT     H236342   6.349   5.160   7.675
12034WAT      O36343   6.602   4.614   4.170
12034WAT     H136344   6.660   4.662   4.104
12034WAT     H236345   6.510   4.605   4.132
12035WAT      O36346   0.681   6.080   2.583
12035WAT     H136347   0.616   6.048   2.651
12035WAT     H236348   0.744   6.006   2.558
12036WAT      O36349   0.414   3.884   4.942
12036WAT     H136350   0.426   3.879   4.842
12036WAT     H236351   0.489   3.937   4.981
12037WAT      O36352   2.154   6.917   6.130
12037WAT     H136353   2.113   6.987   6.188
12037WAT     H236354   2.251   6.938   6.117
12038WAT      O36355   8.634   8.888   3.889
12038WAT     H136356   8.542   8.889   3.849
12038WAT     H236357   8.687   8.963   3.850
12039WAT      O36358   0.491   1.229   5.668
12039WAT     H136359   0.478   1.322   5.634
12039WAT     H236360   0.573   1.190   5.625
12040WAT      O36361   8.951   1.465   1.302
12040WAT     H136362   9.022   1.518   1.256
12040WAT     H236363   8.987   1.428   1.388
12041WAT      O36364   6.159   7.420   4.006
12041WAT     H136365   6.175   7.486   3.932
12041WAT     H236366   6.061   7.416   4.026
12042WAT      O36367   9.365   0.247   2.129
12042WAT     H136368   9.446   0.296   2.099
12042WAT     H236369   9.342   0.176   2.062
12043WAT      O36370   3.552   0.489   0.523
12043WAT     H136371   3.636   0.541   0.512
12043WAT     H236372   3.571   0.392   0.508
12044WAT      O36373   6.364   0.478   0.789
12044WAT     H136374   6.344   0.486   0.886
12044WAT     H236375   6.283   0.445   0.740
12045WAT      O36376   5.179   4.607   0.120
12045WAT     H136377   5.263   4.568   0.081
12045WAT     H236378   5.151   4.687   0.065
12046WAT      O36379   5.319   0.823   8.434
12046WAT     H136380   5.221   0.803   8.444
12046WAT     H236381   5.339   0.913   8.471
12047WAT      O36382   5.294   7.496   6.045
12047WAT     H136383   5.293   7.412   5.990
12047WAT     H236384   5.363   7.558   6.008
12048WAT      O36385   0.458   7.111   5.409
12048WAT     H136386   0.416   7.163   5.335
12048WAT     H236387   0.409   7.130   5.495
12049WAT      O36388   2.105   4.649   8.188
12049WAT     H136389   2.007   4.670   8.187
12049WAT     H236390   2.150   4.704   8.258
12050WAT      O36391   2.363   6.648   1.460
12050WAT     H136392   2.381   6.709   1.538
12050WAT     H236393   2.421   6.567   1.467
12051WAT      O36394   1.780   2.674   5.176
12051WAT     H136395   1.712   2.709   5.112
12051WAT     H236396   1.869   2.714   5.154
12052WAT      O36397   6.700   9.247   5.596
12052WAT     H136398   6.692   9.325   5.534
12052WAT     H236399   6.785   9.254   5.648
12053WAT      O36400   6.730   4.798   8.641
12053WAT     H136401   6.701   4.734   8.571
12053WAT     H236402   6.794   4.753   8.704
12054WAT      O36403   9.607   7.369   6.803
12054WAT     H136404   9.683   7.316   6.766
12054WAT     H236405   9.533   7.371   6.735
12055WAT      O36406   0.586   4.821   3.744
12055WAT     H136407   0.637   4.750   3.694
12055WAT     H236408   0.489   4.814   3.722
12056WAT      O36409   3.745   8.609   7.545
12056WAT     H136410   3.796   8.562   7.474
12056WAT     H236411   3.748   8.556   7.629
12057WAT      O36412   1.616   5.011   9.740
12057WAT     H136413   1.659   5.099   9.721
12057WAT     H236414   1.593   5.005   9.837
12058WAT      O36415   8.507   1.230   6.784
12058WAT     H136416   8.455   1.229   6.698
12058WAT     H236417   8.443   1.243   6.860
12059WAT      O36418   1.938   9.376   0.500
12059WAT     H136419   1.920   9.282   0.468
12059WAT     H236420   2.035   9.397   0.489
12060WAT      O36421   9.706   9.060   8.804
12060WAT     H136422   9.763   9.130   8.760
12060WAT     H236423   9.648   9.103   8.873
12061WAT      O36424   8.562   2.368   9.446
12061WAT     H136425   8.557   2.279   9.400
12061WAT     H236426   8.491   2.428   9.410
12062WAT      O36427   7.706   7.875   4.360
12062WAT     H136428   7.748   7.966   4.361
12062WAT     H236429   7.703   7.839   4.453
12063WAT      O36430   5.160   8.157   6.993
12063WAT     H136431   5.105   8.239   6.980
12063WAT     H236432   5.243   8.180   7.045
12064WAT      O36433   1.855   2.541   1.288
12064WAT     H136434   1.763   2.563   1.322
12064WAT     H236435   1.908   2.497   1.360
12065WAT      O36436   1.482   0.364   0.462
12065WAT     H136437   1.480   0.347   0.561
12065WAT     H236438   1.429   0.294   0.415
12066WAT      O36439   0.357   4.887   5.035
12066WAT     H136440   0.392   4.925   4.949
12066WAT     H236441   0.337   4.790   5.022
12067WAT      O36442   4.964   5.416   9.810
12067WAT     H136443   4.983   5.491   9.873
12067WAT     H236444   4.888   5.442   9.750
12068WAT      O36445   7.109   0.877   1.478
12068WAT     H136446   7.150   0.795   1.439
12068WAT     H236447   7.012   0.860   1.496
12069WAT      O36448   4.620   0.201   4.095
12069WAT     H136449   4.602   0.147   4.177
12069WAT     H236450   4.538   0.204   4.038
12070WAT      O36451   6.799   6.953   1.228
12070WAT     H136452   6.765   6.860   1.247
12070WAT     H236453   6.811   6.964   1.130
12071WAT      O36454   0.478   1.166   7.086
12071WAT     H136455   0.392   1.115   7.088
12071WAT     H236456   0.494   1.208   7.176
12072WAT      O36457   6.239   3.448   4.327
12072WAT     H136458   6.228   3.364   4.378
12072WAT     H236459   6.153   3.469   4.278
12073WAT      O36460   7.071   0.241   8.863
12073WAT     H136461   7.093   0.144   8.859
12073WAT     H236462   7.078   0.281   8.772
12074WAT      O36463   1.370   8.769   8.637
12074WAT     H136464   1.271   8.767   8.623
12074WAT     H236465   1.408   8.851   8.594
12075WAT      O36466   6.394   7.486   8.703
12075WAT     H136467   6.482   7.474   8.749
12075WAT     H236468   6.406   7.546   8.624
12076WAT      O36469   0.908   5.086   8.821
12076WAT     H136470   0.997   5.073   8.778
12076WAT     H236471   0.920   5.094   8.920
12077WAT      O36472   9.647   2.602   0.354
12077WAT     H136473   9.744   2.579   0.345
12077WAT     H236474   9.609   2.555   0.434
12078WAT      O36475   3.602   4.442   3.292
12078WAT     H136476   3.513   4.482   3.315
12078WAT     H236477   3.612   4.354   3.339
12079WAT      O36478   5.158   1.416   6.373
12079WAT     H136479   5.111   1.332   6.344
12079WAT     H236480   5.169   1.476   6.294
12080WAT      O36481   1.557   6.224   2.787
12080WAT     H136482   1.578   6.203   2.692
12080WAT     H236483   1.607   6.161   2.846
12081WAT      O36484   0.831   9.042   8.672
12081WAT     H136485   0.876   9.023   8.585
12081WAT     H236486   0.732   9.025   8.663
12082WAT      O36487   6.537   0.999   0.062
12082WAT     H136488   6.460   1.059   0.085
12082WAT     H236489   6.516   0.905   0.089
12083WAT      O36490   8.790   6.302   9.293
12083WAT     H136491   8.774   6.372   9.363
12083WAT     H236492   8.732   6.223   9.310
12084WAT      O36493   8.780   0.908   5.810
12084WAT     H136494   8.785   0.858   5.896
12084WAT     H236495   8.728   0.855   5.744
12085WAT      O36496   5.265   0.381   5.017
12085WAT     H136497   5.178   0.408   5.058
12085WAT     H236498   5.335   0.371   5.088
12086WAT      O36499   5.754   7.078   4.564
12086WAT     H136500   5.669   7.054   4.516
12086WAT     H236501   5.829   7.081   4.498
12087WAT      O36502   0.248   9.808   5.280
12087WAT     H136503   0.286   9.899   5.264
12087WAT     H236504   0.178   9.788   5.211
12088WAT      O36505   1.962   9.413   8.416
12088WAT     H136506   1.889   9.475   8.443
12088WAT     H236507   2.003   9.372   8.498
12089WAT      O36508   7.417   3.578   2.788
12089WAT     H136509   7.412   3.515   2.710
12089WAT     H236510   7.324   3.601   2.818
12090WAT      O36511   5.867   4.324   2.897
12090WAT     H136512   5.801   4.398   2.914
12090WAT     H236513   5.828   4.237   2.929
12091WAT      O36514   0.509   9.549   1.282
12091WAT     H136515   0.590   9.564   1.338
12091WAT     H236516   0.470   9.459   1.302
12092WAT      O36517   8.350   5.555   0.787
12092WAT     H136518   8.436   5.540   0.739
12092WAT     H236519   8.344   5.492   0.865
12093WAT      O36520   9.828   7.649   1.033
12093WAT     H136521   9.865   7.730   1.078
12093WAT     H236522   9.729   7.649   1.040
12094WAT      O36523   5.450   5.339   8.546
12094WAT     H136524   5.523   5.277   8.517
12094WAT     H236525   5.490   5.421   8.586
12095WAT      O36526   1.412   0.213   6.082
12095WAT     H136527   1.465   0.141   6.127
12095WAT     H236528   1.397   0.288   6.145
12096WAT      O36529   4.165   6.228   0.406
12096WAT     H136530   4.171   6.131   0.383
12096WAT     H236531   4.210   6.283   0.335
12097WAT      O36532   4.951   8.558   5.970
12097WAT     H136533   4.943   8.536   5.873
12097WAT     H236534   5.002   8.486   6.017
12098WAT      O36535   8.130   8.789   3.172
12098WAT     H136536   8.187   8.786   3.254
12098WAT     H236537   8.128   8.698   3.129
12099WAT      O36538   9.483   9.483   5.280
12099WAT     H136539   9.544   9.557   5.310
12099WAT     H236540   9.390   9.519   5.272
12100WAT      O36541   4.533   5.352   6.602
12100WAT     H136542   4.440   5.379   6.579
12100WAT     H236543   4.591   5.434   6.605
12101WAT      O36544   8.866   8.757   7.832
12101WAT     H136545   8.902   8.670   7.866
12101WAT     H236546   8.939   8.825   7.835
12102WAT      O36547   2.670   3.093   2.420
12102WAT     H136548   2.706   3.166   2.478
12102WAT     H236549   2.573   3.080   2.440
12103WAT      O36550   1.412   0.279   4.270
12103WAT     H136551   1.452   0.235   4.351
12103WAT     H236552   1.467   0.358   4.244
12104WAT      O36553   4.774   4.550   9.051
12104WAT     H136554   4.737   4.549   8.959
12104WAT     H236555   4.811   4.641   9.071
12105WAT      O36556   9.010   6.545   9.822
12105WAT     H136557   9.060   6.462   9.798
12105WAT     H236558   8.912   6.525   9.829
12106WAT      O36559   3.072   3.040   2.961
12106WAT     H136560   3.004   3.038   3.034
12106WAT     H236561   3.057   2.963   2.899
12107WAT      O36562   7.517   3.814   3.801
12107WAT     H136563   7.516   3.719   3.769
12107WAT     H236564   7.427   3.855   3.787
12108WAT      O36565   0.868   5.455   6.155
12108WAT     H136566   0.957   5.486   6.122
12108WAT     H236567   0.874   5.358   6.179
12109WAT      O36568   9.008   6.799   7.853
12109WAT     H136569   9.095   6.788   7.902
12109WAT     H236570   8.974   6.709   7.826
12110WAT      O36571   7.494   5.769   8.119
12110WAT     H136572   7.500   5.801   8.214
12110WAT     H236573   7.456   5.842   8.062
12111WAT      O36574   8.887   3.295   1.698
12111WAT     H136575   8.796   3.274   1.663
12111WAT     H236576   8.881   3.359   1.774
12112WAT      O36577   4.119   5.046   4.674
12112WAT     H136578   4.056   5.102   4.727
12112WAT     H236579   4.068   4.989   4.610
12113WAT      O36580   0.985   7.007   8.618
12113WAT     H136581   1.066   6.965   8.578
12113WAT     H236582   1.013   7.072   8.688
12114WAT      O36583   3.908   8.829   0.588
12114WAT     H136584   3.939   8.910   0.637
12114WAT     H236585   3.912   8.749   0.648
12115WAT      O36586   4.121   3.587   0.942
12115WAT     H136587   4.166   3.662   0.893
12115WAT     H236588   4.108   3.613   1.038
12116WAT      O36589   5.782   6.296   2.624
12116WAT     H136590   5.696   6.317   2.671
12116WAT     H236591   5.763   6.237   2.545
12117WAT      O36592   0.756   1.233   7.846
12117WAT     H136593   0.696   1.244   7.925
12117WAT     H236594   0.789   1.138   7.843
12118WAT      O36595   2.083   4.353   0.282
12118WAT     H136596   2.100   4.283   0.352
12118WAT     H236597   2.000   4.331   0.232
12119WAT      O36598   2.394   5.976   1.227
12119WAT     H136599   2.351   5.932   1.306
12119WAT     H236600   2.424   6.068   1.253
12120WAT      O36601   0.066   2.018   3.023
12120WAT     H136602  -0.021   2.060   3.048
12120WAT     H236603   0.094   2.053   2.933
12121WAT      O36604   1.741   4.304   4.620
12121WAT     H136605   1.836   4.276   4.610
12121WAT     H236606   1.735   4.382   4.682
12122WAT      O36607   6.808   1.330   0.985
12122WAT     H136608   6.901   1.316   1.020
12122WAT     H236609   6.810   1.397   0.911
12123WAT      O36610   7.772   7.473   0.358
12123WAT     H136611   7.803   7.550   0.414
12123WAT     H236612   7.802   7.387   0.399
12124WAT      O36613   8.584   7.060   3.787
12124WAT     H136614   8.530   7.140   3.815
12124WAT     H236615   8.528   6.978   3.794
12125WAT      O36616   5.198   3.652   7.641
12125WAT     H136617   5.145   3.648   7.726
12125WAT     H236618   5.281   3.705   7.655
12126WAT      O36619   1.475   0.352   2.297
12126WAT     H136620   1.534   0.271   2.302
12126WAT     H236621   1.393   0.336   2.352
12127WAT      O36622   8.720   5.028   0.442
12127WAT     H136623   8.809   5.053   0.403
12127WAT     H236624   8.655   5.102   0.427
12128WAT      O36625   7.398   8.988   1.613
12128WAT     H136626   7.341   8.982   1.694
12128WAT     H236627   7.342   9.016   1.534
12129WAT      O36628   6.452   9.004   1.406
12129WAT     H136629   6.457   8.905   1.396
12129WAT     H236630   6.496   9.031   1.492
12130WAT      O36631   6.127   1.981   3.851
12130WAT     H136632   6.189   1.956   3.926
12130WAT     H236633   6.124   1.906   3.784
12131WAT      O36634   5.075   9.494   4.708
12131WAT     H136635   5.052   9.432   4.784
12131WAT     H236636   5.031   9.583   4.724
12132WAT      O36637   4.973   1.001   3.493
12132WAT     H136638   5.001   1.028   3.401
12132WAT     H236639   4.873   1.001   3.499
12133WAT      O36640   5.863   2.453   3.241
12133WAT     H136641   5.824   2.456   3.333
12133WAT     H236642   5.804   2.398   3.181
12134WAT      O36643   6.826   1.239   0.372
12134WAT     H136644   6.839   1.311   0.441
12134WAT     H236645   6.838   1.278   0.281
12135WAT      O36646   0.292   5.767   5.571
12135WAT     H136647   0.330   5.676   5.587
12135WAT     H236648   0.242   5.797   5.652
12136WAT      O36649   0.612   0.809   1.673
12136WAT     H136650   0.564   0.838   1.756
12136WAT     H236651   0.580   0.862   1.595
12137WAT      O36652   2.243   7.145   0.977
12137WAT     H136653   2.307   7.216   1.006
12137WAT     H236654   2.254   7.127   0.880
12138WAT      O36655   5.542   6.798   0.106
12138WAT     H136656   5.636   6.765   0.112
12138WAT     H236657   5.535   6.865   0.032
12139WAT      O36658   7.019   2.906   2.330
12139WAT     H136659   7.014   2.983   2.267
12139WAT     H236660   7.068   2.934   2.413
12140WAT      O36661   5.944   0.964   1.907
12140WAT     H136662   6.009   0.958   1.983
12140WAT     H236663   5.907   0.874   1.888
12141WAT      O36664   0.390   3.889   7.971
12141WAT     H136665   0.408   3.955   8.044
12141WAT     H236666   0.475   3.842   7.947
12142WAT      O36667   6.199   9.247   5.278
12142WAT     H136668   6.236   9.311   5.345
12142WAT     H236669   6.221   9.279   5.186
12143WAT      O36670   4.199   7.695   3.615
12143WAT     H136671   4.116   7.660   3.658
12143WAT     H236672   4.277   7.680   3.677
12144WAT      O36673   4.783   8.755   6.316
12144WAT     H136674   4.767   8.768   6.218
12144WAT     H236675   4.879   8.768   6.337
12145WAT      O36676   4.273   2.667   5.097
12145WAT     H136677   4.312   2.683   5.188
12145WAT     H236678   4.278   2.752   5.044
12146WAT      O36679   2.285   4.445   8.511
12146WAT     H136680   2.331   4.534   8.510
12146WAT     H236681   2.195   4.453   8.469
12147WAT      O36682   6.100   0.128   8.197
12147WAT     H136683   6.130   0.183   8.275
12147WAT     H236684   6.094   0.032   8.224
12148WAT      O36685   3.603   4.766   4.397
12148WAT     H136686   3.698   4.779   4.369
12148WAT     H236687   3.543   4.823   4.341
12149WAT      O36688   5.749   6.625   2.591
12149WAT     H136689   5.835   6.574   2.590
12149WAT     H236690   5.675   6.566   2.622
12150WAT      O36691   6.593   3.962   4.481
12150WAT     H136692   6.603   3.863   4.489
12150WAT     H236693   6.657   4.007   4.543
12151WAT      O36694   5.041   9.338   1.999
12151WAT     H136695   5.113   9.272   2.019
12151WAT     H236696   4.993   9.310   1.915
12152WAT      O36697   8.536   4.605   5.655
12152WAT     H136698   8.488   4.659   5.585
12152WAT     H236699   8.596   4.538   5.610
12153WAT      O36700   0.691   7.362   9.179
12153WAT     H136701   0.652   7.281   9.224
12153WAT     H236702   0.647   7.374   9.089
12154WAT      O36703   2.005   5.370   0.138
12154WAT     H136704   1.937   5.443   0.133
12154WAT     H236705   2.046   5.357   0.048
12155WAT      O36706   4.260   8.628   4.886
12155WAT     H136707   4.226   8.553   4.943
12155WAT     H236708   4.183   8.681   4.851
12156WAT      O36709   2.510   5.407   1.674
12156WAT     H136710   2.514   5.333   1.607
12156WAT     H236711   2.463   5.375   1.756
12157WAT      O36712   5.165   1.442   8.396
12157WAT     H136713   5.094   1.494   8.443
12157WAT     H236714   5.127   1.357   8.362
12158WAT      O36715   6.844   3.040   7.591
12158WAT     H136716   6.895   3.000   7.667
12158WAT     H236717   6.747   3.018   7.601
12159WAT      O36718   1.679   6.213   4.904
12159WAT     H136719   1.672   6.231   4.806
12159WAT     H236720   1.599   6.251   4.951
12160WAT      O36721   2.976   4.998   9.088
12160WAT     H136722   3.049   4.936   9.059
12160WAT     H236723   3.008   5.093   9.078
12161WAT      O36724   2.453   7.236   4.299
12161WAT     H136725   2.389   7.291   4.352
12161WAT     H236726   2.529   7.207   4.357
12162WAT      O36727   5.644   0.193   5.556
12162WAT     H136728   5.736   0.202   5.518
12162WAT     H236729   5.590   0.133   5.498
12163WAT      O36730   6.690   8.822   0.692
12163WAT     H136731   6.643   8.893   0.640
12163WAT     H236732   6.641   8.736   0.683
12164WAT      O36733   6.853   8.159   2.103
12164WAT     H136734   6.771   8.172   2.046
12164WAT     H236735   6.931   8.138   2.044
12165WAT      O36736   1.310   6.184   6.772
12165WAT     H136737   1.233   6.235   6.812
12165WAT     H236738   1.395   6.233   6.791
12166WAT      O36739   3.984   8.678   5.711
12166WAT     H136740   3.898   8.662   5.758
12166WAT     H236741   4.034   8.751   5.757
12167WAT      O36742   2.117   7.808   6.218
12167WAT     H136743   2.094   7.892   6.267
12167WAT     H236744   2.131   7.734   6.284
12168WAT      O36745   6.832   2.152   6.197
12168WAT     H136746   6.856   2.063   6.157
12168WAT     H236747   6.745   2.183   6.161
12169WAT      O36748   3.179   2.402   5.593
12169WAT     H136749   3.153   2.458   5.672
12169WAT     H236750   3.097   2.360   5.555
12170WAT      O36751   5.609   8.181   9.804
12170WAT     H136752   5.573   8.155   9.893
12170WAT     H236753   5.535   8.184   9.737
12171WAT      O36754   6.797   4.123   2.557
12171WAT     H136755   6.835   4.042   2.512
12171WAT     H236756   6.698   4.111   2.568
12172WAT      O36757   6.546   7.737   1.818
12172WAT     H136758   6.498   7.804   1.873
12172WAT     H236759   6.634   7.775   1.788
12173WAT      O36760   5.702   5.353   4.248
12173WAT     H136761   5.606   5.356   4.221
12173WAT     H236762   5.732   5.257   4.251
12174WAT      O36763   5.082   7.838   9.148
12174WAT     H136764   5.087   7.822   9.246
12174WAT     H236765   4.998   7.795   9.112
12175WAT      O36766   5.914   6.234   7.443
12175WAT     H136767   5.817   6.229   7.418
12175WAT     H236768   5.959   6.305   7.389
12176WAT      O36769   7.419   3.649   0.109
12176WAT     H136770   7.410   3.551   0.127
12176WAT     H236771   7.328   3.690   0.101
12177WAT      O36772   7.671   5.275   3.421
12177WAT     H136773   7.629   5.223   3.347
12177WAT     H236774   7.711   5.359   3.384
12178WAT      O36775   8.891   1.040   8.367
12178WAT     H136776   8.872   1.133   8.399
12178WAT     H236777   8.832   0.975   8.415
12179WAT      O36778   6.412   1.541   0.895
12179WAT     H136779   6.437   1.501   0.807
12179WAT     H236780   6.430   1.475   0.968
12180WAT      O36781   1.111   0.467   6.940
12180WAT     H136782   1.062   0.554   6.950
12180WAT     H236783   1.188   0.465   7.003
12181WAT      O36784   0.809   0.769   8.749
12181WAT     H136785   0.743   0.716   8.803
12181WAT     H236786   0.875   0.707   8.707
12182WAT      O36787   3.567   5.995   8.118
12182WAT     H136788   3.489   6.048   8.085
12182WAT     H236789   3.636   6.057   8.154
12183WAT      O36790   4.654   1.014   2.570
12183WAT     H136791   4.696   1.099   2.601
12183WAT     H236792   4.694   0.987   2.483
12184WAT      O36793   6.727   7.408   0.202
12184WAT     H136794   6.695   7.479   0.266
12184WAT     H236795   6.827   7.411   0.197
12185WAT      O36796   5.131   4.823   7.967
12185WAT     H136797   5.187   4.771   7.902
12185WAT     H236798   5.046   4.773   7.984
12186WAT      O36799   7.082   5.541   2.624
12186WAT     H136800   7.021   5.593   2.565
12186WAT     H236801   7.095   5.449   2.587
12187WAT      O36802   2.701   1.493   4.252
12187WAT     H136803   2.631   1.422   4.246
12187WAT     H236804   2.661   1.577   4.288
12188WAT      O36805   7.386   9.238   2.802
12188WAT     H136806   7.362   9.331   2.773
12188WAT     H236807   7.304   9.191   2.835
12189WAT      O36808   2.176   5.946   7.605
12189WAT     H136809   2.231   5.863   7.616
12189WAT     H236810   2.171   5.970   7.508
12190WAT      O36811   4.445   2.207   2.466
12190WAT     H136812   4.514   2.143   2.499
12190WAT     H236813   4.490   2.289   2.431
12191WAT      O36814   5.989   7.717   2.874
12191WAT     H136815   5.892   7.701   2.891
12191WAT     H236816   6.024   7.783   2.940
12192WAT      O36817   1.687   1.244   9.190
12192WAT     H136818   1.738   1.330   9.184
12192WAT     H236819   1.745   1.169   9.161
12193WAT      O36820   5.936   1.706   2.744
12193WAT     H136821   5.922   1.758   2.660
12193WAT     H236822   5.873   1.628   2.744
12194WAT      O36823   7.674   6.801   5.537
12194WAT     H136824   7.687   6.867   5.463
12194WAT     H236825   7.644   6.714   5.498
12195WAT      O36826   7.236   9.042   0.547
12195WAT     H136827   7.325   9.034   0.592
12195WAT     H236828   7.191   8.952   0.544
12196WAT      O36829   8.978   6.783   7.050
12196WAT     H136830   9.045   6.734   7.105
12196WAT     H236831   8.892   6.791   7.102
12197WAT      O36832   8.995   8.016   7.525
12197WAT     H136833   8.955   8.091   7.472
12197WAT     H236834   8.952   7.930   7.499
12198WAT      O36835   8.759   9.374   1.442
12198WAT     H136836   8.737   9.280   1.416
12198WAT     H236837   8.678   9.432   1.429
12199WAT      O36838   8.835   7.317   0.000
12199WAT     H136839   8.762   7.385   0.001
12199WAT     H236840   8.810   7.240   0.059
12200WAT      O36841   1.369   3.885   0.519
12200WAT     H136842   1.423   3.953   0.469
12200WAT     H236843   1.426   3.804   0.535
12201WAT      O36844   8.594   6.968   6.174
12201WAT     H136845   8.587   6.917   6.259
12201WAT     H236846   8.650   7.050   6.189
12202WAT      O36847   1.429   5.978   2.408
12202WAT     H136848   1.362   5.968   2.482
12202WAT     H236849   1.385   5.958   2.320
12203WAT      O36850   1.156   6.919   9.328
12203WAT     H136851   1.242   6.962   9.302
12203WAT     H236852   1.084   6.989   9.333
12204WAT      O36853   6.773   1.971   9.107
12204WAT     H136854   6.689   2.000   9.060
12204WAT     H236855   6.754   1.892   9.164
12205WAT      O36856   6.858   8.534   8.243
12205WAT     H136857   6.894   8.597   8.174
12205WAT     H236858   6.928   8.467   8.266
12206WAT      O36859   6.180   7.986   2.738
12206WAT     H136860   6.265   7.946   2.771
12206WAT     H236861   6.136   7.924   2.674
12207WAT      O36862   8.984   7.011   5.833
12207WAT     H136863   8.914   6.961   5.884
12207WAT     H236864   9.024   7.081   5.891
12208WAT      O36865   2.402   1.157   1.309
12208WAT     H136866   2.320   1.189   1.356
12208WAT     H236867   2.406   1.197   1.217
12209WAT      O36868   8.234   5.505   4.818
12209WAT     H136869   8.187   5.562   4.751
12209WAT     H236870   8.288   5.434   4.771
12210WAT      O36871   3.639   6.500   0.119
12210WAT     H136872   3.676   6.590   0.098
12210WAT     H236873   3.607   6.456   0.035
12211WAT      O36874   6.547   7.008   4.410
12211WAT     H136875   6.603   6.928   4.388
12211WAT     H236876   6.520   7.054   4.325
12212WAT      O36877   4.029   2.615   0.956
12212WAT     H136878   4.092   2.540   0.976
12212WAT     H236879   4.080   2.701   0.949
12213WAT      O36880   1.028   4.818   7.732
12213WAT     H136881   0.935   4.782   7.730
12213WAT     H236882   1.071   4.796   7.819
12214WAT      O36883   5.461   7.805   2.579
12214WAT     H136884   5.532   7.875   2.587
12214WAT     H236885   5.496   7.719   2.616
12215WAT      O36886   6.272   2.650   6.717
12215WAT     H136887   6.340   2.704   6.667
12215WAT     H236888   6.181   2.666   6.679
12216WAT      O36889   2.089   3.672   8.170
12216WAT     H136890   2.116   3.646   8.262
12216WAT     H236891   2.032   3.754   8.173
12217WAT      O36892   8.853   0.476   9.038
12217WAT     H136893   8.856   0.538   9.117
12217WAT     H236894   8.946   0.455   9.009
12218WAT      O36895   5.159   2.049   9.410
12218WAT     H136896   5.090   1.993   9.458
12218WAT     H236897   5.233   2.071   9.473
12219WAT      O36898   9.631   9.163   1.568
12219WAT     H136899   9.684   9.078   1.562
12219WAT     H236900   9.681   9.229   1.623
12220WAT      O36901   9.746   7.185   7.933
12220WAT     H136902   9.725   7.239   7.851
12220WAT     H236903   9.661   7.163   7.981
12221WAT      O36904   7.520   0.678   3.060
12221WAT     H136905   7.490   0.740   3.132
12221WAT     H236906   7.613   0.701   3.032
12222WAT      O36907   5.514   8.337   9.150
12222WAT     H136908   5.509   8.247   9.105
12222WAT     H236909   5.529   8.324   9.248
12223WAT      O36910   9.042   8.484   4.477
12223WAT     H136911   9.114   8.415   4.484
12223WAT     H236912   8.973   8.468   4.547
12224WAT      O36913   1.883   8.440   6.224
12224WAT     H136914   1.951   8.432   6.297
12224WAT     H236915   1.866   8.350   6.184
12225WAT      O36916   3.687   4.048   4.891
12225WAT     H136917   3.609   3.987   4.904
12225WAT     H236918   3.665   4.138   4.928
12226WAT      O36919   6.013   7.275   9.267
12226WAT     H136920   5.957   7.276   9.185
12226WAT     H236921   5.977   7.207   9.331
12227WAT      O36922   8.110   5.458   5.840
12227WAT     H136923   8.123   5.360   5.856
12227WAT     H236924   8.189   5.494   5.791
12228WAT      O36925   1.664   2.142   3.765
12228WAT     H136926   1.745   2.082   3.770
12228WAT     H236927   1.694   2.237   3.764
12229WAT      O36928   4.978   7.844   1.473
12229WAT     H136929   4.901   7.782   1.456
12229WAT     H236930   5.038   7.846   1.393
12230WAT      O36931   1.886   4.117   6.393
12230WAT     H136932   1.912   4.028   6.355
12230WAT     H236933   1.953   4.143   6.462
12231WAT      O36934   1.141   4.538   2.616
12231WAT     H136935   1.203   4.472   2.573
12231WAT     H236936   1.053   4.536   2.569
12232WAT      O36937   8.277   1.283   9.032
12232WAT     H136938   8.202   1.218   9.044
12232WAT     H236939   8.342   1.275   9.107
12233WAT      O36940   0.459   4.770   8.172
12233WAT     H136941   0.442   4.679   8.210
12233WAT     H236942   0.484   4.762   8.076
12234WAT      O36943   2.306   6.928   6.712
12234WAT     H136944   2.373   7.001   6.726
12234WAT     H236945   2.214   6.966   6.720
12235WAT      O36946   2.672   1.922   5.567
12235WAT     H136947   2.642   1.865   5.643
12235WAT     H236948   2.635   2.015   5.578
12236WAT      O36949   2.531   5.097   2.877
12236WAT     H136950   2.526   5.051   2.788
12236WAT     H236951   2.580   5.184   2.867
12237WAT      O36952   3.465   8.737   1.010
12237WAT     H136953   3.528   8.753   0.934
12237WAT     H236954   3.498   8.786   1.091
12238WAT      O36955   8.754   9.354   2.662
12238WAT     H136956   8.739   9.371   2.565
12238WAT     H236957   8.808   9.429   2.701
12239WAT      O36958   1.035   0.799   0.327
12239WAT     H136959   0.952   0.763   0.285
12239WAT     H236960   1.020   0.894   0.356
12240WAT      O36961   9.777   8.999   7.783
12240WAT     H136962   9.727   8.916   7.760
12240WAT     H236963   9.749   9.073   7.722
12241WAT      O36964   1.017   7.999   0.339
12241WAT     H136965   1.086   7.960   0.278
12241WAT     H236966   1.055   8.008   0.431
12242WAT      O36967   1.664   1.885   3.975
12242WAT     H136968   1.751   1.837   3.972
12242WAT     H236969   1.630   1.886   4.070
12243WAT      O36970   5.340   1.099   3.263
12243WAT     H136971   5.349   1.135   3.170
12243WAT     H236972   5.245   1.075   3.280
12244WAT      O36973   9.388   1.536   2.293
12244WAT     H136974   9.397   1.513   2.196
12244WAT     H236975   9.429   1.625   2.310
12245WAT      O36976   8.495   5.238   3.486
12245WAT     H136977   8.572   5.181   3.458
12245WAT     H236978   8.491   5.243   3.586
12246WAT      O36979   8.946   6.351   1.236
12246WAT     H136980   9.006   6.428   1.213
12246WAT     H236981   8.925   6.299   1.153
12247WAT      O36982   3.338   9.610   5.400
12247WAT     H136983   3.284   9.574   5.324
12247WAT     H236984   3.355   9.537   5.466
12248WAT      O36985   3.815   4.255   1.033
12248WAT     H136986   3.783   4.164   1.061
12248WAT     H236987   3.883   4.288   1.098
12249WAT      O36988   2.117   8.054   3.008
12249WAT     H136989   2.127   8.123   3.080
12249WAT     H236990   2.082   8.097   2.925
12250WAT      O36991   0.583   3.023   9.347
12250WAT     H136992   0.549   2.933   9.321
12250WAT     H236993   0.682   3.018   9.364
12251WAT      O36994   2.273   9.430   8.565
12251WAT     H136995   2.210   9.358   8.592
12251WAT     H236996   2.268   9.445   8.467
12252WAT      O36997   4.913   1.286   4.619
12252WAT     H136998   4.860   1.362   4.580
12252WAT     H236999   4.856   1.235   4.683
12253WAT      O37000   4.676   4.309   1.135
12253WAT     H137001   4.613   4.264   1.198
12253WAT     H237002   4.739   4.241   1.097
12254WAT      O37003   5.192   9.631   3.782
12254WAT     H137004   5.194   9.567   3.858
12254WAT     H237005   5.280   9.629   3.734
12255WAT      O37006   8.406   6.219   6.393
12255WAT     H137007   8.340   6.200   6.465
12255WAT     H237008   8.425   6.134   6.343
12256WAT      O37009   3.279   3.613   3.071
12256WAT     H137010   3.358   3.652   3.023
12256WAT     H237011   3.300   3.607   3.169
12257WAT      O37012   5.797   0.312   3.966
12257WAT     H137013   5.781   0.237   4.031
12257WAT     H237014   5.720   0.317   3.902
12258WAT      O37015   8.583   0.413   4.162
12258WAT     H137016   8.652   0.431   4.232
12258WAT     H237017   8.566   0.497   4.110
12259WAT      O37018   2.919   6.199   0.168
12259WAT     H137019   2.969   6.270   0.218
12259WAT     H237020   2.983   6.128   0.139
12260WAT      O37021   6.876   1.559   1.522
12260WAT     H137022   6.873   1.645   1.571
12260WAT     H237023   6.866   1.576   1.424
12261WAT      O37024   6.558   1.562   0.297
12261WAT     H137025   6.656   1.580   0.294
12261WAT     H237026   6.529   1.521   0.211
12262WAT      O37027   2.282   3.280   4.257
12262WAT     H137028   2.183   3.274   4.243
12262WAT     H237029   2.313   3.203   4.314
12263WAT      O37030   5.655   6.499   8.101
12263WAT     H137031   5.557   6.500   8.118
12263WAT     H237032   5.703   6.501   8.189
12264WAT      O37033   0.417   1.624   3.949
12264WAT     H137034   0.349   1.633   4.022
12264WAT     H237035   0.418   1.708   3.895
12265WAT      O37036   4.703   8.295   6.298
12265WAT     H137037   4.803   8.293   6.307
12265WAT     H237038   4.666   8.208   6.331
12266WAT      O37039   1.869   8.222   5.281
12266WAT     H137040   1.915   8.218   5.369
12266WAT     H237041   1.781   8.174   5.286
12267WAT      O37042   6.257   0.041   2.005
12267WAT     H137043   6.215   0.085   1.926
12267WAT     H237044   6.230   0.088   2.088
12268WAT      O37045   6.613   6.359   3.198
12268WAT     H137046   6.624   6.442   3.253
12268WAT     H237047   6.700   6.337   3.153
12269WAT      O37048   9.390   7.383   4.418
12269WAT     H137049   9.440   7.322   4.358
12269WAT     H237050   9.454   7.435   4.474
12270WAT      O37051   5.767   2.057   8.938
12270WAT     H137052   5.714   2.141   8.925
12270WAT     H237053   5.707   1.978   8.929
12271WAT      O37054   6.489   6.241   8.160
12271WAT     H137055   6.536   6.309   8.217
12271WAT     H237056   6.399   6.277   8.134
12272WAT      O37057   6.092   1.772   9.623
12272WAT     H137058   6.057   1.716   9.549
12272WAT     H237059   6.040   1.753   9.707
12273WAT      O37060   6.982   7.633   4.494
12273WAT     H137061   6.987   7.717   4.441
12273WAT     H237062   6.910   7.574   4.457
12274WAT      O37063   5.592   4.734   0.019
12274WAT     H137064   5.542   4.709  -0.064
12274WAT     H237065   5.537   4.712   0.100
12275WAT      O37066   5.030   9.769   4.770
12275WAT     H137067   4.963   9.834   4.734
12275WAT     H237068   5.120   9.811   4.772
12276WAT      O37069   4.405   2.795   3.320
12276WAT     H137070   4.470   2.851   3.269
12276WAT     H237071   4.362   2.850   3.391
12277WAT      O37072   9.049   3.756   1.463
12277WAT     H137073   9.025   3.669   1.506
12277WAT     H237074   9.131   3.744   1.407
12278WAT      O37075   3.336   6.261   0.094
12278WAT     H137076   3.325   6.340   0.154
12278WAT     H237077   3.400   6.196   0.135
12279WAT      O37078   0.769   4.913   0.383
12279WAT     H137079   0.838   4.842   0.368
12279WAT     H237080   0.759   4.929   0.481
12280WAT      O37081   8.407   2.916   2.419
12280WAT     H137082   8.443   2.852   2.486
12280WAT     H237083   8.403   2.872   2.329
12281WAT      O37084   5.009   1.069   1.658
12281WAT     H137085   5.023   1.122   1.742
12281WAT     H237086   4.963   0.984   1.681
12282WAT      O37087   3.689   9.344   5.945
12282WAT     H137088   3.592   9.367   5.955
12282WAT     H237089   3.741   9.427   5.925
12283WAT      O37090   2.021   9.600   0.169
12283WAT     H137091   2.051   9.510   0.199
12283WAT     H237092   2.097   9.647   0.124
12284WAT      O37093   2.371   4.217   6.021
12284WAT     H137094   2.374   4.121   5.992
12284WAT     H237095   2.312   4.225   6.101
12285WAT      O37096   2.004   8.760   3.993
12285WAT     H137097   1.941   8.834   4.020
12285WAT     H237098   2.096   8.798   3.982
12286WAT      O37099   9.567   8.722   7.879
12286WAT     H137100   9.550   8.624   7.877
12286WAT     H237101   9.627   8.748   7.803
12287WAT      O37102   0.530   6.799   4.556
12287WAT     H137103   0.438   6.765   4.536
12287WAT     H237104   0.590   6.721   4.576
12288WAT      O37105   2.107   5.120   5.638
12288WAT     H137106   2.081   5.067   5.557
12288WAT     H237107   2.106   5.059   5.718
12289WAT      O37108   1.937   1.817   6.337
12289WAT     H137109   2.033   1.845   6.341
12289WAT     H237110   1.928   1.733   6.283
12290WAT      O37111   5.104   6.442   2.571
12290WAT     H137112   5.144   6.436   2.663
12290WAT     H237113   5.178   6.453   2.504
12291WAT      O37114   0.448   2.020   0.358
12291WAT     H137115   0.435   1.976   0.447
12291WAT     H237116   0.512   2.097   0.369
12292WAT      O37117   1.519   7.964   4.419
12292WAT     H137118   1.461   7.885   4.397
12292WAT     H237119   1.483   8.045   4.374
12293WAT      O37120   8.112   2.325   8.017
12293WAT     H137121   8.107   2.420   7.986
12293WAT     H237122   8.107   2.264   7.938
12294WAT      O37123   5.070   0.568   6.483
12294WAT     H137124   4.972   0.578   6.467
12294WAT     H237125   5.096   0.472   6.475
12295WAT      O37126   7.015   1.600   8.195
12295WAT     H137127   6.996   1.594   8.293
12295WAT     H237128   6.973   1.522   8.148
12296WAT      O37129   0.066   1.340   8.495
12296WAT     H137130  -0.034   1.338   8.497
12296WAT     H237131   0.102   1.263   8.547
12297WAT      O37132   6.375   3.441   4.939
12297WAT     H137133   6.389   3.494   5.023
12297WAT     H237134   6.276   3.429   4.924
12298WAT      O37135   5.346   1.949   7.352
12298WAT     H137136   5.326   1.871   7.293
12298WAT     H237137   5.444   1.954   7.370
12299WAT      O37138   6.637   6.558   8.625
12299WAT     H137139   6.607   6.463   8.617
12299WAT     H237140   6.732   6.566   8.594
12300WAT      O37141   1.831   3.803   8.576
12300WAT     H137142   1.812   3.705   8.575
12300WAT     H237143   1.909   3.822   8.636
12301WAT      O37144   0.208   5.395   9.204
12301WAT     H137145   0.235   5.477   9.152
12301WAT     H237146   0.218   5.315   9.146
12302WAT      O37147   4.022   4.919   7.556
12302WAT     H137148   4.022   4.959   7.464
12302WAT     H237149   4.091   4.965   7.612
12303WAT      O37150   4.103   8.313   5.843
12303WAT     H137151   4.079   8.316   5.746
12303WAT     H237152   4.049   8.381   5.893
12304WAT      O37153   8.732   5.152   1.525
12304WAT     H137154   8.781   5.086   1.582
12304WAT     H237155   8.672   5.104   1.461
12305WAT      O37156   1.237   8.196   6.779
12305WAT     H137157   1.138   8.197   6.761
12305WAT     H237158   1.259   8.265   6.847
12306WAT      O37159   3.442   6.853   6.104
12306WAT     H137160   3.474   6.770   6.059
12306WAT     H237161   3.493   6.932   6.069
12307WAT      O37162   2.180   5.931   2.376
12307WAT     H137163   2.091   5.920   2.330
12307WAT     H237164   2.225   5.841   2.381
12308WAT      O37165   7.675   6.046   5.822
12308WAT     H137166   7.591   6.093   5.852
12308WAT     H237167   7.684   5.960   5.872
12309WAT      O37168   7.666   6.408   9.408
12309WAT     H137169   7.714   6.331   9.448
12309WAT     H237170   7.730   6.462   9.353
12310WAT      O37171   4.079   9.386   3.237
12310WAT     H137172   4.046   9.480   3.243
12310WAT     H237173   4.156   9.382   3.173
12311WAT      O37174   6.620   5.120   7.080
12311WAT     H137175   6.710   5.162   7.094
12311WAT     H237176   6.631   5.029   7.041
12312WAT      O37177   1.289   2.638   3.281
12312WAT     H137178   1.388   2.628   3.278
12312WAT     H237179   1.254   2.649   3.188
12313WAT      O37180   5.566   3.080   7.224
12313WAT     H137181   5.614   3.018   7.287
12313WAT     H237182   5.468   3.071   7.237
12314WAT      O37183   2.365   7.493   9.572
12314WAT     H137184   2.441   7.479   9.509
12314WAT     H237185   2.352   7.590   9.588
12315WAT      O37186   5.119   9.743   3.432
12315WAT     H137187   5.138   9.742   3.334
12315WAT     H237188   5.197   9.704   3.481
12316WAT      O37189   6.750   4.238   2.018
12316WAT     H137190   6.753   4.307   2.090
12316WAT     H237191   6.798   4.155   2.048
12317WAT      O37192   9.422   3.156   4.360
12317WAT     H137193   9.348   3.219   4.382
12317WAT     H237194   9.391   3.062   4.370
12318WAT      O37195   0.165   0.268   4.255
12318WAT     H137196   0.072   0.272   4.218
12318WAT     H237197   0.229   0.302   4.185
12319WAT      O37198   1.887   3.818   3.753
12319WAT     H137199   1.827   3.746   3.788
12319WAT     H237200   1.836   3.903   3.745
12320WAT      O37201   6.631   1.669   2.433
12320WAT     H137202   6.656   1.584   2.478
12320WAT     H237203   6.708   1.701   2.377
12321WAT      O37204   2.805   4.452   0.764
12321WAT     H137205   2.792   4.387   0.689
12321WAT     H237206   2.795   4.404   0.851
12322WAT      O37207   7.034   3.760   4.086
12322WAT     H137208   6.970   3.789   4.157
12322WAT     H237209   7.109   3.708   4.128
12323WAT      O37210   3.608   0.586   4.301
12323WAT     H137211   3.620   0.514   4.369
12323WAT     H237212   3.613   0.675   4.345
12324WAT      O37213   5.521   0.478   2.149
12324WAT     H137214   5.485   0.391   2.114
12324WAT     H237215   5.560   0.464   2.240
12325WAT      O37216   6.299   3.734   1.907
12325WAT     H137217   6.212   3.745   1.954
12325WAT     H237218   6.352   3.661   1.951
12326WAT      O37219   6.459   1.295   4.641
12326WAT     H137220   6.494   1.319   4.732
12326WAT     H237221   6.474   1.198   4.625
12327WAT      O37222   5.982   5.333   0.135
12327WAT     H137223   5.988   5.238   0.164
12327WAT     H237224   6.012   5.393   0.209
12328WAT      O37225   1.703   7.866   5.751
12328WAT     H137226   1.796   7.829   5.745
12328WAT     H237227   1.651   7.837   5.670
12329WAT      O37228   1.687   3.275   4.435
12329WAT     H137229   1.662   3.236   4.346
12329WAT     H237230   1.604   3.296   4.487
12330WAT      O37231   7.541   6.090   6.560
12330WAT     H137232   7.490   6.054   6.638
12330WAT     H237233   7.509   6.182   6.538
12331WAT      O37234   8.369   2.096   8.030
12331WAT     H137235   8.391   2.126   8.123
12331WAT     H237236   8.328   2.005   8.034
12332WAT      O37237   4.368   0.660   2.265
12332WAT     H137238   4.368   0.589   2.195
12332WAT     H237239   4.366   0.619   2.355
12333WAT      O37240   7.198   0.246   5.096
12333WAT     H137241   7.266   0.210   5.032
12333WAT     H237242   7.214   0.207   5.187
12334WAT      O37243   0.906   8.485   6.515
12334WAT     H137244   0.940   8.565   6.565
12334WAT     H237245   0.984   8.429   6.485
12335WAT      O37246   5.845   9.442   8.480
12335WAT     H137247   5.854   9.507   8.405
12335WAT     H237248   5.759   9.457   8.527
12336WAT      O37249   9.797   4.002   4.334
12336WAT     H137250   9.772   4.098   4.353
12336WAT     H237251   9.874   3.976   4.392
12337WAT      O37252   4.126   9.000   9.641
12337WAT     H137253   4.157   9.035   9.729
12337WAT     H237254   4.204   8.964   9.590
12338WAT      O37255   2.370   0.860   1.845
12338WAT     H137256   2.448   0.846   1.785
12338WAT     H237257   2.332   0.951   1.830
12339WAT      O37258   9.516   5.343   8.867
12339WAT     H137259   9.543   5.376   8.957
12339WAT     H237260   9.428   5.384   8.842
12340WAT      O37261   2.278   9.342   3.702
12340WAT     H137262   2.360   9.394   3.726
12340WAT     H237263   2.208   9.404   3.667
12341WAT      O37264   3.219   8.320   5.988
12341WAT     H137265   3.219   8.410   5.943
12341WAT     H237266   3.305   8.273   5.967
12342WAT      O37267   0.827   8.428   4.126
12342WAT     H137268   0.751   8.401   4.185
12342WAT     H237269   0.882   8.348   4.103
12343WAT      O37270   3.474   9.599   3.629
12343WAT     H137271   3.419   9.525   3.589
12343WAT     H237272   3.560   9.607   3.578
12344WAT      O37273   3.665   6.802   7.674
12344WAT     H137274   3.617   6.803   7.762
12344WAT     H237275   3.726   6.722   7.670
12345WAT      O37276   4.075   6.958   5.578
12345WAT     H137277   4.100   6.862   5.563
12345WAT     H237278   4.031   6.994   5.495
12346WAT      O37279   1.547   4.694   5.108
12346WAT     H137280   1.568   4.729   5.017
12346WAT     H237281   1.576   4.598   5.114
12347WAT      O37282   0.485   5.311   3.682
12347WAT     H137283   0.398   5.361   3.676
12347WAT     H237284   0.499   5.259   3.598
12348WAT      O37285   6.351   6.462   8.502
12348WAT     H137286   6.376   6.541   8.558
12348WAT     H237287   6.340   6.382   8.561
12349WAT      O37288   8.820   2.827   1.047
12349WAT     H137289   8.834   2.856   1.142
12349WAT     H237290   8.878   2.882   0.987
12350WAT      O37291   3.071   2.677   2.049
12350WAT     H137292   3.060   2.762   1.997
12350WAT     H237293   3.069   2.698   2.147
12351WAT      O37294   4.096   2.672   9.035
12351WAT     H137295   4.021   2.606   9.027
12351WAT     H237296   4.059   2.765   9.027
12352WAT      O37297   8.225   5.365   0.955
12352WAT     H137298   8.140   5.417   0.962
12352WAT     H237299   8.275   5.370   1.041
12353WAT      O37300   2.571   3.781   2.502
12353WAT     H137301   2.487   3.778   2.557
12353WAT     H237302   2.560   3.849   2.429
12354WAT      O37303   3.523   3.145   3.253
12354WAT     H137304   3.440   3.184   3.213
12354WAT     H237305   3.601   3.164   3.193
12355WAT      O37306   1.613   7.880   1.130
12355WAT     H137307   1.644   7.791   1.164
12355WAT     H237308   1.515   7.875   1.110
12356WAT      O37309   6.073   1.862   1.641
12356WAT     H137310   6.052   1.764   1.634
12356WAT     H237311   5.987   1.914   1.644
12357WAT      O37312   8.478   2.498   4.992
12357WAT     H137313   8.512   2.545   4.910
12357WAT     H237314   8.393   2.451   4.970
12358WAT      O37315   2.386   0.854   4.370
12358WAT     H137316   2.351   0.913   4.443
12358WAT     H237317   2.436   0.778   4.411
12359WAT      O37318   0.959   4.346   9.068
12359WAT     H137319   0.871   4.303   9.089
12359WAT     H237320   1.033   4.288   9.102
12360WAT      O37321   7.558   3.111   1.367
12360WAT     H137322   7.533   3.188   1.426
12360WAT     H237323   7.480   3.088   1.309
12361WAT      O37324   4.323   0.917   6.432
12361WAT     H137325   4.405   0.865   6.408
12361WAT     H237326   4.277   0.948   6.349
12362WAT      O37327   3.722   7.045   6.113
12362WAT     H137328   3.744   6.967   6.172
12362WAT     H237329   3.694   7.011   6.023
12363WAT      O37330   8.788   4.334   8.053
12363WAT     H137331   8.859   4.361   7.988
12363WAT     H237332   8.759   4.240   8.033
12364WAT      O37333   7.049   6.902   4.251
12364WAT     H137334   7.077   6.839   4.179
12364WAT     H237335   7.125   6.916   4.315
12365WAT      O37336   0.257   7.860   6.338
12365WAT     H137337   0.198   7.940   6.348
12365WAT     H237338   0.217   7.782   6.385
12366WAT      O37339   6.488   2.174   6.852
12366WAT     H137340   6.398   2.216   6.861
12366WAT     H237341   6.509   2.122   6.935
12367WAT      O37342   7.153   6.582   0.038
12367WAT     H137343   7.103   6.510   0.087
12367WAT     H237344   7.110   6.598  -0.051
12368WAT      O37345   0.410   8.121   0.028
12368WAT     H137346   0.436   8.098  -0.066
12368WAT     H237347   0.353   8.048   0.065
12369WAT      O37348   9.874   0.609   5.558
12369WAT     H137349   9.831   0.668   5.490
12369WAT     H237350   9.812   0.534   5.581
12370WAT      O37351   6.834   7.864   6.125
12370WAT     H137352   6.769   7.818   6.064
12370WAT     H237353   6.839   7.814   6.212
12371WAT      O37354   9.144   7.689   6.049
12371WAT     H137355   9.159   7.655   6.141
12371WAT     H237356   9.129   7.788   6.052
12372WAT      O37357   0.845   7.330   0.406
12372WAT     H137358   0.878   7.350   0.313
12372WAT     H237359   0.854   7.232   0.424
12373WAT      O37360   0.350   6.760   1.015
12373WAT     H137361   0.256   6.731   0.998
12373WAT     H237362   0.400   6.767   0.929
12374WAT      O37363   6.798   8.839   9.278
12374WAT     H137364   6.775   8.877   9.367
12374WAT     H237365   6.797   8.911   9.209
12375WAT      O37366   7.280   9.815   9.591
12375WAT     H137367   7.267   9.833   9.688
12375WAT     H237368   7.193   9.785   9.551
12376WAT      O37369   5.254   8.245   2.639
12376WAT     H137370   5.164   8.203   2.644
12376WAT     H237371   5.262   8.297   2.554
12377WAT      O37372   3.739   0.800   9.224
12377WAT     H137373   3.828   0.755   9.233
12377WAT     H237374   3.751   0.891   9.185
12378WAT      O37375   7.975   6.104   5.105
12378WAT     H137376   7.944   6.181   5.161
12378WAT     H237377   7.923   6.022   5.129
12379WAT      O37378   9.523   2.288   2.059
12379WAT     H137379   9.589   2.225   2.019
12379WAT     H237380   9.439   2.239   2.082
12380WAT      O37381   5.379   9.698   3.560
12380WAT     H137382   5.410   9.606   3.535
12380WAT     H237383   5.447   9.765   3.530
12381WAT      O37384   8.319   7.849   9.164
12381WAT     H137385   8.297   7.784   9.237
12381WAT     H237386   8.374   7.924   9.201
12382WAT      O37387   6.936   3.067   3.115
12382WAT     H137388   6.961   3.031   3.205
12382WAT     H237389   6.866   3.009   3.074
12383WAT      O37390   6.285   9.230   0.664
12383WAT     H137391   6.303   9.139   0.701
12383WAT     H237392   6.239   9.286   0.732
12384WAT      O37393   0.513   3.428   3.838
12384WAT     H137394   0.610   3.424   3.863
12384WAT     H237395   0.461   3.368   3.899
12385WAT      O37396   8.834   2.296   7.473
12385WAT     H137397   8.838   2.200   7.446
12385WAT     H237398   8.774   2.306   7.553
12386WAT      O37399   7.873   0.875   6.224
12386WAT     H137400   7.938   0.942   6.188
12386WAT     H237401   7.921   0.813   6.286
12387WAT      O37402   7.008   0.278   8.298
12387WAT     H137403   7.066   0.346   8.252
12387WAT     H237404   7.017   0.191   8.251
12388WAT      O37405   0.428   9.670   4.892
12388WAT     H137406   0.348   9.700   4.944
12388WAT     H237407   0.414   9.692   4.795
12389WAT      O37408   7.875   8.213   6.103
12389WAT     H137409   7.904   8.124   6.068
12389WAT     H237410   7.873   8.279   6.028
12390WAT      O37411   7.654   1.052   8.481
12390WAT     H137412   7.707   1.097   8.553
12390WAT     H237413   7.702   0.969   8.451
12391WAT      O37414   8.766   7.578   7.061
12391WAT     H137415   8.777   7.590   6.962
12391WAT     H237416   8.669   7.580   7.084
12392WAT      O37417   3.440   6.811   6.573
12392WAT     H137418   3.509   6.739   6.566
12392WAT     H237419   3.389   6.816   6.487
12393WAT      O37420   6.368   1.910   6.441
12393WAT     H137421   6.326   1.830   6.399
12393WAT     H237422   6.456   1.928   6.398
12394WAT      O37423   0.176   1.086   4.671
12394WAT     H137424   0.163   1.107   4.575
12394WAT     H237425   0.233   1.157   4.713
12395WAT      O37426   0.298   9.459   7.605
12395WAT     H137427   0.325   9.507   7.689
12395WAT     H237428   0.224   9.394   7.627
12396WAT      O37429   4.731   4.490   1.520
12396WAT     H137430   4.805   4.512   1.583
12396WAT     H237431   4.729   4.391   1.504
12397WAT      O37432   6.281   0.205   5.934
12397WAT     H137433   6.271   0.220   6.033
12397WAT     H237434   6.200   0.240   5.887
12398WAT      O37435   7.667   7.718   0.620
12398WAT     H137436   7.754   7.696   0.577
12398WAT     H237437   7.664   7.816   0.640
12399WAT      O37438   6.221   4.726   7.031
12399WAT     H137439   6.203   4.641   7.082
12399WAT     H237440   6.291   4.779   7.078
12400WAT      O37441   4.081   0.007   2.457
12400WAT     H137442   4.037  -0.056   2.521
12400WAT     H237443   4.026   0.091   2.450
12401WAT      O37444  -0.005   2.511   0.287
12401WAT     H137445   0.024   2.521   0.193
12401WAT     H237446   0.074   2.522   0.348
12402WAT      O37447   3.752   1.936   8.262
12402WAT     H137448   3.672   1.896   8.308
12402WAT     H237449   3.824   1.867   8.256
12403WAT      O37450   6.529   3.285   3.924
12403WAT     H137451   6.443   3.337   3.920
12403WAT     H237452   6.542   3.237   3.837
12404WAT      O37453   6.469   1.866   1.559
12404WAT     H137454   6.464   1.781   1.611
12404WAT     H237455   6.382   1.915   1.568
12405WAT      O37456   6.445   4.548   0.785
12405WAT     H137457   6.473   4.459   0.821
12405WAT     H237458   6.348   4.544   0.758
12406WAT      O37459   0.557   1.023   4.407
12406WAT     H137460   0.595   0.933   4.427
12406WAT     H237461   0.511   1.021   4.319
12407WAT      O37462   5.445   0.769   4.973
12407WAT     H137463   5.422   0.684   4.925
12407WAT     H237464   5.372   0.835   4.960
12408WAT      O37465   8.264   3.854   1.719
12408WAT     H137466   8.335   3.915   1.684
12408WAT     H237467   8.175   3.885   1.687
12409WAT      O37468   6.286   0.124   0.357
12409WAT     H137469   6.203   0.137   0.412
12409WAT     H237470   6.267   0.062   0.282
12410WAT      O37471   7.448   1.616   3.886
12410WAT     H137472   7.454   1.641   3.790
12410WAT     H237473   7.416   1.522   3.894
12411WAT      O37474   3.652   8.693   6.274
12411WAT     H137475   3.750   8.702   6.288
12411WAT     H237476   3.624   8.748   6.196
12412WAT      O37477   1.276   4.074   4.872
12412WAT     H137478   1.308   3.991   4.826
12412WAT     H237479   1.294   4.067   4.970
12413WAT      O37480   7.968   4.112   1.570
12413WAT     H137481   7.895   4.050   1.599
12413WAT     H237482   8.039   4.059   1.524
12414WAT      O37483   5.167   4.278   2.070
12414WAT     H137484   5.085   4.221   2.075
12414WAT     H237485   5.169   4.340   2.148
12415WAT      O37486   2.851   7.848   5.859
12415WAT     H137487   2.929   7.903   5.886
12415WAT     H237488   2.791   7.902   5.800
12416WAT      O37489   8.409   7.193   5.709
12416WAT     H137490   8.414   7.162   5.804
12416WAT     H237491   8.476   7.266   5.695
12417WAT      O37492   8.519   4.534   4.318
12417WAT     H137493   8.451   4.577   4.378
12417WAT     H237494   8.472   4.475   4.252
12418WAT      O37495   0.451   7.435   4.230
12418WAT     H137496   0.474   7.352   4.179
12418WAT     H237497   0.483   7.425   4.325
12419WAT      O37498   0.570   0.952   8.070
12419WAT     H137499   0.599   0.918   8.160
12419WAT     H237500   0.649   0.953   8.008
12420WAT      O37501   2.468   9.039   9.565
12420WAT     H137502   2.489   8.959   9.510
12420WAT     H237503   2.524   9.116   9.535
12421WAT      O37504   5.998   7.462   4.934
12421WAT     H137505   6.002   7.417   5.023
12421WAT     H237506   5.955   7.401   4.867
12422WAT      O37507   7.520   6.048   4.303
12422WAT     H137508   7.428   6.070   4.335
12422WAT     H237509   7.583   6.120   4.332
12423WAT      O37510   7.972   8.431   1.780
12423WAT     H137511   7.922   8.404   1.862
12423WAT     H237512   8.034   8.506   1.802
12424WAT      O37513   1.149   3.980   6.987
12424WAT     H137514   1.200   3.912   7.041
12424WAT     H237515   1.181   4.071   7.011
12425WAT      O37516   8.617   1.436   4.813
12425WAT     H137517   8.674   1.449   4.894
12425WAT     H237518   8.613   1.339   4.790
12426WAT      O37519   7.081   9.196   1.869
12426WAT     H137520   7.172   9.238   1.874
12426WAT     H237521   7.032   9.234   1.790
12427WAT      O37522   0.246   8.177   5.326
12427WAT     H137523   0.289   8.089   5.304
12427WAT     H237524   0.199   8.170   5.414
12428WAT      O37525   7.813   2.870   0.769
12428WAT     H137526   7.746   2.848   0.698
12428WAT     H237527   7.834   2.787   0.821
12429WAT      O37528   1.471   3.239   8.641
12429WAT     H137529   1.562   3.254   8.602
12429WAT     H237530   1.477   3.238   8.741
12430WAT      O37531   9.203   6.127   1.240
12430WAT     H137532   9.150   6.141   1.156
12430WAT     H237533   9.188   6.034   1.273
12431WAT      O37534   4.497   0.534   1.166
12431WAT     H137535   4.462   0.622   1.197
12431WAT     H237536   4.467   0.462   1.228
12432WAT      O37537   8.849   2.869   1.369
12432WAT     H137538   8.758   2.893   1.337
12432WAT     H237539   8.849   2.861   1.469
12433WAT      O37540   1.887   9.162   7.714
12433WAT     H137541   1.811   9.225   7.734
12433WAT     H237542   1.873   9.121   7.624
12434WAT      O37543   5.483   4.729   5.364
12434WAT     H137544   5.550   4.793   5.402
12434WAT     H237545   5.394   4.747   5.404
12435WAT      O37546   8.267   3.855   1.118
12435WAT     H137547   8.184   3.882   1.166
12435WAT     H237548   8.347   3.875   1.175
12436WAT      O37549   5.874   4.659   1.729
12436WAT     H137550   5.882   4.742   1.674
12436WAT     H237551   5.888   4.680   1.825
12437WAT      O37552   5.062   0.162   8.390
12437WAT     H137553   5.120   0.226   8.341
12437WAT     H237554   5.049   0.079   8.335
12438WAT      O37555   1.068   9.394   4.313
12438WAT     H137556   1.057   9.485   4.351
12438WAT     H237557   1.165   9.376   4.295
12439WAT      O37558   2.545   3.035   3.571
12439WAT     H137559   2.503   3.037   3.480
12439WAT     H237560   2.483   3.078   3.637
12440WAT      O37561   9.318   0.528   4.017
12440WAT     H137562   9.287   0.486   4.103
12440WAT     H237563   9.399   0.584   4.035
12441WAT      O37564   6.257   7.094   5.685
12441WAT     H137565   6.246   7.118   5.588
12441WAT     H237566   6.167   7.092   5.728
12442WAT      O37567   8.283   6.348   5.941
12442WAT     H137568   8.222   6.375   6.016
12442WAT     H237569   8.283   6.419   5.870
12443WAT      O37570   9.505   7.720   8.640
12443WAT     H137571   9.557   7.798   8.673
12443WAT     H237572   9.438   7.750   8.572
12444WAT      O37573   5.927   5.877   1.278
12444WAT     H137574   5.886   5.811   1.216
12444WAT     H237575   5.961   5.830   1.359
12445WAT      O37576   3.034   2.356   0.030
12445WAT     H137577   3.026   2.456   0.028
12445WAT     H237578   2.956   2.316  -0.019
12446WAT      O37579   1.288   5.744   8.801
12446WAT     H137580   1.225   5.682   8.847
12446WAT     H237581   1.335   5.801   8.869
12447WAT      O37582   0.737   0.119   5.662
12447WAT     H137583   0.688   0.137   5.747
12447WAT     H237584   0.673   0.082   5.594
12448WAT      O37585   7.441   4.975   1.626
12448WAT     H137586   7.511   5.046   1.620
12448WAT     H237587   7.483   4.886   1.611
12449WAT      O37588   9.030   8.352   5.039
12449WAT     H137589   9.054   8.438   5.083
12449WAT     H237590   9.077   8.345   4.950
12450WAT      O37591   2.472   0.152   4.989
12450WAT     H137592   2.445   0.245   5.014
12450WAT     H237593   2.428   0.086   5.050
12451WAT      O37594   5.719   1.259   0.174
12451WAT     H137595   5.695   1.355   0.157
12451WAT     H237596   5.640   1.210   0.211
12452WAT      O37597   8.747   9.426   2.415
12452WAT     H137598   8.758   9.360   2.340
12452WAT     H237599   8.822   9.491   2.412
12453WAT      O37600   5.563   0.012   3.408
12453WAT     H137601   5.584   0.018   3.310
12453WAT     H237602   5.620   0.077   3.458
12454WAT      O37603   8.782   2.751   9.251
12454WAT     H137604   8.877   2.753   9.219
12454WAT     H237605   8.744   2.659   9.239
12455WAT      O37606   2.841   9.587   3.816
12455WAT     H137607   2.845   9.578   3.716
12455WAT     H237608   2.825   9.497   3.857
12456WAT      O37609   7.913   4.401   9.021
12456WAT     H137610   7.919   4.302   9.030
12456WAT     H237611   7.953   4.429   8.933
12457WAT      O37612   9.086   9.151   0.809
12457WAT     H137613   9.065   9.093   0.730
12457WAT     H237614   9.031   9.121   0.887
12458WAT      O37615   6.013   2.032   0.621
12458WAT     H137616   6.036   1.938   0.594
12458WAT     H237617   5.985   2.084   0.540
12459WAT      O37618   2.965   0.942   6.042
12459WAT     H137619   2.908   0.942   6.124
12459WAT     H237620   3.014   1.029   6.036
12460WAT      O37621   6.277   9.228   8.811
12460WAT     H137622   6.285   9.298   8.741
12460WAT     H237623   6.310   9.264   8.898
12461WAT      O37624   3.187   7.465   9.170
12461WAT     H137625   3.269   7.417   9.200
12461WAT     H237626   3.211   7.558   9.142
12462WAT      O37627   3.278   8.803   2.036
12462WAT     H137628   3.341   8.856   2.092
12462WAT     H237629   3.299   8.706   2.046
12463WAT      O37630   7.039   2.014   1.156
12463WAT     H137631   7.033   1.945   1.084
12463WAT     H237632   7.135   2.044   1.165
12464WAT      O37633   0.360   9.777   1.249
12464WAT     H137634   0.294   9.761   1.175
12464WAT     H237635   0.427   9.702   1.250
12465WAT      O37636   4.290   3.792   1.767
12465WAT     H137637   4.369   3.852   1.778
12465WAT     H237638   4.219   3.839   1.715
12466WAT      O37639   8.684   1.109   7.600
12466WAT     H137640   8.676   1.019   7.643
12466WAT     H237641   8.603   1.163   7.624
12467WAT      O37642   7.129   0.424   4.595
12467WAT     H137643   7.163   0.417   4.501
12467WAT     H237644   7.045   0.478   4.597
12468WAT      O37645   0.250   7.579   9.447
12468WAT     H137646   0.317   7.647   9.419
12468WAT     H237647   0.228   7.591   9.544
12469WAT      O37648   3.316   0.113   8.023
12469WAT     H137649   3.402   0.143   8.065
12469WAT     H237650   3.242   0.172   8.054
12470WAT      O37651   7.552   5.617   6.304
12470WAT     H137652   7.639   5.591   6.262
12470WAT     H237653   7.545   5.716   6.310
12471WAT      O37654   6.002   3.551   3.725
12471WAT     H137655   5.919   3.568   3.779
12471WAT     H237656   6.064   3.493   3.776
12472WAT      O37657   7.792   1.286   9.296
12472WAT     H137658   7.889   1.296   9.316
12472WAT     H237659   7.763   1.193   9.317
12473WAT      O37660   6.468   9.632   5.392
12473WAT     H137661   6.463   9.726   5.425
12473WAT     H237662   6.495   9.632   5.296
12474WAT      O37663   0.626   1.960   3.330
12474WAT     H137664   0.698   1.908   3.376
12474WAT     H237665   0.663   2.005   3.250
12475WAT      O37666   5.373   1.802   5.899
12475WAT     H137667   5.409   1.744   5.971
12475WAT     H237668   5.448   1.849   5.853
12476WAT      O37669   5.695   8.419   1.133
12476WAT     H137670   5.784   8.399   1.173
12476WAT     H237671   5.672   8.515   1.148
12477WAT      O37672   0.560   2.602   7.261
12477WAT     H137673   0.608   2.679   7.304
12477WAT     H237674   0.508   2.552   7.331
12478WAT      O37675   4.920   7.259   4.986
12478WAT     H137676   4.827   7.276   4.954
12478WAT     H237677   4.930   7.163   5.011
12479WAT      O37678   3.954   5.262   7.840
12479WAT     H137679   3.902   5.176   7.843
12479WAT     H237680   3.961   5.293   7.745
12480WAT      O37681   4.864   4.141   1.051
12480WAT     H137682   4.853   4.062   0.989
12480WAT     H237683   4.917   4.113   1.131
12481WAT      O37684   8.783   4.836   1.335
12481WAT     H137685   8.758   4.754   1.284
12481WAT     H237686   8.711   4.905   1.325
12482WAT      O37687   7.015   1.525   3.250
12482WAT     H137688   7.102   1.543   3.205
12482WAT     H237689   7.008   1.428   3.272
12483WAT      O37690   3.204   6.337   4.332
12483WAT     H137691   3.266   6.410   4.359
12483WAT     H237692   3.186   6.343   4.234
12484WAT      O37693   5.436   1.610   0.220
12484WAT     H137694   5.417   1.654   0.132
12484WAT     H237695   5.438   1.678   0.292
12485WAT      O37696   1.187   4.201   8.522
12485WAT     H137697   1.135   4.213   8.437
12485WAT     H237698   1.165   4.111   8.562
12486WAT      O37699   4.753   1.391   2.502
12486WAT     H137700   4.666   1.342   2.496
12486WAT     H237701   4.824   1.328   2.536
12487WAT      O37702   4.899   6.755   4.651
12487WAT     H137703   4.868   6.847   4.676
12487WAT     H237704   4.940   6.711   4.731
12488WAT      O37705   5.095   8.859   1.575
12488WAT     H137706   5.182   8.816   1.553
12488WAT     H237707   5.035   8.855   1.495
12489WAT      O37708   5.198   5.770   4.668
12489WAT     H137709   5.165   5.827   4.592
12489WAT     H237710   5.263   5.821   4.723
12490WAT      O37711   5.493   4.907   1.057
12490WAT     H137712   5.550   4.826   1.041
12490WAT     H237713   5.552   4.986   1.073
12491WAT      O37714   4.158   0.819   7.057
12491WAT     H137715   4.176   0.726   7.090
12491WAT     H237716   4.242   0.874   7.063
12492WAT      O37717   1.019   1.027   2.259
12492WAT     H137718   1.105   1.039   2.209
12492WAT     H237719   0.980   1.116   2.280
12493WAT      O37720   7.974   7.053   1.791
12493WAT     H137721   7.978   7.152   1.785
12493WAT     H237722   7.979   7.013   1.700
12494WAT      O37723   2.594   6.825   6.265
12494WAT     H137724   2.559   6.839   6.358
12494WAT     H237725   2.524   6.853   6.200
12495WAT      O37726   4.641   2.386   6.785
12495WAT     H137727   4.624   2.292   6.755
12495WAT     H237728   4.736   2.397   6.811
12496WAT      O37729   2.646   8.479   2.891
12496WAT     H137730   2.690   8.469   2.981
12496WAT     H237731   2.586   8.401   2.875
12497WAT      O37732   4.496   5.773   2.206
12497WAT     H137733   4.555   5.814   2.137
12497WAT     H237734   4.523   5.678   2.221
12498WAT      O37735   6.651   7.696   0.602
12498WAT     H137736   6.570   7.650   0.638
12498WAT     H237737   6.629   7.790   0.578
12499WAT      O37738   7.802   6.181   2.277
12499WAT     H137739   7.894   6.161   2.245
12499WAT     H237740   7.761   6.098   2.316
12500WAT      O37741   1.137   2.842   9.232
12500WAT     H137742   1.119   2.757   9.281
12500WAT     H237743   1.121   2.828   9.134
12501WAT      O37744   7.188   2.555   0.722
12501WAT     H137745   7.168   2.567   0.625
12501WAT     H237746   7.180   2.458   0.747
12502WAT      O37747   4.219   8.899   0.784
12502WAT     H137748   4.188   8.901   0.689
12502WAT     H237749   4.177   8.975   0.834
12503WAT      O37750   6.301   0.645   2.345
12503WAT     H137751   6.238   0.698   2.401
12503WAT     H237752   6.254   0.615   2.262
12504WAT      O37753   1.558   0.519   0.241
12504WAT     H137754   1.536   0.478   0.330
12504WAT     H237755   1.641   0.476   0.204
12505WAT      O37756   4.686   7.800   7.893
12505WAT     H137757   4.684   7.812   7.992
12505WAT     H237758   4.672   7.703   7.871
12506WAT      O37759   5.890   7.099   1.372
12506WAT     H137760   5.980   7.084   1.331
12506WAT     H237761   5.882   7.194   1.403
12507WAT      O37762   2.727   4.629   9.184
12507WAT     H137763   2.665   4.550   9.191
12507WAT     H237764   2.692   4.693   9.116
12508WAT      O37765   1.604   7.215   3.757
12508WAT     H137766   1.553   7.183   3.836
12508WAT     H237767   1.566   7.302   3.725
12509WAT      O37768   9.675   6.284   5.637
12509WAT     H137769   9.609   6.332   5.695
12509WAT     H237770   9.691   6.337   5.553
12510WAT      O37771   6.546   9.669   5.115
12510WAT     H137772   6.580   9.755   5.153
12510WAT     H237773   6.621   9.620   5.070
12511WAT      O37774   9.831   8.829   2.340
12511WAT     H137775   9.757   8.850   2.403
12511WAT     H237776   9.864   8.914   2.297
12512WAT      O37777   2.484   6.676   4.473
12512WAT     H137778   2.556   6.642   4.412
12512WAT     H237779   2.395   6.653   4.434
12513WAT      O37780   6.588   1.761   4.519
12513WAT     H137781   6.627   1.669   4.526
12513WAT     H237782   6.507   1.768   4.576
12514WAT      O37783   1.650   5.863   7.640
12514WAT     H137784   1.749   5.855   7.649
12514WAT     H237785   1.628   5.931   7.570
12515WAT      O37786   0.489   8.873   8.565
12515WAT     H137787   0.397   8.908   8.582
12515WAT     H237788   0.488   8.808   8.490
12516WAT      O37789   7.814   1.446   9.053
12516WAT     H137790   7.815   1.381   9.129
12516WAT     H237791   7.764   1.406   8.976
12517WAT      O37792   1.953   4.528   5.825
12517WAT     H137793   1.892   4.448   5.820
12517WAT     H237794   1.904   4.609   5.794
12518WAT      O37795   8.033   7.555   6.788
12518WAT     H137796   8.022   7.514   6.698
12518WAT     H237797   8.108   7.621   6.786
12519WAT      O37798   2.180   1.546   7.106
12519WAT     H137799   2.226   1.479   7.164
12519WAT     H237800   2.230   1.554   7.019
12520WAT      O37801   3.943   0.502   5.766
12520WAT     H137802   3.924   0.404   5.767
12520WAT     H237803   4.020   0.522   5.827
12521WAT      O37804   8.532   6.083   6.849
12521WAT     H137805   8.529   6.166   6.905
12521WAT     H237806   8.623   6.042   6.856
12522WAT      O37807   4.248   5.028   1.710
12522WAT     H137808   4.236   5.127   1.709
12522WAT     H237809   4.245   4.994   1.804
12523WAT      O37810   5.508   9.759   4.284
12523WAT     H137811   5.409   9.747   4.278
12523WAT     H237812   5.548   9.754   4.192
12524WAT      O37813   7.302   4.011   4.534
12524WAT     H137814   7.220   3.953   4.530
12524WAT     H237815   7.320   4.050   4.443
12525WAT      O37816   8.161   3.522   9.711
12525WAT     H137817   8.131   3.535   9.616
12525WAT     H237818   8.235   3.587   9.731
12526WAT      O37819   3.424   6.377   3.609
12526WAT     H137820   3.352   6.307   3.615
12526WAT     H237821   3.384   6.467   3.628
12527WAT      O37822   7.501   6.105   0.957
12527WAT     H137823   7.411   6.111   0.999
12527WAT     H237824   7.555   6.034   1.002
12528WAT      O37825   5.497   5.384   0.925
12528WAT     H137826   5.445   5.449   0.981
12528WAT     H237827   5.460   5.383   0.832
12529WAT      O37828   8.532   2.965   1.620
12529WAT     H137829   8.626   2.934   1.605
12529WAT     H237830   8.470   2.887   1.615
12530WAT      O37831   5.207   3.808   0.951
12530WAT     H137832   5.280   3.854   0.900
12530WAT     H237833   5.239   3.718   0.980
12531WAT      O37834   8.527   9.258   4.126
12531WAT     H137835   8.595   9.187   4.107
12531WAT     H237836   8.549   9.304   4.212
12532WAT      O37837   0.084   9.189   7.318
12532WAT     H137838   0.081   9.165   7.221
12532WAT     H237839   0.075   9.106   7.373
12533WAT      O37840   6.454   5.012   6.073
12533WAT     H137841   6.508   4.936   6.038
12533WAT     H237842   6.357   4.997   6.053
12534WAT      O37843   7.224   7.960   4.034
12534WAT     H137844   7.236   8.014   4.118
12534WAT     H237845   7.208   7.865   4.058
12535WAT      O37846   8.406   6.334   3.894
12535WAT     H137847   8.428   6.337   3.796
12535WAT     H237848   8.476   6.382   3.946
12536WAT      O37849   9.703   8.770   7.651
12536WAT     H137850   9.674   8.805   7.562
12536WAT     H237851   9.788   8.718   7.641
12537WAT      O37852   9.473   8.476   9.498
12537WAT     H137853   9.432   8.441   9.415
12537WAT     H237854   9.470   8.576   9.498
12538WAT      O37855   7.208   8.981   7.500
12538WAT     H137856   7.258   8.983   7.414
12538WAT     H237857   7.226   9.065   7.552
12539WAT      O37858   2.312   4.967   9.730
12539WAT     H137859   2.238   4.951   9.664
12539WAT     H237860   2.281   5.032   9.799
12540WAT      O37861   3.703   5.358   1.216
12540WAT     H137862   3.624   5.408   1.180
12540WAT     H237863   3.706   5.267   1.175
12541WAT      O37864   8.583   1.364   6.132
12541WAT     H137865   8.578   1.352   6.033
12541WAT     H237866   8.501   1.413   6.164
12542WAT      O37867   0.855   1.678   8.798
12542WAT     H137868   0.808   1.685   8.886
12542WAT     H237869   0.909   1.760   8.782
12543WAT      O37870   8.967   2.960   4.892
12543WAT     H137871   9.051   2.998   4.853
12543WAT     H237872   8.949   2.870   4.853
12544WAT      O37873   1.139   6.088   8.163
12544WAT     H137874   1.065   6.105   8.228
12544WAT     H237875   1.175   5.996   8.177
12545WAT      O37876   5.080   4.350   8.652
12545WAT     H137877   5.058   4.257   8.623
12545WAT     H237878   5.136   4.395   8.583
12546WAT      O37879   0.928   7.566   0.994
12546WAT     H137880   0.934   7.544   1.092
12546WAT     H237881   1.005   7.525   0.946
12547WAT      O37882   5.427   3.447   1.534
12547WAT     H137883   5.376   3.361   1.535
12547WAT     H237884   5.391   3.507   1.605
12548WAT      O37885   4.766   6.229   0.426
12548WAT     H137886   4.827   6.189   0.495
12548WAT     H237887   4.674   6.237   0.464
12549WAT      O37888   7.437   3.706   8.764
12549WAT     H137889   7.509   3.637   8.772
12549WAT     H237890   7.382   3.688   8.683
12550WAT      O37891   0.356   9.282   2.524
12550WAT     H137892   0.366   9.254   2.428
12550WAT     H237893   0.409   9.222   2.583
12551WAT      O37894   5.788   7.269   4.230
12551WAT     H137895   5.805   7.350   4.287
12551WAT     H237896   5.692   7.268   4.203
12552WAT      O37897   2.754   1.413   8.765
12552WAT     H137898   2.671   1.373   8.726
12552WAT     H237899   2.828   1.410   8.698
12553WAT      O37900   8.209   6.906   9.077
12553WAT     H137901   8.242   6.994   9.044
12553WAT     H237902   8.226   6.898   9.175
12554WAT      O37903   5.038   8.875   6.273
12554WAT     H137904   5.030   8.817   6.192
12554WAT     H237905   5.037   8.971   6.246
12555WAT      O37906   3.221   7.897   1.283
12555WAT     H137907   3.149   7.836   1.250
12555WAT     H237908   3.240   7.878   1.379
12556WAT      O37909   3.073   5.493   5.382
12556WAT     H137910   3.139   5.424   5.352
12556WAT     H237911   3.065   5.565   5.313
12557WAT      O37912   8.593   1.106   0.185
12557WAT     H137913   8.591   1.128   0.283
12557WAT     H237914   8.500   1.095   0.151
12558WAT      O37915   7.984   7.688   1.205
12558WAT     H137916   7.996   7.627   1.283
12558WAT     H237917   7.903   7.661   1.153
12559WAT      O37918   5.633   3.048   4.396
12559WAT     H137919   5.584   2.974   4.351
12559WAT     H237920   5.719   3.065   4.349
12560WAT      O37921   4.238   2.617   6.663
12560WAT     H137922   4.194   2.533   6.695
12560WAT     H237923   4.211   2.635   6.568
12561WAT      O37924   9.431   0.528   5.950
12561WAT     H137925   9.426   0.530   6.050
12561WAT     H237926   9.346   0.565   5.911
12562WAT      O37927   7.974   0.156   5.361
12562WAT     H137928   7.951   0.116   5.272
12562WAT     H237929   8.024   0.089   5.416
12563WAT      O37930   3.151   6.663   3.382
12563WAT     H137931   3.078   6.613   3.428
12563WAT     H237932   3.194   6.603   3.314
12564WAT      O37933   6.413   3.647   8.312
12564WAT     H137934   6.381   3.603   8.228
12564WAT     H237935   6.342   3.708   8.348
12565WAT      O37936   9.760   6.194   4.563
12565WAT     H137937   9.716   6.105   4.568
12565WAT     H237938   9.859   6.183   4.571
12566WAT      O37939   1.822   9.488   5.430
12566WAT     H137940   1.780   9.533   5.351
12566WAT     H237941   1.823   9.551   5.508
12567WAT      O37942   6.434   7.878   4.530
12567WAT     H137943   6.386   7.831   4.456
12567WAT     H237944   6.432   7.977   4.513
12568WAT      O37945   0.643   3.739   7.653
12568WAT     H137946   0.664   3.761   7.557
12568WAT     H237947   0.720   3.766   7.711
12569WAT      O37948   9.857   8.325   4.914
12569WAT     H137949   9.957   8.322   4.914
12569WAT     H237950   9.827   8.418   4.892
12570WAT      O37951   2.461   2.482   7.372
12570WAT     H137952   2.446   2.389   7.406
12570WAT     H237953   2.378   2.515   7.329
12571WAT      O37954   3.038   7.939   3.427
12571WAT     H137955   3.058   7.975   3.518
12571WAT     H237956   3.053   8.011   3.359
12572WAT      O37957   9.239   5.292   1.315
12572WAT     H137958   9.296   5.350   1.372
12572WAT     H237959   9.143   5.322   1.322
12573WAT      O37960   6.158   4.110   1.195
12573WAT     H137961   6.133   4.157   1.280
12573WAT     H237962   6.147   4.011   1.207
12574WAT      O37963   6.596   7.514   7.582
12574WAT     H137964   6.505   7.555   7.583
12574WAT     H237965   6.664   7.583   7.555
12575WAT      O37966   0.797   8.220   1.030
12575WAT     H137967   0.832   8.311   1.005
12575WAT     H237968   0.722   8.231   1.095
12576WAT      O37969   2.640   7.975   8.234
12576WAT     H137970   2.590   7.987   8.149
12576WAT     H237971   2.735   7.949   8.214
12577WAT      O37972   8.897   5.628   1.455
12577WAT     H137973   8.840   5.549   1.479
12577WAT     H237974   8.886   5.698   1.526
12578WAT      O37975   1.012   9.158   1.830
12578WAT     H137976   1.094   9.168   1.774
12578WAT     H237977   0.985   9.062   1.834
12579WAT      O37978   6.730   2.970   8.923
12579WAT     H137979   6.765   2.912   8.996
12579WAT     H237980   6.691   3.054   8.962
12580WAT      O37981   2.207   2.491   9.450
12580WAT     H137982   2.283   2.427   9.456
12580WAT     H237983   2.157   2.492   9.538
12581WAT      O37984   6.431   5.309   7.570
12581WAT     H137985   6.487   5.302   7.487
12581WAT     H237986   6.488   5.337   7.647
12582WAT      O37987   8.146   7.022   3.122
12582WAT     H137988   8.077   6.985   3.185
12582WAT     H237989   8.201   7.091   3.168
12583WAT      O37990   7.218   1.601   1.386
12583WAT     H137991   7.161   1.559   1.316
12583WAT     H237992   7.226   1.539   1.464
12584WAT      O37993   3.141   4.934   5.727
12584WAT     H137994   3.044   4.915   5.709
12584WAT     H237995   3.190   4.847   5.736
12585WAT      O37996   0.707   4.187   9.165
12585WAT     H137997   0.658   4.260   9.117
12585WAT     H237998   0.647   4.107   9.172
12586WAT      O37999   4.073   4.523   3.022
12586WAT     H138000   4.037   4.609   3.057
12586WAT     H238001   4.014   4.448   3.053
12587WAT      O38002   7.885   4.022   2.660
12587WAT     H138003   7.808   4.017   2.725
12587WAT     H238004   7.947   4.096   2.687
12588WAT      O38005   0.584   0.046   3.812
12588WAT     H138006   0.683   0.044   3.802
12588WAT     H238007   0.545   0.109   3.744
12589WAT      O38008   1.455   8.395   1.407
12589WAT     H138009   1.360   8.365   1.407
12589WAT     H238010   1.511   8.335   1.350
12590WAT      O38011   1.552   4.323   4.397
12590WAT     H138012   1.497   4.241   4.409
12590WAT     H238013   1.626   4.324   4.465
12591WAT      O38014   7.278   0.259   2.764
12591WAT     H138015   7.361   0.302   2.800
12591WAT     H238016   7.257   0.296   2.674
12592WAT      O38017   7.603   9.826   8.812
12592WAT     H138018   7.683   9.836   8.753
12592WAT     H238019   7.532   9.890   8.782
12593WAT      O38020   3.523   9.323   6.854
12593WAT     H138021   3.434   9.359   6.883
12593WAT     H238022   3.593   9.349   6.921
12594WAT      O38023   8.499   1.805   5.937
12594WAT     H138024   8.449   1.789   5.852
12594WAT     H238025   8.537   1.897   5.937
12595WAT      O38026   8.092   2.620   4.948
12595WAT     H138027   8.013   2.679   4.966
12595WAT     H238028   8.102   2.554   5.022
12596WAT      O38029   7.524   9.303   4.507
12596WAT     H138030   7.564   9.271   4.592
12596WAT     H238031   7.488   9.226   4.455
12597WAT      O38032   6.633   6.881   7.805
12597WAT     H138033   6.731   6.861   7.803
12597WAT     H238034   6.587   6.814   7.863
12598WAT      O38035   8.133   6.644   5.232
12598WAT     H138036   8.218   6.689   5.260
12598WAT     H238037   8.107   6.576   5.300
12599WAT      O38038   7.384   5.330   4.886
12599WAT     H138039   7.309   5.387   4.918
12599WAT     H238040   7.469   5.359   4.931
12600WAT      O38041   7.984   3.433   9.059
12600WAT     H138042   7.904   3.492   9.070
12600WAT     H238043   8.049   3.476   8.995
12601WAT      O38044   5.116   5.329   1.031
12601WAT     H138045   5.162   5.247   0.998
12601WAT     H238046   5.183   5.402   1.045
12602WAT      O38047   4.172   9.402   0.657
12602WAT     H138048   4.119   9.384   0.739
12602WAT     H238049   4.148   9.336   0.586
12603WAT      O38050   8.764   6.529   9.006
12603WAT     H138051   8.797   6.492   9.093
12603WAT     H238052   8.783   6.464   8.933
12604WAT      O38053   0.769   4.945   8.593
12604WAT     H138054   0.700   4.999   8.641
12604WAT     H238055   0.843   4.922   8.656
12605WAT      O38056   8.079   8.677   5.381
12605WAT     H138057   8.118   8.749   5.324
12605WAT     H238058   8.039   8.606   5.323
12606WAT      O38059   5.927   2.393   9.154
12606WAT     H138060   5.842   2.436   9.125
12606WAT     H238061   5.929   2.385   9.253
12607WAT      O38062   2.312   0.236   1.142
12607WAT     H138063   2.404   0.240   1.181
12607WAT     H238064   2.272   0.327   1.142
12608WAT      O38065   0.802   5.341   5.044
12608WAT     H138066   0.801   5.349   5.144
12608WAT     H238067   0.711   5.315   5.012
12609WAT      O38068   4.925   6.401   6.254
12609WAT     H138069   4.912   6.302   6.248
12609WAT     H238070   5.018   6.421   6.285
12610WAT      O38071   9.048   4.396   6.124
12610WAT     H138072   8.987   4.318   6.129
12610WAT     H238073   9.129   4.371   6.071
12611WAT      O38074   6.494   2.017   0.013
12611WAT     H138075   6.409   2.039  -0.034
12611WAT     H238076   6.477   1.951   0.086
12612WAT      O38077   9.441   7.766   4.904
12612WAT     H138078   9.443   7.849   4.849
12612WAT     H238079   9.384   7.782   4.986
12613WAT      O38080   8.952   0.701   8.229
12613WAT     H138081   8.966   0.609   8.192
12613WAT     H238082   9.009   0.766   8.179
12614WAT      O38083   2.335   6.236   6.393
12614WAT     H138084   2.290   6.209   6.478
12614WAT     H238085   2.357   6.155   6.340
12615WAT      O38086   0.815   4.457   1.269
12615WAT     H138087   0.819   4.413   1.180
12615WAT     H238088   0.908   4.478   1.300
12616WAT      O38089   1.881   2.299   5.869
12616WAT     H138090   1.781   2.296   5.876
12616WAT     H238091   1.909   2.386   5.830
12617WAT      O38092   9.321   1.880   6.205
12617WAT     H138093   9.400   1.932   6.236
12617WAT     H238094   9.352   1.805   6.146
12618WAT      O38095   0.015   4.872   2.865
12618WAT     H138096  -0.021   4.886   2.957
12618WAT     H238097   0.060   4.955   2.833
12619WAT      O38098   1.070   1.655   7.735
12619WAT     H138099   0.979   1.663   7.776
12619WAT     H238100   1.070   1.702   7.646
12620WAT      O38101   4.545   3.527   4.713
12620WAT     H138102   4.607   3.449   4.711
12620WAT     H238103   4.591   3.607   4.674
12621WAT      O38104   8.633   0.772   2.484
12621WAT     H138105   8.683   0.846   2.529
12621WAT     H238106   8.696   0.698   2.459
12622WAT      O38107   7.864   9.386   9.507
12622WAT     H138108   7.957   9.351   9.498
12622WAT     H238109   7.798   9.312   9.490
12623WAT      O38110   8.155   9.768   1.484
12623WAT     H138111   8.205   9.850   1.455
12623WAT     H238112   8.174   9.693   1.421
12624WAT      O38113   1.035   1.478   8.878
12624WAT     H138114   1.038   1.506   8.974
12624WAT     H238115   0.975   1.540   8.827
12625WAT      O38116   3.251   3.453   1.099
12625WAT     H138117   3.256   3.361   1.061
12625WAT     H238118   3.338   3.477   1.141
12626WAT      O38119   8.699   2.140   8.665
12626WAT     H138120   8.731   2.231   8.638
12626WAT     H238121   8.601   2.133   8.649
12627WAT      O38122   2.762   0.774   1.498
12627WAT     H138123   2.844   0.718   1.502
12627WAT     H238124   2.778   0.854   1.440
12628WAT      O38125   0.705   4.155   6.377
12628WAT     H138126   0.606   4.153   6.365
12628WAT     H238127   0.749   4.113   6.298
12629WAT      O38128   0.076   8.052   6.403
12629WAT     H138129   0.131   8.133   6.384
12629WAT     H238130   0.017   8.032   6.325
12630WAT      O38131   6.228   7.375   2.085
12630WAT     H138132   6.219   7.281   2.117
12630WAT     H238133   6.292   7.425   2.144
12631WAT      O38134   7.941   7.946   6.065
12631WAT     H138135   7.980   7.885   5.996
12631WAT     H238136   7.898   7.892   6.137
12632WAT      O38137   0.100   5.936   7.631
12632WAT     H138138   0.075   5.870   7.702
12632WAT     H238139   0.019   5.962   7.579
12633WAT      O38140   0.441   7.828   7.916
12633WAT     H138141   0.350   7.817   7.878
12633WAT     H238142   0.451   7.920   7.954
12634WAT      O38143   6.261   9.512   5.764
12634WAT     H138144   6.296   9.439   5.822
12634WAT     H238145   6.226   9.586   5.821
12635WAT      O38146   8.474   6.719   1.578
12635WAT     H138147   8.400   6.777   1.611
12635WAT     H238148   8.437   6.631   1.547
12636WAT      O38149   8.314   1.094   6.189
12636WAT     H138150   8.295   1.184   6.150
12636WAT     H238151   8.408   1.093   6.224
12637WAT      O38152   5.371   4.874   1.593
12637WAT     H138153   5.286   4.887   1.643
12637WAT     H238154   5.422   4.798   1.633
12638WAT      O38155   7.843   7.449   6.457
12638WAT     H138156   7.803   7.537   6.485
12638WAT     H238157   7.943   7.454   6.463
12639WAT      O38158   9.429   2.003   8.002
12639WAT     H138159   9.340   2.049   8.007
12639WAT     H238160   9.432   1.946   7.919
12640WAT      O38161   3.167   4.899   0.604
12640WAT     H138162   3.177   4.967   0.532
12640WAT     H238163   3.188   4.808   0.568
12641WAT      O38164   5.209   0.149   4.775
12641WAT     H138165   5.164   0.229   4.815
12641WAT     H238166   5.255   0.175   4.690
12642WAT      O38167   2.028   0.566   3.749
12642WAT     H138168   2.084   0.522   3.819
12642WAT     H238169   2.006   0.659   3.777
12643WAT      O38170   7.767   2.126   5.380
12643WAT     H138171   7.835   2.061   5.415
12643WAT     H238172   7.806   2.218   5.380
12644WAT      O38173   2.997   8.465   0.685
12644WAT     H138174   3.096   8.480   0.690
12644WAT     H238175   2.952   8.549   0.655
12645WAT      O38176   1.470   1.266   7.656
12645WAT     H138177   1.470   1.299   7.751
12645WAT     H238178   1.454   1.167   7.656
12646WAT      O38179   8.182   3.180   0.142
12646WAT     H138180   8.090   3.183   0.180
12646WAT     H238181   8.180   3.215   0.048
12647WAT      O38182   5.828   4.090   1.543
12647WAT     H138183   5.741   4.070   1.588
12647WAT     H238184   5.816   4.086   1.444
12648WAT      O38185   8.596   1.450   3.589
12648WAT     H138186   8.515   1.499   3.621
12648WAT     H238187   8.572   1.392   3.512
12649WAT      O38188   1.518   8.570   5.845
12649WAT     H138189   1.498   8.473   5.854
12649WAT     H238190   1.490   8.602   5.755
12650WAT      O38191   7.659   0.223   3.231
12650WAT     H138192   7.672   0.129   3.200
12650WAT     H238193   7.609   0.275   3.161
12651WAT      O38194   0.513   5.989   8.654
12651WAT     H138195   0.558   6.079   8.659
12651WAT     H238196   0.583   5.918   8.650
12652WAT      O38197   2.923   2.299   4.612
12652WAT     H138198   2.962   2.391   4.616
12652WAT     H238199   2.989   2.234   4.648
12653WAT      O38200   0.405   6.122   5.224
12653WAT     H138201   0.491   6.151   5.182
12653WAT     H238202   0.417   6.115   5.323
12654WAT      O38203   8.506   4.852   0.397
12654WAT     H138204   8.476   4.915   0.326
12654WAT     H238205   8.600   4.875   0.425
12655WAT      O38206   4.132   2.344   1.505
12655WAT     H138207   4.127   2.253   1.465
12655WAT     H238208   4.213   2.350   1.564
12656WAT      O38209   1.702   1.261   0.358
12656WAT     H138210   1.640   1.229   0.286
12656WAT     H238211   1.792   1.220   0.344
12657WAT      O38212   9.115   5.641   1.278
12657WAT     H138213   9.111   5.632   1.178
12657WAT     H238214   9.023   5.632   1.316
12658WAT      O38215   8.361   6.760   5.347
12658WAT     H138216   8.433   6.692   5.337
12658WAT     H238217   8.383   6.840   5.290
12659WAT      O38218   6.233   9.481   8.690
12659WAT     H138219   6.324   9.507   8.657
12659WAT     H238220   6.210   9.535   8.772
12660WAT      O38221   4.655   3.073   5.182
12660WAT     H138222   4.745   3.034   5.162
12660WAT     H238223   4.634   3.144   5.114
12661WAT      O38224   4.221   2.562   4.752
12661WAT     H138225   4.314   2.597   4.757
12661WAT     H238226   4.222   2.463   4.764
12662WAT      O38227   1.757   4.675   0.251
12662WAT     H138228   1.759   4.610   0.175
12662WAT     H238229   1.775   4.767   0.217
12663WAT      O38230   0.096   9.333   0.996
12663WAT     H138231   0.191   9.363   0.986
12663WAT     H238232   0.075   9.266   0.925
12664WAT      O38233   6.189   3.037   4.182
12664WAT     H138234   6.116   2.981   4.220
12664WAT     H238235   6.202   3.013   4.086
12665WAT      O38236   8.502   6.907   2.259
12665WAT     H138237   8.451   6.909   2.173
12665WAT     H238238   8.531   6.999   2.284
12666WAT      O38239   2.871   7.915   0.133
12666WAT     H138240   2.819   7.839   0.094
12666WAT     H238241   2.814   7.965   0.198
12667WAT      O38242   2.470   2.818   7.057
12667WAT     H138243   2.534   2.744   7.038
12667WAT     H238244   2.508   2.878   7.127
12668WAT      O38245   0.113   1.053   3.459
12668WAT     H138246   0.169   1.102   3.393
12668WAT     H238247   0.133   1.085   3.551
12669WAT      O38248   6.208   7.754   7.370
12669WAT     H138249   6.126   7.805   7.397
12669WAT     H238250   6.228   7.772   7.274
12670WAT      O38251   2.492   6.843   4.147
12670WAT     H138252   2.457   6.755   4.181
12670WAT     H238253   2.562   6.878   4.209
12671WAT      O38254   6.845   4.477   4.445
12671WAT     H138255   6.770   4.443   4.390
12671WAT     H238256   6.929   4.426   4.424
12672WAT      O38257   1.622   3.907   6.627
12672WAT     H138258   1.605   3.867   6.716
12672WAT     H238259   1.606   3.838   6.556
12673WAT      O38260   4.922   9.441   6.910
12673WAT     H138261   5.002   9.482   6.865
12673WAT     H238262   4.904   9.351   6.869
12674WAT      O38263   3.680   4.665   9.391
12674WAT     H138264   3.716   4.723   9.463
12674WAT     H238265   3.750   4.650   9.322
12675WAT      O38266   2.383   6.614   1.197
12675WAT     H138267   2.386   6.712   1.177
12675WAT     H238268   2.351   6.601   1.291
12676WAT      O38269   4.410   7.819   1.114
12676WAT     H138270   4.446   7.873   1.190
12676WAT     H238271   4.353   7.744   1.149
12677WAT      O38272   6.168   4.997   1.105
12677WAT     H138273   6.181   4.949   1.192
12677WAT     H238274   6.247   4.982   1.046
12678WAT      O38275   5.882   9.660   4.357
12678WAT     H138276   5.929   9.573   4.370
12678WAT     H238277   5.840   9.663   4.266
12679WAT      O38278   8.280   0.243   3.880
12679WAT     H138279   8.307   0.208   3.970
12679WAT     H238280   8.337   0.321   3.856
12680WAT      O38281   8.334   6.101   1.857
12680WAT     H138282   8.369   6.152   1.935
12680WAT     H238283   8.397   6.026   1.836
12681WAT      O38284   7.669   3.549   9.215
12681WAT     H138285   7.608   3.573   9.290
12681WAT     H238286   7.746   3.612   9.213
12682WAT      O38287   1.442   6.383   4.359
12682WAT     H138288   1.500   6.421   4.286
12682WAT     H238289   1.454   6.284   4.361
12683WAT      O38290   2.515   9.767   1.352
12683WAT     H138291   2.495   9.669   1.365
12683WAT     H238292   2.452   9.820   1.409
12684WAT      O38293   9.024   6.687   8.955
12684WAT     H138294   9.034   6.718   8.860
12684WAT     H238295   8.927   6.676   8.976
12685WAT      O38296   7.545   8.040   1.246
12685WAT     H138297   7.644   8.049   1.251
12685WAT     H238298   7.502   8.127   1.272
12686WAT      O38299   5.051   6.086   1.438
12686WAT     H138300   4.969   6.033   1.459
12686WAT     H238301   5.059   6.096   1.339
12687WAT      O38302   4.460   7.697   5.528
12687WAT     H138303   4.555   7.721   5.545
12687WAT     H238304   4.433   7.621   5.587
12688WAT      O38305   7.417   4.296   9.407
12688WAT     H138306   7.325   4.289   9.369
12688WAT     H238307   7.434   4.390   9.438
12689WAT      O38308   7.004   3.135   2.203
12689WAT     H138309   6.933   3.189   2.157
12689WAT     H238310   7.092   3.150   2.158
12690WAT      O38311   4.071   1.971   1.496
12690WAT     H138312   4.023   1.930   1.574
12690WAT     H238313   4.010   1.975   1.417
12691WAT      O38314   5.928   1.564   6.867
12691WAT     H138315   5.942   1.656   6.904
12691WAT     H238316   5.884   1.507   6.936
12692WAT      O38317   5.004   3.762   6.547
12692WAT     H138318   4.986   3.760   6.646
12692WAT     H238319   4.969   3.848   6.509
12693WAT      O38320   3.160   4.795   9.002
12693WAT     H138321   3.186   4.723   9.065
12693WAT     H238322   3.242   4.842   8.970
12694WAT      O38323   4.527   8.118   0.721
12694WAT     H138324   4.568   8.064   0.648
12694WAT     H238325   4.498   8.058   0.795
12695WAT      O38326   2.897   0.594   5.716
12695WAT     H138327   2.847   0.617   5.632
12695WAT     H238328   2.853   0.639   5.794
12696WAT      O38329   5.833   9.170   8.208
12696WAT     H138330   5.769   9.186   8.282
12696WAT     H238331   5.849   9.255   8.158
12697WAT      O38332   4.569   1.701   4.669
12697WAT     H138333   4.524   1.740   4.589
12697WAT     H238334   4.528   1.738   4.752
12698WAT      O38335   3.185   7.906   6.927
12698WAT     H138336   3.088   7.926   6.921
12698WAT     H238337   3.204   7.856   7.012
12699WAT      O38338   7.921   1.600   0.911
12699WAT     H138339   7.927   1.525   0.976
12699WAT     H238340   8.003   1.657   0.918
12700WAT      O38341   8.283   6.736   1.088
12700WAT     H138342   8.333   6.817   1.119
12700WAT     H238343   8.187   6.745   1.113
12701WAT      O38344   3.867   5.331   9.837
12701WAT     H138345   3.868   5.259   9.907
12701WAT     H238346   3.800   5.401   9.862
12702WAT      O38347   1.134   1.747   4.958
12702WAT     H138348   1.197   1.673   4.935
12702WAT     H238349   1.184   1.833   4.963
12703WAT      O38350   7.293   9.408   5.727
12703WAT     H138351   7.333   9.500   5.723
12703WAT     H238352   7.273   9.385   5.822
12704WAT      O38353   2.481   2.423   1.738
12704WAT     H138354   2.486   2.360   1.661
12704WAT     H238355   2.418   2.386   1.807
12705WAT      O38356   0.576   2.037   3.805
12705WAT     H138357   0.538   2.128   3.790
12705WAT     H238358   0.513   1.968   3.769
12706WAT      O38359   6.238   4.791   7.435
12706WAT     H138360   6.317   4.734   7.412
12706WAT     H238361   6.269   4.883   7.461
12707WAT      O38362   3.217   2.178   3.846
12707WAT     H138363   3.184   2.160   3.753
12707WAT     H238364   3.317   2.176   3.847
12708WAT      O38365   5.847   2.094   3.144
12708WAT     H138366   5.789   2.035   3.201
12708WAT     H238367   5.869   2.047   3.059
12709WAT      O38368   8.866   8.599   0.556
12709WAT     H138369   8.822   8.534   0.494
12709WAT     H238370   8.938   8.552   0.607
12710WAT      O38371   2.140   5.436   7.446
12710WAT     H138372   2.104   5.470   7.533
12710WAT     H238373   2.088   5.474   7.370
12711WAT      O38374   3.729   4.974   7.631
12711WAT     H138375   3.678   4.926   7.559
12711WAT     H238376   3.820   4.934   7.639
12712WAT      O38377   3.056   5.960   3.232
12712WAT     H138378   3.146   5.937   3.268
12712WAT     H238379   2.988   5.895   3.268
12713WAT      O38380   4.470   0.708   5.206
12713WAT     H138381   4.462   0.804   5.234
12713WAT     H238382   4.536   0.662   5.266
12714WAT      O38383   4.072   3.045   2.859
12714WAT     H138384   4.036   3.139   2.852
12714WAT     H238385   4.140   3.031   2.787
12715WAT      O38386   0.721   4.596   8.879
12715WAT     H138387   0.698   4.620   8.784
12715WAT     H238388   0.804   4.646   8.906
12716WAT      O38389   9.645   7.019   9.288
12716WAT     H138390   9.586   7.099   9.292
12716WAT     H238391   9.649   6.984   9.194
12717WAT      O38392   5.419   2.206   0.113
12717WAT     H138393   5.487   2.277   0.094
12717WAT     H238394   5.437   2.166   0.203
12718WAT      O38395   1.158   3.422   9.852
12718WAT     H138396   1.244   3.473   9.843
12718WAT     H238397   1.143   3.369   9.769
12719WAT      O38398   1.498   2.678   2.072
12719WAT     H138399   1.562   2.603   2.087
12719WAT     H238400   1.546   2.756   2.032
12720WAT      O38401   8.178   8.394   0.673
12720WAT     H138402   8.196   8.297   0.654
12720WAT     H238403   8.092   8.401   0.724
12721WAT      O38404   6.875   8.896   1.299
12721WAT     H138405   6.966   8.934   1.286
12721WAT     H238406   6.826   8.895   1.211
12722WAT      O38407   4.615   8.756   0.633
12722WAT     H138408   4.517   8.740   0.647
12722WAT     H238409   4.668   8.702   0.699
12723WAT      O38410   2.887   3.127   7.763
12723WAT     H138411   2.925   3.163   7.678
12723WAT     H238412   2.796   3.167   7.778
12724WAT      O38413   9.116   4.623   1.431
12724WAT     H138414   9.073   4.533   1.440
12724WAT     H238415   9.050   4.694   1.457
12725WAT      O38416   6.357   7.975   7.154
12725WAT     H138417   6.333   8.018   7.241
12725WAT     H238418   6.419   8.035   7.103
12726WAT      O38419   0.059   4.516   3.663
12726WAT     H138420   0.126   4.577   3.703
12726WAT     H238421   0.030   4.551   3.574
12727WAT      O38422   2.091   1.707   0.033
12727WAT     H138423   2.138   1.700   0.121
12727WAT     H238424   2.007   1.654   0.036
12728WAT      O38425   6.763   4.335   9.886
12728WAT     H138426   6.768   4.312   9.788
12728WAT     H238427   6.751   4.433   9.896
12729WAT      O38428   6.127   5.811   2.273
12729WAT     H138429   6.181   5.728   2.293
12729WAT     H238430   6.127   5.827   2.175
12730WAT      O38431   5.572   7.126   9.025
12730WAT     H138432   5.505   7.052   9.038
12730WAT     H238433   5.657   7.102   9.070
12731WAT      O38434   9.447   8.415   4.682
12731WAT     H138435   9.466   8.439   4.777
12731WAT     H238436   9.430   8.498   4.630
12732WAT      O38437   9.037   5.794   5.008
12732WAT     H138438   9.120   5.742   5.029
12732WAT     H238439   9.011   5.778   4.913
12733WAT      O38440   4.599   5.316   2.891
12733WAT     H138441   4.665   5.376   2.846
12733WAT     H238442   4.512   5.319   2.842
12734WAT      O38443   9.605   5.349   1.396
12734WAT     H138444   9.662   5.368   1.316
12734WAT     H238445   9.596   5.250   1.408
12735WAT      O38446   5.923   0.512   9.713
12735WAT     H138447   5.894   0.603   9.743
12735WAT     H238448   5.855   0.444   9.741
12736WAT      O38449   3.257   7.378   0.126
12736WAT     H138450   3.210   7.445   0.070
12736WAT     H238451   3.209   7.368   0.213
12737WAT      O38452   7.515   2.131   5.407
12737WAT     H138453   7.615   2.143   5.403
12737WAT     H238454   7.488   2.058   5.344
12738WAT      O38455   4.117   7.560   3.231
12738WAT     H138456   4.186   7.612   3.180
12738WAT     H238457   4.147   7.466   3.243
12739WAT      O38458   8.227   8.595   3.653
12739WAT     H138459   8.217   8.529   3.578
12739WAT     H238460   8.259   8.548   3.735
12740WAT      O38461   9.008   2.196   1.209
12740WAT     H138462   8.943   2.155   1.146
12740WAT     H238463   8.968   2.280   1.247
12741WAT      O38464   9.543   1.489   8.087
12741WAT     H138465   9.592   1.515   8.170
12741WAT     H238466   9.445   1.484   8.107
12742WAT      O38467   3.505   9.125   9.410
12742WAT     H138468   3.535   9.030   9.416
12742WAT     H238469   3.584   9.185   9.401
12743WAT      O38470   2.189   5.569   1.110
12743WAT     H138471   2.273   5.586   1.058
12743WAT     H238472   2.200   5.602   1.204
12744WAT      O38473   5.703   9.031   1.454
12744WAT     H138474   5.752   9.114   1.481
12744WAT     H238475   5.690   8.973   1.534
12745WAT      O38476   4.825   2.495   6.218
12745WAT     H138477   4.849   2.416   6.275
12745WAT     H238478   4.895   2.507   6.147
12746WAT      O38479   5.010   7.859   9.887
12746WAT     H138480   5.091   7.867   9.945
12746WAT     H238481   4.981   7.950   9.857
12747WAT      O38482   9.863   2.957   2.804
12747WAT     H138483   9.926   3.004   2.866
12747WAT     H238484   9.915   2.909   2.734
12748WAT      O38485   8.084   8.287   1.419
12748WAT     H138486   8.142   8.244   1.489
12748WAT     H238487   8.142   8.328   1.348
12749WAT      O38488   3.197   5.061   8.761
12749WAT     H138489   3.258   5.141   8.759
12749WAT     H238490   3.241   4.987   8.813
12750WAT      O38491   4.572   7.151   0.298
12750WAT     H138492   4.588   7.217   0.372
12750WAT     H238493   4.659   7.131   0.252
12751WAT      O38494   0.564   5.879   1.212
12751WAT     H138495   0.480   5.895   1.263
12751WAT     H238496   0.544   5.868   1.115
12752WAT      O38497   7.699   1.722   5.389
12752WAT     H138498   7.652   1.661   5.326
12752WAT     H238499   7.786   1.751   5.348
12753WAT      O38500   5.960   4.450   1.131
12753WAT     H138501   6.026   4.396   1.078
12753WAT     H238502   5.963   4.545   1.102
12754WAT      O38503   0.619   4.562   2.653
12754WAT     H138504   0.652   4.656   2.655
12754WAT     H238505   0.684   4.503   2.701
12755WAT      O38506   7.492   3.459   8.080
12755WAT     H138507   7.450   3.439   8.169
12755WAT     H238508   7.424   3.445   8.008
12756WAT      O38509   1.616   3.570   4.822
12756WAT     H138510   1.631   3.479   4.862
12756WAT     H238511   1.681   3.635   4.860
12757WAT      O38512   4.447   8.227   1.964
12757WAT     H138513   4.503   8.275   1.896
12757WAT     H238514   4.386   8.163   1.918
12758WAT      O38515   3.281   9.530   7.460
12758WAT     H138516   3.192   9.513   7.503
12758WAT     H238517   3.269   9.595   7.385
12759WAT      O38518   2.419   6.120   3.542
12759WAT     H138519   2.390   6.199   3.488
12759WAT     H238520   2.360   6.112   3.623
12760WAT      O38521   0.143   1.525   4.264
12760WAT     H138522   0.229   1.576   4.254
12760WAT     H238523   0.068   1.577   4.224
12761WAT      O38524   5.602   9.560   2.666
12761WAT     H138525   5.516   9.535   2.709
12761WAT     H238526   5.668   9.587   2.736
12762WAT      O38527   0.311   0.567   0.840
12762WAT     H138528   0.389   0.525   0.888
12762WAT     H238529   0.227   0.547   0.891
12763WAT      O38530   2.575   7.222   8.615
12763WAT     H138531   2.484   7.235   8.656
12763WAT     H238532   2.589   7.292   8.544
12764WAT      O38533   6.914   1.178   1.548
12764WAT     H138534   6.869   1.096   1.514
12764WAT     H238535   6.849   1.232   1.602
12765WAT      O38536   6.984   2.863   6.229
12765WAT     H138537   7.048   2.937   6.209
12765WAT     H238538   6.919   2.894   6.298
12766WAT      O38539   9.793   9.010   2.015
12766WAT     H138540   9.834   9.035   1.927
12766WAT     H238541   9.829   9.069   2.087
12767WAT      O38542   1.978   8.494   4.131
12767WAT     H138543   1.974   8.594   4.131
12767WAT     H238544   2.028   8.463   4.050
12768WAT      O38545   8.727   5.197   7.288
12768WAT     H138546   8.712   5.176   7.191
12768WAT     H238547   8.820   5.172   7.314
12769WAT      O38548   6.928   4.456   7.217
12769WAT     H138549   6.855   4.393   7.187
12769WAT     H238550   7.005   4.449   7.154
12770WAT      O38551   5.913   0.810   4.752
12770WAT     H138552   5.919   0.907   4.775
12770WAT     H238553   6.005   0.772   4.742
12771WAT      O38554   9.743   3.576   8.129
12771WAT     H138555   9.674   3.505   8.119
12771WAT     H238556   9.787   3.568   8.219
12772WAT      O38557   2.564   5.549   3.178
12772WAT     H138558   2.579   5.637   3.132
12772WAT     H238559   2.652   5.512   3.207
12773WAT      O38560   4.563   3.372   9.491
12773WAT     H138561   4.467   3.345   9.504
12773WAT     H238562   4.587   3.364   9.394
12774WAT      O38563   6.280   9.611   3.189
12774WAT     H138564   6.359   9.586   3.245
12774WAT     H238565   6.256   9.534   3.129
12775WAT      O38566   4.450   3.519   2.254
12775WAT     H138567   4.454   3.477   2.164
12775WAT     H238568   4.391   3.600   2.251
12776WAT      O38569   6.248   7.247   2.768
12776WAT     H138570   6.301   7.303   2.704
12776WAT     H238571   6.247   7.152   2.737
12777WAT      O38572   0.849   3.769   5.332
12777WAT     H138573   0.833   3.671   5.326
12777WAT     H238574   0.883   3.802   5.244
12778WAT      O38575   7.566   5.414   2.124
12778WAT     H138576   7.642   5.449   2.177
12778WAT     H238577   7.496   5.377   2.185
12779WAT      O38578   7.292   3.559   6.873
12779WAT     H138579   7.192   3.565   6.866
12779WAT     H238580   7.331   3.538   6.783
12780WAT      O38581   1.333   3.686   6.602
12780WAT     H138582   1.431   3.678   6.580
12780WAT     H238583   1.286   3.729   6.525
12781WAT      O38584   1.369   5.550   3.660
12781WAT     H138585   1.324   5.529   3.573
12781WAT     H238586   1.453   5.496   3.668
12782WAT      O38587   7.615   3.606   2.226
12782WAT     H138588   7.520   3.602   2.255
12782WAT     H238589   7.628   3.686   2.167
12783WAT      O38590   7.677   5.893   3.385
12783WAT     H138591   7.591   5.943   3.369
12783WAT     H238592   7.754   5.956   3.375
12784WAT      O38593   1.829   9.161   6.138
12784WAT     H138594   1.902   9.100   6.168
12784WAT     H238595   1.756   9.162   6.206
12785WAT      O38596   6.256   7.595   8.917
12785WAT     H138597   6.308   7.560   8.839
12785WAT     H238598   6.242   7.521   8.983
12786WAT      O38599   1.137   3.090   3.153
12786WAT     H138600   1.110   3.007   3.202
12786WAT     H238601   1.061   3.156   3.154
12787WAT      O38602   0.771   7.149   7.656
12787WAT     H138603   0.711   7.087   7.706
12787WAT     H238604   0.766   7.129   7.558
12788WAT      O38605   9.430   6.939   5.729
12788WAT     H138606   9.516   6.925   5.680
12788WAT     H238607   9.442   6.918   5.826
12789WAT      O38608   2.635   5.773   9.669
12789WAT     H138609   2.587   5.842   9.615
12789WAT     H238610   2.649   5.806   9.762
12790WAT      O38611   5.950   6.699   3.169
12790WAT     H138612   5.873   6.637   3.181
12790WAT     H238613   6.027   6.668   3.226
12791WAT      O38614   1.977   0.164   0.461
12791WAT     H138615   1.890   0.204   0.488
12791WAT     H238616   1.973   0.065   0.471
12792WAT      O38617   9.396   9.809   3.273
12792WAT     H138618   9.406   9.755   3.189
12792WAT     H238619   9.327   9.880   3.258
12793WAT      O38620   3.089   0.795   8.775
12793WAT     H138621   3.103   0.785   8.874
12793WAT     H238622   3.176   0.815   8.731
12794WAT      O38623   6.569   7.174   0.614
12794WAT     H138624   6.617   7.185   0.527
12794WAT     H238625   6.497   7.244   0.621
12795WAT      O38626   1.451   2.648   0.670
12795WAT     H138627   1.413   2.669   0.581
12795WAT     H238628   1.408   2.704   0.740
12796WAT      O38629   1.193   1.065   8.340
12796WAT     H138630   1.172   1.152   8.385
12796WAT     H238631   1.287   1.039   8.361
12797WAT      O38632   8.926   8.218   8.447
12797WAT     H138633   9.003   8.175   8.401
12797WAT     H238634   8.862   8.148   8.479
12798WAT      O38635   8.525   6.261   1.450
12798WAT     H138636   8.546   6.352   1.416
12798WAT     H238637   8.426   6.248   1.450
12799WAT      O38638   4.792   7.156   3.282
12799WAT     H138639   4.871   7.128   3.228
12799WAT     H238640   4.749   7.236   3.239
12800WAT      O38641   4.232   4.629   7.742
12800WAT     H138642   4.165   4.573   7.693
12800WAT     H238643   4.247   4.714   7.692
12801WAT      O38644   0.898   6.471   6.106
12801WAT     H138645   0.846   6.529   6.169
12801WAT     H238646   0.840   6.446   6.028
12802WAT      O38647   8.645   9.386   6.390
12802WAT     H138648   8.656   9.486   6.387
12802WAT     H238649   8.568   9.360   6.333
12803WAT      O38650   1.391   3.195   6.423
12803WAT     H138651   1.365   3.251   6.501
12803WAT     H238652   1.484   3.160   6.436
12804WAT      O38653   8.420   6.037   7.539
12804WAT     H138654   8.324   6.010   7.533
12804WAT     H238655   8.446   6.089   7.458
12805WAT      O38656   2.359   7.366   8.405
12805WAT     H138657   2.387   7.454   8.369
12805WAT     H238658   2.358   7.370   8.505
12806WAT      O38659   4.798   4.905   7.946
12806WAT     H138660   4.805   4.894   7.847
12806WAT     H238661   4.842   4.828   7.992
12807WAT      O38662   5.549   2.727   8.346
12807WAT     H138663   5.582   2.662   8.415
12807WAT     H238664   5.464   2.768   8.378
12808WAT      O38665   1.030   4.463   4.804
12808WAT     H138666   1.101   4.522   4.765
12808WAT     H238667   0.997   4.400   4.734
12809WAT      O38668   6.132   0.583   7.244
12809WAT     H138669   6.145   0.522   7.322
12809WAT     H238670   6.054   0.552   7.190
12810WAT      O38671   7.626   5.812   3.046
12810WAT     H138672   7.700   5.748   3.062
12810WAT     H238673   7.656   5.884   2.984
12811WAT      O38674   7.206   4.962   7.869
12811WAT     H138675   7.283   4.956   7.933
12811WAT     H238676   7.218   5.042   7.811
12812WAT      O38677   2.635   8.027   3.940
12812WAT     H138678   2.662   8.097   3.874
12812WAT     H238679   2.539   8.040   3.965
12813WAT      O38680   8.016   7.429   2.053
12813WAT     H138681   7.930   7.477   2.038
12813WAT     H238682   8.062   7.415   1.965
12814WAT      O38683   7.722   3.417   5.033
12814WAT     H138684   7.647   3.484   5.034
12814WAT     H238685   7.683   3.324   5.032
12815WAT      O38686   2.731   7.238   6.514
12815WAT     H138687   2.657   7.305   6.511
12815WAT     H238688   2.784   7.243   6.429
12816WAT      O38689   8.569   4.427   3.124
12816WAT     H138690   8.601   4.390   3.037
12816WAT     H238691   8.489   4.375   3.154
12817WAT      O38692   6.359   7.625   7.588
12817WAT     H138693   6.313   7.667   7.509
12817WAT     H238694   6.298   7.627   7.667
12818WAT      O38695   3.164   1.386   0.412
12818WAT     H138696   3.079   1.338   0.434
12818WAT     H238697   3.194   1.438   0.492
12819WAT      O38698   0.841   3.821   5.043
12819WAT     H138699   0.764   3.790   4.987
12819WAT     H238700   0.922   3.766   5.022
12820WAT      O38701   1.017   0.079   1.125
12820WAT     H138702   1.087   0.150   1.117
12820WAT     H238703   0.980   0.079   1.219
12821WAT      O38704   0.962   9.187   6.685
12821WAT     H138705   1.005   9.097   6.682
12821WAT     H238706   0.874   9.183   6.638
12822WAT      O38707   9.313   4.449   8.555
12822WAT     H138708   9.410   4.470   8.564
12822WAT     H238709   9.299   4.350   8.557
12823WAT      O38710   5.973   5.110   1.495
12823WAT     H138711   6.001   5.192   1.546
12823WAT     H238712   6.004   5.118   1.400
12824WAT      O38713   9.649   8.964   3.259
12824WAT     H138714   9.679   9.056   3.285
12824WAT     H238715   9.577   8.970   3.191
12825WAT      O38716   2.565   5.397   0.680
12825WAT     H138717   2.524   5.467   0.740
12825WAT     H238718   2.527   5.307   0.703
12826WAT      O38719   0.809   0.691   0.239
12826WAT     H138720   0.824   0.648   0.150
12826WAT     H238721   0.712   0.684   0.263
12827WAT      O38722   0.103   4.525   7.291
12827WAT     H138723   0.115   4.534   7.390
12827WAT     H238724   0.011   4.555   7.266
12828WAT      O38725   8.135   7.403   1.787
12828WAT     H138726   8.197   7.473   1.751
12828WAT     H238727   8.052   7.401   1.732
12829WAT      O38728   3.486   0.425   5.646
12829WAT     H138729   3.535   0.483   5.712
12829WAT     H238730   3.500   0.329   5.670
12830WAT      O38731   5.510   0.637   8.536
12830WAT     H138732   5.530   0.665   8.630
12830WAT     H238733   5.458   0.709   8.490
12831WAT      O38734   7.033   1.480   1.222
12831WAT     H138735   6.940   1.516   1.230
12831WAT     H238736   7.030   1.384   1.195
12832WAT      O38737   4.028   8.585   4.497
12832WAT     H138738   4.037   8.682   4.517
12832WAT     H238739   4.090   8.533   4.555
12833WAT      O38740   1.595   3.168   3.019
12833WAT     H138741   1.540   3.168   3.102
12833WAT     H238742   1.677   3.112   3.033
12834WAT      O38743   2.489   4.248   8.534
12834WAT     H138744   2.428   4.326   8.546
12834WAT     H238745   2.583   4.280   8.526
12835WAT      O38746   9.787   1.588   9.429
12835WAT     H138747   9.727   1.527   9.377
12835WAT     H238748   9.775   1.682   9.395
12836WAT      O38749   6.002   1.038   5.805
12836WAT     H138750   6.049   0.991   5.880
12836WAT     H238751   5.966   0.970   5.742
12837WAT      O38752   0.081   2.496   0.024
12837WAT     H138753   0.061   2.400   0.004
12837WAT     H238754   0.082   2.549  -0.061
12838WAT      O38755   6.217   1.481   1.544
12838WAT     H138756   6.160   1.471   1.625
12838WAT     H238757   6.303   1.526   1.569
12839WAT      O38758   1.719   3.460   5.746
12839WAT     H138759   1.792   3.457   5.815
12839WAT     H238760   1.757   3.492   5.659
12840WAT      O38761   8.816   5.675   8.631
12840WAT     H138762   8.879   5.603   8.600
12840WAT     H238763   8.868   5.759   8.646
12841WAT      O38764   2.266   4.536   6.050
12841WAT     H138765   2.235   4.609   6.111
12841WAT     H238766   2.249   4.447   6.094
12842WAT      O38767   6.565   2.127   4.772
12842WAT     H138768   6.473   2.086   4.769
12842WAT     H238769   6.617   2.098   4.692
12843WAT      O38770   3.919   0.988   4.317
12843WAT     H138771   3.933   1.006   4.414
12843WAT     H238772   3.952   0.896   4.295
12844WAT      O38773   5.514   8.783   2.399
12844WAT     H138774   5.570   8.865   2.386
12844WAT     H238775   5.537   8.716   2.328
12845WAT      O38776   1.612   8.763   5.542
12845WAT     H138777   1.569   8.829   5.604
12845WAT     H238778   1.544   8.694   5.515
12846WAT      O38779   7.639   6.290   7.580
12846WAT     H138780   7.639   6.320   7.676
12846WAT     H238781   7.622   6.369   7.521
12847WAT      O38782   1.472   6.703   8.426
12847WAT     H138783   1.488   6.798   8.453
12847WAT     H238784   1.401   6.701   8.356
12848WAT      O38785   7.002   1.337   8.331
12848WAT     H138786   6.972   1.420   8.379
12848WAT     H238787   7.095   1.315   8.360
12849WAT      O38788   3.060   8.169   6.647
12849WAT     H138789   3.134   8.207   6.702
12849WAT     H238790   3.070   8.069   6.641
12850WAT      O38791   1.416   3.661   1.113
12850WAT     H138792   1.374   3.668   1.023
12850WAT     H238793   1.510   3.630   1.104
12851WAT      O38794   0.993   5.966   6.425
12851WAT     H138795   0.957   6.040   6.481
12851WAT     H238796   1.004   5.884   6.482
12852WAT      O38797   8.802   1.586   1.599
12852WAT     H138798   8.893   1.547   1.588
12852WAT     H238799   8.771   1.625   1.512
12853WAT      O38800   8.749   5.717   6.724
12853WAT     H138801   8.796   5.673   6.647
12853WAT     H238802   8.650   5.707   6.713
12854WAT      O38803   4.349   8.493   2.021
12854WAT     H138804   4.383   8.399   2.020
12854WAT     H238805   4.254   8.494   2.052
12855WAT      O38806   9.178   5.170   3.163
12855WAT     H138807   9.199   5.237   3.091
12855WAT     H238808   9.226   5.085   3.143
12856WAT      O38809   4.732   8.456   8.515
12856WAT     H138810   4.802   8.522   8.539
12856WAT     H238811   4.671   8.495   8.446
12857WAT      O38812   7.887   6.036   8.714
12857WAT     H138813   7.976   6.065   8.751
12857WAT     H238814   7.897   5.947   8.670
12858WAT      O38815   7.002   2.506   2.685
12858WAT     H138816   7.031   2.512   2.590
12858WAT     H238817   7.059   2.441   2.734
12859WAT      O38818   1.958   9.360   0.778
12859WAT     H138819   1.943   9.377   0.681
12859WAT     H238820   1.972   9.447   0.825
12860WAT      O38821   1.940   0.080   8.353
12860WAT     H138822   1.913   0.175   8.360
12860WAT     H238823   1.986   0.051   8.437
12861WAT      O38824   8.926   1.854   3.109
12861WAT     H138825   8.896   1.768   3.068
12861WAT     H238826   9.014   1.841   3.155
12862WAT      O38827   5.543   7.424   7.953
12862WAT     H138828   5.595   7.376   8.024
12862WAT     H238829   5.606   7.465   7.887
12863WAT      O38830   8.384   2.856   2.148
12863WAT     H138831   8.329   2.780   2.114
12863WAT     H238832   8.459   2.875   2.085
12864WAT      O38833   5.419   1.363   0.809
12864WAT     H138834   5.375   1.308   0.880
12864WAT     H238835   5.516   1.374   0.830
12865WAT      O38836   4.371   4.133   8.212
12865WAT     H138837   4.456   4.153   8.261
12865WAT     H238838   4.370   4.037   8.184
12866WAT      O38839   7.247   2.325   4.872
12866WAT     H138840   7.190   2.312   4.791
12866WAT     H238841   7.203   2.283   4.951
12867WAT      O38842   9.847   6.101   2.375
12867WAT     H138843   9.839   6.125   2.278
12867WAT     H238844   9.942   6.079   2.396
12868WAT      O38845   0.196   5.322   3.948
12868WAT     H138846   0.124   5.272   3.996
12868WAT     H238847   0.159   5.364   3.865
12869WAT      O38848   2.864   0.396   2.712
12869WAT     H138849   2.889   0.300   2.701
12869WAT     H238850   2.875   0.423   2.808
12870WAT      O38851   2.953   7.046   1.754
12870WAT     H138852   3.012   7.113   1.710
12870WAT     H238853   2.894   7.002   1.686
12871WAT      O38854   9.175   2.156   6.070
12871WAT     H138855   9.229   2.217   6.128
12871WAT     H238856   9.218   2.066   6.067
12872WAT      O38857   5.226   8.175   5.583
12872WAT     H138858   5.241   8.115   5.505
12872WAT     H238859   5.168   8.128   5.650
12873WAT      O38860   4.228   9.757   9.834
12873WAT     H138861   4.140   9.804   9.837
12873WAT     H238862   4.258   9.736   9.928
12874WAT      O38863   5.704   6.898   0.510
12874WAT     H138864   5.681   6.875   0.605
12874WAT     H238865   5.670   6.990   0.489
12875WAT      O38866   5.592   1.836   6.380
12875WAT     H138867   5.679   1.871   6.345
12875WAT     H238868   5.608   1.754   6.433
12876WAT      O38869   0.333   9.461   8.070
12876WAT     H138870   0.362   9.505   7.985
12876WAT     H238871   0.264   9.519   8.115
12877WAT      O38872   7.799   3.268   7.385
12877WAT     H138873   7.870   3.338   7.377
12877WAT     H238874   7.767   3.263   7.479
12878WAT      O38875   4.388   9.601   2.355
12878WAT     H138876   4.320   9.576   2.424
12878WAT     H238877   4.405   9.522   2.296
12879WAT      O38878   9.285   6.247   2.975
12879WAT     H138879   9.222   6.188   3.025
12879WAT     H238880   9.263   6.343   2.993
12880WAT      O38881   2.598   6.902   2.522
12880WAT     H138882   2.608   6.919   2.424
12880WAT     H238883   2.527   6.834   2.538
12881WAT      O38884   2.407   5.315   1.910
12881WAT     H138885   2.500   5.334   1.943
12881WAT     H238886   2.341   5.337   1.982
12882WAT      O38887   0.885   6.869   5.408
12882WAT     H138888   0.947   6.792   5.425
12882WAT     H238889   0.815   6.841   5.343
12883WAT      O38890   1.769   4.790   8.385
12883WAT     H138891   1.791   4.884   8.412
12883WAT     H238892   1.808   4.726   8.451
12884WAT      O38893   6.168   1.511   1.848
12884WAT     H138894   6.083   1.470   1.813
12884WAT     H238895   6.172   1.498   1.947
12885WAT      O38896   1.332   7.885   8.441
12885WAT     H138897   1.342   7.869   8.342
12885WAT     H238898   1.236   7.879   8.466
12886WAT      O38899   4.963   7.906   5.035
12886WAT     H138900   4.890   7.969   5.060
12886WAT     H238901   4.965   7.896   4.935
12887WAT      O38902   3.590   1.502   8.972
12887WAT     H138903   3.602   1.562   8.893
12887WAT     H238904   3.563   1.557   9.051
12888WAT      O38905   2.029   4.640   4.122
12888WAT     H138906   2.048   4.542   4.126
12888WAT     H238907   1.946   4.660   4.173
12889WAT      O38908   2.711   8.254   3.800
12889WAT     H138909   2.751   8.276   3.711
12889WAT     H238910   2.760   8.304   3.872
12890WAT      O38911   4.567   2.438   2.411
12890WAT     H138912   4.607   2.512   2.465
12890WAT     H238913   4.614   2.432   2.323
12891WAT      O38914   3.508   6.577   6.065
12891WAT     H138915   3.535   6.520   6.142
12891WAT     H238916   3.502   6.521   5.982
12892WAT      O38917   5.311   6.860   9.670
12892WAT     H138918   5.336   6.933   9.733
12892WAT     H238919   5.391   6.832   9.618
12893WAT      O38920   9.174   0.144   3.228
12893WAT     H138921   9.111   0.201   3.174
12893WAT     H238922   9.215   0.199   3.301
12894WAT      O38923   4.483   7.981   1.322
12894WAT     H138924   4.438   8.011   1.406
12894WAT     H238925   4.582   7.975   1.337
12895WAT      O38926   1.001   7.580   1.899
12895WAT     H138927   1.013   7.664   1.950
12895WAT     H238928   1.013   7.501   1.960
12896WAT      O38929   0.024   7.556   6.380
12896WAT     H138930  -0.002   7.506   6.297
12896WAT     H238931  -0.043   7.627   6.399
12897WAT      O38932   5.085   2.211   2.693
12897WAT     H138933   5.053   2.304   2.711
12897WAT     H238934   5.059   2.183   2.601
12898WAT      O38935   8.177   2.947   4.384
12898WAT     H138936   8.223   2.973   4.469
12898WAT     H238937   8.178   3.024   4.321
12899WAT      O38938   1.129   4.885   9.349
12899WAT     H138939   1.089   4.794   9.352
12899WAT     H238940   1.226   4.878   9.325
12900WAT      O38941   8.618   5.831   2.418
12900WAT     H138942   8.624   5.826   2.518
12900WAT     H238943   8.529   5.797   2.388
12901WAT      O38944   6.297   1.294   7.204
12901WAT     H138945   6.297   1.194   7.215
12901WAT     H238946   6.287   1.317   7.107
12902WAT      O38947   7.823   7.229   6.969
12902WAT     H138948   7.750   7.277   6.920
12902WAT     H238949   7.897   7.293   6.990
12903WAT      O38950   7.123   5.989   9.481
12903WAT     H138951   7.033   6.026   9.503
12903WAT     H238952   7.126   5.892   9.507
12904WAT      O38953   2.406   7.723   4.004
12904WAT     H138954   2.427   7.658   3.930
12904WAT     H238955   2.461   7.700   4.085
12905WAT      O38956   1.173   2.224   4.297
12905WAT     H138957   1.150   2.302   4.240
12905WAT     H238958   1.090   2.182   4.332
12906WAT      O38959   8.087   8.963   9.414
12906WAT     H138960   8.130   8.874   9.431
12906WAT     H238961   8.143   9.015   9.349
12907WAT      O38962   6.853   6.104   2.937
12907WAT     H138963   6.812   6.154   2.860
12907WAT     H238964   6.843   6.157   3.021
12908WAT      O38965   0.262   2.182   6.032
12908WAT     H138966   0.250   2.109   6.099
12908WAT     H238967   0.221   2.266   6.066
12909WAT      O38968   9.590   7.978   8.409
12909WAT     H138969   9.648   7.997   8.488
12909WAT     H238970   9.513   7.920   8.437
12910WAT      O38971   5.453   0.922   8.821
12910WAT     H138972   5.528   0.988   8.823
12910WAT     H238973   5.490   0.829   8.816
12911WAT      O38974   5.869   9.822   7.768
12911WAT     H138975   5.831   9.915   7.767
12911WAT     H238976   5.795   9.755   7.761
12912WAT      O38977   7.008   1.684   7.470
12912WAT     H138978   7.015   1.707   7.567
12912WAT     H238979   7.029   1.765   7.415
12913WAT      O38980   0.260   8.242   6.275
12913WAT     H138981   0.252   8.222   6.178
12913WAT     H238982   0.188   8.307   6.302
12914WAT      O38983   6.102   5.735   0.639
12914WAT     H138984   6.182   5.724   0.579
12914WAT     H238985   6.122   5.696   0.729
12915WAT      O38986   2.031   5.024   6.460
12915WAT     H138987   2.007   4.983   6.371
12915WAT     H238988   1.969   5.100   6.479
12916WAT      O38989   8.513   8.265   8.324
12916WAT     H138990   8.460   8.345   8.350
12916WAT     H238991   8.511   8.198   8.399
12917WAT      O38992   1.804   1.894   4.312
12917WAT     H138993   1.838   1.945   4.391
12917WAT     H238994   1.866   1.817   4.294
12918WAT      O38995   6.657   5.459   2.562
12918WAT     H138996   6.578   5.517   2.584
12918WAT     H238997   6.727   5.515   2.518
12919WAT      O38998   3.328   3.171   0.802
12919WAT     H138999   3.298   3.081   0.768
12919WAT     H239000   3.256   3.210   0.859
12920WAT      O39001   7.765   3.762   4.578
12920WAT     H139002   7.691   3.705   4.540
12920WAT     H239003   7.836   3.775   4.510
12921WAT      O39004   7.403   5.677   7.006
12921WAT     H139005   7.471   5.636   6.945
12921WAT     H239006   7.448   5.708   7.090
12922WAT      O39007   9.432   5.582   1.122
12922WAT     H139008   9.506   5.620   1.067
12922WAT     H239009   9.373   5.526   1.064
12923WAT      O39010   2.565   6.815   7.678
12923WAT     H139011   2.587   6.740   7.740
12923WAT     H239012   2.648   6.866   7.657
12924WAT      O39013   2.953   2.019   0.148
12924WAT     H139014   3.039   2.061   0.176
12924WAT     H239015   2.956   1.921   0.167
12925WAT      O39016   2.001   5.042   6.842
12925WAT     H139017   2.013   4.985   6.923
12925WAT     H239018   1.904   5.066   6.833
12926WAT      O39019   6.039   1.089   1.183
12926WAT     H139020   6.030   1.129   1.274
12926WAT     H239021   6.089   1.003   1.189
12927WAT      O39022   0.395   4.177   4.085
12927WAT     H139023   0.366   4.211   4.174
12927WAT     H239024   0.444   4.249   4.036
12928WAT      O39025   0.108   6.327   2.948
12928WAT     H139026   0.047   6.406   2.945
12928WAT     H239027   0.163   6.331   3.031
12929WAT      O39028   3.028   1.455   3.307
12929WAT     H139029   2.959   1.466   3.379
12929WAT     H239030   3.065   1.362   3.312
12930WAT      O39031   9.402   2.294   5.810
12930WAT     H139032   9.308   2.328   5.813
12930WAT     H239033   9.464   2.370   5.786
12931WAT      O39034   8.389   6.869   5.806
12931WAT     H139035   8.396   6.801   5.879
12931WAT     H239036   8.304   6.854   5.756
12932WAT      O39037   2.399   4.489   3.529
12932WAT     H139038   2.472   4.468   3.464
12932WAT     H239039   2.312   4.452   3.496
12933WAT      O39040   3.361   8.804   6.713
12933WAT     H139041   3.265   8.780   6.728
12933WAT     H239042   3.373   8.902   6.723
12934WAT      O39043   3.696   3.072   7.522
12934WAT     H139044   3.720   3.121   7.438
12934WAT     H239045   3.638   3.130   7.579
12935WAT      O39046   6.434   7.416   9.255
12935WAT     H139047   6.470   7.396   9.346
12935WAT     H239048   6.510   7.426   9.190
12936WAT      O39049   3.260   6.439   8.523
12936WAT     H139050   3.180   6.499   8.532
12936WAT     H239051   3.236   6.360   8.466
12937WAT      O39052   8.378   0.385   1.712
12937WAT     H139053   8.475   0.387   1.737
12937WAT     H239054   8.336   0.302   1.749
12938WAT      O39055   4.472   5.290   6.862
12938WAT     H139056   4.483   5.322   6.768
12938WAT     H239057   4.390   5.233   6.869
12939WAT      O39058   8.888   2.081   0.982
12939WAT     H139059   8.788   2.078   0.987
12939WAT     H239060   8.916   2.102   0.888
12940WAT      O39061   9.792   5.955   7.436
12940WAT     H139062   9.864   5.985   7.372
12940WAT     H239063   9.798   5.856   7.448
12941WAT      O39064   0.963   6.201   3.222
12941WAT     H139065   0.877   6.243   3.195
12941WAT     H239066   0.994   6.242   3.308
12942WAT      O39067   1.333   7.895   1.045
12942WAT     H139068   1.364   7.968   0.985
12942WAT     H239069   1.238   7.872   1.023
12943WAT      O39070   8.223   7.103   5.532
12943WAT     H139071   8.285   7.129   5.606
12943WAT     H239072   8.242   7.159   5.451
12944WAT      O39073   9.495   4.831   8.178
12944WAT     H139074   9.464   4.810   8.271
12944WAT     H239075   9.499   4.747   8.125
12945WAT      O39076   6.963   6.223   4.443
12945WAT     H139077   6.983   6.174   4.528
12945WAT     H239078   6.866   6.218   4.423
12946WAT      O39079   8.967   4.095   2.126
12946WAT     H139080   8.987   4.179   2.176
12946WAT     H239081   9.011   4.017   2.172
12947WAT      O39082   7.360   9.354   9.025
12947WAT     H139083   7.375   9.401   8.938
12947WAT     H239084   7.444   9.357   9.079
12948WAT      O39085   6.949   1.070   9.625
12948WAT     H139086   6.899   1.053   9.710
12948WAT     H239087   6.952   0.987   9.570
12949WAT      O39088   6.356   8.779   9.238
12949WAT     H139089   6.370   8.728   9.322
12949WAT     H239090   6.444   8.796   9.194
12950WAT      O39091   9.678   1.226   7.210
12950WAT     H139092   9.617   1.305   7.209
12950WAT     H239093   9.660   1.171   7.291
12951WAT      O39094   0.653   7.248   0.904
12951WAT     H139095   0.678   7.246   1.001
12951WAT     H239096   0.666   7.340   0.868
12952WAT      O39097   5.924   1.176   0.337
12952WAT     H139098   5.907   1.233   0.417
12952WAT     H239099   5.881   1.218   0.257
12953WAT      O39100   4.758   7.800   4.710
12953WAT     H139101   4.758   7.759   4.619
12953WAT     H239102   4.675   7.771   4.759
12954WAT      O39103   9.202   7.345   7.375
12954WAT     H139104   9.131   7.413   7.356
12954WAT     H239105   9.175   7.290   7.454
12955WAT      O39106   1.408   3.993   8.921
12955WAT     H139107   1.443   4.086   8.919
12955WAT     H239108   1.358   3.974   8.836
12956WAT      O39109   8.582   4.772   0.920
12956WAT     H139110   8.678   4.749   0.907
12956WAT     H239111   8.550   4.733   1.007
12957WAT      O39112   5.482   7.184   2.467
12957WAT     H139113   5.573   7.178   2.506
12957WAT     H239114   5.415   7.144   2.530
12958WAT      O39115   9.399   0.590   7.014
12958WAT     H139116   9.475   0.577   6.951
12958WAT     H239117   9.402   0.682   7.052
12959WAT      O39118   2.075   4.057   7.888
12959WAT     H139119   2.042   4.080   7.979
12959WAT     H239120   2.134   4.130   7.855
12960WAT      O39121   4.216   8.984   0.044
12960WAT     H139122   4.120   8.976   0.070
12960WAT     H239123   4.232   9.075   0.005
12961WAT      O39124   4.901   2.541   0.983
12961WAT     H139125   4.921   2.609   1.053
12961WAT     H239126   4.836   2.474   1.020
12962WAT      O39127   2.507   0.803   7.072
12962WAT     H139128   2.545   0.830   7.160
12962WAT     H239129   2.556   0.722   7.039
12963WAT      O39130   2.570   5.811   8.294
12963WAT     H139131   2.570   5.845   8.388
12963WAT     H239132   2.594   5.714   8.294
12964WAT      O39133   7.236   1.544   5.088
12964WAT     H139134   7.219   1.638   5.061
12964WAT     H239135   7.324   1.538   5.136
12965WAT      O39136   3.404   8.186   8.203
12965WAT     H139137   3.430   8.168   8.298
12965WAT     H239138   3.337   8.260   8.201
12966WAT      O39139   0.907   4.409   5.048
12966WAT     H139140   0.940   4.327   5.093
12966WAT     H239141   0.953   4.420   4.959
12967WAT      O39142   4.344   3.514   8.317
12967WAT     H139143   4.393   3.471   8.241
12967WAT     H239144   4.352   3.457   8.399
12968WAT      O39145   1.192   9.613   5.293
12968WAT     H139146   1.172   9.655   5.382
12968WAT     H239147   1.111   9.619   5.235
12969WAT      O39148   2.956   9.262   6.104
12969WAT     H139149   2.913   9.299   6.186
12969WAT     H239150   2.892   9.267   6.028
12970WAT      O39151   6.961   2.459   7.588
12970WAT     H139152   6.961   2.447   7.488
12970WAT     H239153   6.919   2.547   7.610
12971WAT      O39154   7.578   4.735   1.609
12971WAT     H139155   7.635   4.681   1.671
12971WAT     H239156   7.535   4.675   1.542
12972WAT      O39157   3.899   9.640   9.475
12972WAT     H139158   3.822   9.642   9.412
12972WAT     H239159   3.904   9.550   9.519
12973WAT      O39160   4.692   5.611   8.456
12973WAT     H139161   4.604   5.602   8.410
12973WAT     H239162   4.744   5.526   8.446
12974WAT      O39163   4.377   6.337   0.985
12974WAT     H139164   4.384   6.360   1.082
12974WAT     H239165   4.291   6.372   0.948
12975WAT      O39166   3.143   0.780   6.643
12975WAT     H139167   3.102   0.762   6.733
12975WAT     H239168   3.217   0.715   6.627
12976WAT      O39169   1.061   4.812   4.436
12976WAT     H139170   1.122   4.888   4.460
12976WAT     H239171   1.058   4.802   4.337
12977WAT      O39172   3.646   8.240   3.668
12977WAT     H139173   3.570   8.205   3.614
12977WAT     H239174   3.636   8.338   3.682
12978WAT      O39175   3.900   0.168   7.111
12978WAT     H139176   3.957   0.243   7.143
12978WAT     H239177   3.834   0.142   7.182
12979WAT      O39178   6.064   4.295   8.440
12979WAT     H139179   6.034   4.307   8.534
12979WAT     H239180   5.989   4.257   8.386
12980WAT      O39181   3.312   7.418   3.370
12980WAT     H139182   3.232   7.449   3.421
12980WAT     H239183   3.294   7.327   3.332
12981WAT      O39184   5.278   1.895   1.005
12981WAT     H139185   5.211   1.951   1.054
12981WAT     H239186   5.318   1.828   1.068
12982WAT      O39187   0.895   5.698   4.493
12982WAT     H139188   0.858   5.614   4.532
12982WAT     H239189   0.860   5.709   4.399
12983WAT      O39190   8.828   6.563   1.429
12983WAT     H139191   8.907   6.570   1.368
12983WAT     H239192   8.840   6.482   1.488
12984WAT      O39193   6.966   1.000   6.299
12984WAT     H139194   6.953   0.938   6.377
12984WAT     H239195   6.913   0.966   6.221
12985WAT      O39196   7.288   2.691   4.009
12985WAT     H139197   7.250   2.778   4.040
12985WAT     H239198   7.218   2.620   4.017
12986WAT      O39199   7.181   7.930   0.771
12986WAT     H139200   7.166   7.856   0.705
12986WAT     H239201   7.197   7.892   0.862
12987WAT      O39202   7.777   9.579   3.611
12987WAT     H139203   7.797   9.490   3.572
12987WAT     H239204   7.850   9.605   3.674
12988WAT      O39205   6.410   5.167   4.871
12988WAT     H139206   6.429   5.149   4.774
12988WAT     H239207   6.443   5.091   4.926
12989WAT      O39208   4.536   2.287   5.739
12989WAT     H139209   4.537   2.321   5.645
12989WAT     H239210   4.630   2.278   5.773
12990WAT      O39211   6.036   2.014   8.425
12990WAT     H139212   5.988   2.022   8.512
12990WAT     H239213   5.998   1.938   8.373
12991WAT      O39214   4.350   9.608   7.058
12991WAT     H139215   4.267   9.568   7.018
12991WAT     H239216   4.430   9.560   7.024
12992WAT      O39217   1.283   1.565   9.115
12992WAT     H139218   1.306   1.555   9.212
12992WAT     H239219   1.184   1.555   9.104
12993WAT      O39220   2.780   6.448   6.381
12993WAT     H139221   2.856   6.469   6.320
12993WAT     H239222   2.770   6.349   6.390
12994WAT      O39223   1.319   6.642   2.321
12994WAT     H139224   1.341   6.731   2.283
12994WAT     H239225   1.234   6.648   2.373
12995WAT      O39226   0.264   5.444   3.579
12995WAT     H139227   0.215   5.364   3.547
12995WAT     H239228   0.303   5.493   3.501
12996WAT      O39229   2.289   0.919   2.963
12996WAT     H139230   2.333   0.962   3.042
12996WAT     H239231   2.196   0.892   2.987
12997WAT      O39232   1.091   4.246   8.855
12997WAT     H139233   1.032   4.231   8.776
12997WAT     H239234   1.039   4.291   8.927
12998WAT      O39235   1.942   7.202   2.002
12998WAT     H139236   1.948   7.274   1.932
12998WAT     H239237   1.936   7.113   1.958
12999WAT      O39238   6.071   0.054   3.569
12999WAT     H139239   5.973   0.074   3.568
12999WAT     H239240   6.097   0.010   3.483
13000WAT      O39241   6.662   3.945   1.229
13000WAT     H139242   6.724   3.897   1.167
13000WAT     H239243   6.578   3.968   1.181
13001WAT      O39244   1.655   5.885   0.668
13001WAT     H139245   1.622   5.802   0.712
13001WAT     H239246   1.746   5.868   0.630
13002WAT      O39247   0.428   4.147   6.261
13002WAT     H139248   0.332   4.133   6.285
13002WAT     H239249   0.436   4.225   6.198
13003WAT      O39250   8.489   3.082   8.151
13003WAT     H139251   8.581   3.119   8.141
13003WAT     H239252   8.427   3.154   8.183
13004WAT      O39253   1.510   4.325   1.702
13004WAT     H139254   1.561   4.391   1.757
13004WAT     H239255   1.419   4.360   1.683
13005WAT      O39256   3.766   3.113   6.095
13005WAT     H139257   3.694   3.043   6.092
13005WAT     H239258   3.808   3.122   6.005
13006WAT      O39259   9.246   2.139   1.060
13006WAT     H139260   9.222   2.132   0.963
13006WAT     H239261   9.163   2.156   1.114
13007WAT      O39262   1.678   7.827   1.892
13007WAT     H139263   1.739   7.774   1.950
13007WAT     H239264   1.658   7.775   1.808
13008WAT      O39265   1.221   1.051   4.519
13008WAT     H139266   1.266   1.108   4.450
13008WAT     H239267   1.200   0.961   4.480
13009WAT      O39268   0.316   6.786   2.097
13009WAT     H139269   0.300   6.805   2.194
13009WAT     H239270   0.279   6.862   2.042
13010WAT      O39271   8.361   7.801   1.863
13010WAT     H139272   8.384   7.876   1.801
13010WAT     H239273   8.275   7.822   1.910
13011WAT      O39274   3.590   0.611   5.840
13011WAT     H139275   3.662   0.582   5.902
13011WAT     H239276   3.630   0.660   5.763
13012WAT      O39277   3.880   2.593   3.845
13012WAT     H139278   3.822   2.523   3.805
13012WAT     H239279   3.953   2.549   3.898
13013WAT      O39280   3.662   8.746   0.372
13013WAT     H139281   3.703   8.723   0.283
13013WAT     H239282   3.647   8.662   0.424
13014WAT      O39283   7.720   7.128   8.409
13014WAT     H139284   7.733   7.030   8.394
13014WAT     H239285   7.786   7.160   8.477
13015WAT      O39286   5.407   9.740   7.633
13015WAT     H139287   5.359   9.671   7.578
13015WAT     H239288   5.502   9.712   7.646
13016WAT      O39289   3.827   6.585   5.498
13016WAT     H139290   3.816   6.486   5.508
13016WAT     H239291   3.755   6.620   5.438
13017WAT      O39292   3.242   6.406   7.402
13017WAT     H139293   3.231   6.357   7.315
13017WAT     H239294   3.179   6.369   7.470
13018WAT      O39295   8.301   8.403   1.282
13018WAT     H139296   8.284   8.502   1.282
13018WAT     H239297   8.393   8.386   1.317
13019WAT      O39298   5.703   3.811   9.733
13019WAT     H139299   5.628   3.862   9.776
13019WAT     H239300   5.790   3.858   9.751
13020WAT      O39301   5.352   6.100   7.567
13020WAT     H139302   5.396   6.163   7.632
13020WAT     H239303   5.421   6.060   7.507
13021WAT      O39304   1.687   6.569   6.809
13021WAT     H139305   1.675   6.632   6.732
13021WAT     H239306   1.662   6.617   6.894
13022WAT      O39307   7.603   4.962   4.554
13022WAT     H139308   7.618   4.876   4.507
13022WAT     H239309   7.659   4.966   4.636
13023WAT      O39310   3.858   4.032   2.106
13023WAT     H139311   3.782   3.975   2.137
13023WAT     H239312   3.922   4.048   2.181
13024WAT      O39313   2.124   5.673   9.174
13024WAT     H139314   2.131   5.657   9.075
13024WAT     H239315   2.038   5.635   9.207
13025WAT      O39316   9.682   9.341   5.397
13025WAT     H139317   9.696   9.244   5.379
13025WAT     H239318   9.604   9.374   5.344
13026WAT      O39319   4.914   8.118   2.384
13026WAT     H139320   4.958   8.100   2.472
13026WAT     H239321   4.972   8.082   2.310
13027WAT      O39322   8.048   3.593   3.728
13027WAT     H139323   8.055   3.649   3.646
13027WAT     H239324   7.984   3.636   3.792
13028WAT      O39325   1.381   3.442   7.689
13028WAT     H139326   1.474   3.454   7.654
13028WAT     H239327   1.347   3.352   7.663
13029WAT      O39328   1.339   7.631   0.657
13029WAT     H139329   1.261   7.688   0.632
13029WAT     H239330   1.403   7.626   0.581
13030WAT      O39331   6.791   1.377   3.507
13030WAT     H139332   6.845   1.329   3.437
13030WAT     H239333   6.735   1.447   3.464
13031WAT      O39334   0.340   1.852   5.262
13031WAT     H139335   0.394   1.787   5.207
13031WAT     H239336   0.247   1.856   5.226
13032WAT      O39337   8.190   5.342   2.276
13032WAT     H139338   8.114   5.343   2.211
13032WAT     H239339   8.249   5.421   2.261
13033WAT      O39340   7.405   3.949   0.027
13033WAT     H139341   7.371   3.862  -0.007
13033WAT     H239342   7.330   4.016   0.028
13034WAT      O39343   4.940   3.536   9.850
13034WAT     H139344   4.875   3.464   9.878
13034WAT     H239345   4.969   3.587   9.931
13035WAT      O39346   5.677   3.321   7.249
13035WAT     H139347   5.649   3.225   7.248
13035WAT     H239348   5.771   3.329   7.214
13036WAT      O39349   6.893   4.202   3.915
13036WAT     H139350   6.821   4.233   3.853
13036WAT     H239351   6.925   4.279   3.970
13037WAT      O39352   4.401   3.184   2.643
13037WAT     H139353   4.498   3.158   2.641
13037WAT     H239354   4.389   3.269   2.593
13038WAT      O39355   6.032   3.966   2.975
13038WAT     H139356   5.951   4.024   2.967
13038WAT     H239357   6.086   3.973   2.891
13039WAT      O39358   8.701   1.917   6.925
13039WAT     H139359   8.703   1.971   7.009
13039WAT     H239360   8.667   1.974   6.850
13040WAT      O39361   4.043   5.273   0.609
13040WAT     H139362   4.123   5.318   0.649
13040WAT     H239363   4.017   5.195   0.666
13041WAT      O39364   8.621   6.286   4.593
13041WAT     H139365   8.631   6.299   4.691
13041WAT     H239366   8.559   6.356   4.557
13042WAT      O39367   8.893   0.556   7.828
13042WAT     H139368   8.931   0.488   7.890
13042WAT     H239369   8.816   0.603   7.873
13043WAT      O39370   4.268   0.224   0.344
13043WAT     H139371   4.232   0.260   0.430
13043WAT     H239372   4.214   0.260   0.268
13044WAT      O39373   5.285   8.110   7.799
13044WAT     H139374   5.280   8.131   7.896
13044WAT     H239375   5.202   8.062   7.770
13045WAT      O39376   6.333   4.321   6.843
13045WAT     H139377   6.330   4.416   6.809
13045WAT     H239378   6.240   4.285   6.849
13046WAT      O39379   5.885   7.416   4.024
13046WAT     H139380   5.828   7.407   3.942
13046WAT     H239381   5.848   7.359   4.097
13047WAT      O39382   8.672   3.779   8.597
13047WAT     H139383   8.702   3.840   8.670
13047WAT     H239384   8.693   3.684   8.623
13048WAT      O39385   3.374   0.294   2.800
13048WAT     H139386   3.321   0.366   2.756
13048WAT     H239387   3.312   0.227   2.842
13049WAT      O39388   4.738   1.156   3.469
13049WAT     H139389   4.680   1.153   3.550
13049WAT     H239390   4.765   1.250   3.450
13050WAT      O39391   1.051   1.022   9.157
13050WAT     H139392   1.020   1.084   9.085
13050WAT     H239393   1.020   0.929   9.137
13051WAT      O39394   4.753   3.286   7.286
13051WAT     H139395   4.793   3.370   7.249
13051WAT     H239396   4.784   3.273   7.380
13052WAT      O39397   7.864   7.307   5.450
13052WAT     H139398   7.900   7.303   5.357
13052WAT     H239399   7.912   7.241   5.507
13053WAT      O39400   7.093   2.767   0.277
13053WAT     H139401   7.089   2.860   0.314
13053WAT     H239402   7.086   2.702   0.353
13054WAT      O39403   2.536   7.015   5.416
13054WAT     H139404   2.487   7.001   5.502
13054WAT     H239405   2.614   6.953   5.412
13055WAT      O39406   0.315   0.804   2.286
13055WAT     H139407   0.282   0.895   2.310
13055WAT     H239408   0.410   0.794   2.315
13056WAT      O39409   3.832   8.092   3.240
13056WAT     H139410   3.866   8.085   3.146
13056WAT     H239411   3.885   8.161   3.290
13057WAT      O39412   7.209   3.051   9.767
13057WAT     H139413   7.281   3.087   9.708
13057WAT     H239414   7.154   3.127   9.802
13058WAT      O39415   6.189   7.542   3.755
13058WAT     H139416   6.218   7.635   3.729
13058WAT     H239417   6.095   7.528   3.727
13059WAT      O39418   2.640   2.597   2.099
13059WAT     H139419   2.670   2.619   2.006
13059WAT     H239420   2.666   2.503   2.121
13060WAT      O39421   2.851   1.000   1.346
13060WAT     H139422   2.925   1.066   1.351
13060WAT     H239423   2.883   0.918   1.298
13061WAT      O39424   2.998   8.165   4.458
13061WAT     H139425   3.024   8.070   4.440
13061WAT     H239426   3.079   8.218   4.485
13062WAT      O39427   4.610   0.744   5.743
13062WAT     H139428   4.578   0.663   5.793
13062WAT     H239429   4.710   0.745   5.741
13063WAT      O39430   1.539   5.836   0.318
13063WAT     H139431   1.487   5.756   0.345
13063WAT     H239432   1.598   5.813   0.240
13064WAT      O39433   9.211   2.059   2.748
13064WAT     H139434   9.293   2.098   2.789
13064WAT     H239435   9.232   1.968   2.712
13065WAT      O39436   6.734   4.434   6.086
13065WAT     H139437   6.672   4.356   6.100
13065WAT     H239438   6.804   4.408   6.019
13066WAT      O39439   6.634   2.555   1.585
13066WAT     H139440   6.712   2.609   1.554
13066WAT     H239441   6.659   2.507   1.670
13067WAT      O39442   9.594   9.418   8.940
13067WAT     H139443   9.687   9.441   8.911
13067WAT     H239444   9.590   9.321   8.964
13068WAT      O39445   3.192   5.412   7.180
13068WAT     H139446   3.125   5.460   7.123
13068WAT     H239447   3.193   5.452   7.271
13069WAT      O39448   7.093   4.214   1.494
13069WAT     H139449   7.095   4.256   1.403
13069WAT     H239450   7.039   4.271   1.555
13070WAT      O39451   0.873   2.205   1.014
13070WAT     H139452   0.842   2.297   0.990
13070WAT     H239453   0.909   2.206   1.108
13071WAT      O39454   7.493   5.404   4.629
13071WAT     H139455   7.447   5.386   4.716
13071WAT     H239456   7.496   5.320   4.575
13072WAT      O39457   7.832   2.503   3.026
13072WAT     H139458   7.873   2.455   2.949
13072WAT     H239459   7.861   2.460   3.111
13073WAT      O39460   0.443   9.098   6.580
13073WAT     H139461   0.412   9.147   6.498
13073WAT     H239462   0.469   9.005   6.554
13074WAT      O39463   0.173   0.341   2.229
13074WAT     H139464   0.260   0.390   2.216
13074WAT     H239465   0.142   0.305   2.141
13075WAT      O39466   5.690   7.591   2.321
13075WAT     H139467   5.642   7.668   2.279
13075WAT     H239468   5.658   7.506   2.280
13076WAT      O39469   2.252   8.020   7.713
13076WAT     H139470   2.245   8.092   7.645
13076WAT     H239471   2.260   8.060   7.804
13077WAT      O39472   6.973   6.749   9.139
13077WAT     H139473   6.875   6.740   9.125
13077WAT     H239474   7.021   6.730   9.053
13078WAT      O39475   1.102   4.938   0.073
13078WAT     H139476   1.141   5.024   0.106
13078WAT     H239477   1.144   4.914  -0.015
13079WAT      O39478   7.857   0.581   3.741
13079WAT     H139479   7.807   0.605   3.658
13079WAT     H239480   7.946   0.541   3.716
13080WAT      O39481   5.999   6.146   5.887
13080WAT     H139482   6.062   6.184   5.819
13080WAT     H239483   6.041   6.152   5.978
13081WAT      O39484   0.123   4.529   7.565
13081WAT     H139485   0.105   4.588   7.644
13081WAT     H239486   0.068   4.445   7.574
13082WAT      O39487   0.294   3.832   4.283
13082WAT     H139488   0.228   3.763   4.310
13082WAT     H239489   0.370   3.788   4.234
13083WAT      O39490   7.814   4.913   1.989
13083WAT     H139491   7.724   4.891   1.952
13083WAT     H239492   7.846   4.837   2.046
13084WAT      O39493   2.002   6.915   2.805
13084WAT     H139494   2.003   6.828   2.755
13084WAT     H239495   2.074   6.915   2.874
13085WAT      O39496   7.795   8.065   1.069
13085WAT     H139497   7.725   8.128   1.036
13085WAT     H239498   7.885   8.109   1.064
13086WAT      O39499   0.521   8.653   8.414
13086WAT     H139500   0.494   8.607   8.329
13086WAT     H239501   0.528   8.586   8.487
13087WAT      O39502   3.625   2.585   9.603
13087WAT     H139503   3.707   2.578   9.658
13087WAT     H239504   3.565   2.507   9.622
13088WAT      O39505   9.574   5.205   5.281
13088WAT     H139506   9.611   5.185   5.372
13088WAT     H239507   9.525   5.293   5.283
13089WAT      O39508   6.375   1.251   2.056
13089WAT     H139509   6.399   1.250   1.959
13089WAT     H239510   6.340   1.342   2.081
13090WAT      O39511   7.801   5.487   2.295
13090WAT     H139512   7.848   5.570   2.324
13090WAT     H239513   7.813   5.415   2.363
13091WAT      O39514   0.482   6.459   5.754
13091WAT     H139515   0.396   6.497   5.786
13091WAT     H239516   0.508   6.503   5.668
13092WAT      O39517   0.733   4.700   6.209
13092WAT     H139518   0.733   4.753   6.124
13092WAT     H239519   0.640   4.666   6.226
13093WAT      O39520   9.285   2.103   0.775
13093WAT     H139521   9.255   2.198   0.764
13093WAT     H239522   9.230   2.044   0.716
13094WAT      O39523   6.284   3.311   8.220
13094WAT     H139524   6.262   3.300   8.123
13094WAT     H239525   6.365   3.367   8.231
13095WAT      O39526   1.122   1.398   6.045
13095WAT     H139527   1.134   1.484   6.094
13095WAT     H239528   1.033   1.358   6.070
13096WAT      O39529   1.845   0.357   2.292
13096WAT     H139530   1.886   0.389   2.207
13096WAT     H239531   1.915   0.315   2.349
13097WAT      O39532   3.091   2.742   5.267
13097WAT     H139533   3.074   2.781   5.357
13097WAT     H239534   3.179   2.696   5.266
13098WAT      O39535   7.907   5.000   2.675
13098WAT     H139536   7.863   5.035   2.593
13098WAT     H239537   7.923   4.901   2.666
13099WAT      O39538   6.096   2.434   8.959
13099WAT     H139539   6.035   2.400   9.031
13099WAT     H239540   6.156   2.505   8.996
13100WAT      O39541   2.485   1.920   1.366
13100WAT     H139542   2.494   1.909   1.465
13100WAT     H239543   2.391   1.899   1.339
13101WAT      O39544   4.346   2.741   9.027
13101WAT     H139545   4.249   2.716   9.038
13101WAT     H239546   4.401   2.685   9.089
13102WAT      O39547   0.428   5.814   3.741
13102WAT     H139548   0.356   5.757   3.781
13102WAT     H239549   0.495   5.838   3.811
13103WAT      O39550   5.580   0.956   4.298
13103WAT     H139551   5.664   0.926   4.253
13103WAT     H239552   5.577   1.056   4.300
13104WAT      O39553   3.528   5.035   7.806
13104WAT     H139554   3.562   5.105   7.868
13104WAT     H239555   3.600   5.011   7.740
13105WAT      O39556   8.291   0.263   9.245
13105WAT     H139557   8.221   0.200   9.211
13105WAT     H239558   8.248   0.337   9.295
13106WAT      O39559   3.051   3.936   7.842
13106WAT     H139560   3.086   4.012   7.897
13106WAT     H239561   2.958   3.958   7.811
13107WAT      O39562   6.001   6.412   8.129
13107WAT     H139563   6.066   6.436   8.201
13107WAT     H239564   6.025   6.323   8.090
13108WAT      O39565   2.549   0.599   5.286
13108WAT     H139566   2.567   0.671   5.219
13108WAT     H239567   2.451   0.590   5.300
13109WAT      O39568   8.679   4.604   2.182
13109WAT     H139569   8.709   4.696   2.205
13109WAT     H239570   8.754   4.553   2.141
13110WAT      O39571   8.734   3.106   2.890
13110WAT     H139572   8.781   3.018   2.885
13110WAT     H239573   8.771   3.159   2.966
13111WAT      O39574   4.090   1.018   9.439
13111WAT     H139575   4.086   0.925   9.403
13111WAT     H239576   4.007   1.037   9.491
13112WAT      O39577   1.971   7.441   5.970
13112WAT     H139578   1.983   7.540   5.963
13112WAT     H239579   1.950   7.417   6.065
13113WAT      O39580   3.465   2.346   9.635
13113WAT     H139581   3.366   2.336   9.619
13113WAT     H239582   3.497   2.269   9.690
13114WAT      O39583   1.836   7.281   3.097
13114WAT     H139584   1.921   7.237   3.068
13114WAT     H239585   1.799   7.335   3.021
13115WAT      O39586   8.181   4.602   8.333
13115WAT     H139587   8.140   4.651   8.410
13115WAT     H239588   8.268   4.563   8.361
13116WAT      O39589   1.945   3.261   2.753
13116WAT     H139590   1.864   3.205   2.771
13116WAT     H239591   1.978   3.244   2.661
13117WAT      O39592   4.198   4.205   7.339
13117WAT     H139593   4.281   4.245   7.380
13117WAT     H239594   4.199   4.106   7.352
13118WAT      O39595   6.187   6.520   6.887
13118WAT     H139596   6.225   6.550   6.975
13118WAT     H239597   6.110   6.458   6.904
13119WAT      O39598   5.755   6.602   4.244
13119WAT     H139599   5.795   6.573   4.331
13119WAT     H239600   5.677   6.544   4.222
13120WAT      O39601   0.914   9.390   7.324
13120WAT     H139602   0.882   9.296   7.333
13120WAT     H239603   0.845   9.452   7.361
13121WAT      O39604   4.801   4.819   0.172
13121WAT     H139605   4.728   4.885   0.186
13121WAT     H239606   4.775   4.755   0.099
13122WAT      O39607   3.902   0.199   2.387
13122WAT     H139608   3.922   0.276   2.448
13122WAT     H239609   3.841   0.230   2.314
13123WAT      O39610   2.611   4.314   3.074
13123WAT     H139611   2.674   4.346   3.004
13123WAT     H239612   2.530   4.274   3.032
13124WAT      O39613   0.731   7.729   1.380
13124WAT     H139614   0.782   7.780   1.449
13124WAT     H239615   0.735   7.778   1.293
13125WAT      O39616   1.243   6.410   1.950
13125WAT     H139617   1.158   6.362   1.930
13125WAT     H239618   1.251   6.425   2.048
13126WAT      O39619   7.079   1.938   7.311
13126WAT     H139620   7.049   2.030   7.283
13126WAT     H239621   7.108   1.887   7.231
13127WAT      O39622   8.710   4.473   0.270
13127WAT     H139623   8.709   4.373   0.274
13127WAT     H239624   8.627   4.509   0.314
13128WAT      O39625   9.422   2.438   3.967
13128WAT     H139626   9.470   2.510   4.017
13128WAT     H239627   9.461   2.349   3.991
13129WAT      O39628   5.190   0.022   6.412
13129WAT     H139629   5.184  -0.052   6.345
13129WAT     H239630   5.253  -0.005   6.486
13130WAT      O39631   3.357   2.258   6.583
13130WAT     H139632   3.421   2.245   6.507
13130WAT     H239633   3.399   2.226   6.668
13131WAT      O39634   5.533   2.716   8.784
13131WAT     H139635   5.521   2.767   8.869
13131WAT     H239636   5.450   2.720   8.729
13132WAT      O39637   8.731   8.118   5.026
13132WAT     H139638   8.793   8.144   5.101
13132WAT     H239639   8.680   8.199   4.996
13133WAT      O39640   3.482   7.758   8.113
13133WAT     H139641   3.448   7.841   8.069
13133WAT     H239642   3.561   7.724   8.064
13134WAT      O39643   8.799   3.337   6.156
13134WAT     H139644   8.805   3.304   6.062
13134WAT     H239645   8.869   3.406   6.172
13135WAT      O39646   7.226   6.283   8.983
13135WAT     H139647   7.312   6.235   9.000
13135WAT     H239648   7.238   6.348   8.908
13136WAT      O39649   5.476   4.272   9.455
13136WAT     H139650   5.462   4.209   9.531
13136WAT     H239651   5.411   4.252   9.382
13137WAT      O39652   3.243   1.445   0.134
13137WAT     H139653   3.184   1.399   0.067
13137WAT     H239654   3.212   1.423   0.226
13138WAT      O39655   1.471   5.242   4.488
13138WAT     H139656   1.452   5.300   4.409
13138WAT     H239657   1.420   5.277   4.568
13139WAT      O39658   2.256   5.233   2.562
13139WAT     H139659   2.268   5.134   2.558
13139WAT     H239660   2.246   5.261   2.657
13140WAT      O39661   7.554   6.910   7.468
13140WAT     H139662   7.554   6.810   7.467
13140WAT     H239663   7.614   6.944   7.396
13141WAT      O39664   9.603   6.661   3.578
13141WAT     H139665   9.506   6.650   3.559
13141WAT     H239666   9.656   6.643   3.495
13142WAT      O39667   1.265   2.635   8.480
13142WAT     H139668   1.342   2.698   8.479
13142WAT     H239669   1.181   2.684   8.456
13143WAT      O39670   8.629   6.564   3.453
13143WAT     H139671   8.539   6.609   3.453
13143WAT     H239672   8.644   6.519   3.541
13144WAT      O39673   8.706   7.833   6.817
13144WAT     H139674   8.754   7.881   6.891
13144WAT     H239675   8.663   7.900   6.757
13145WAT      O39676   3.809   1.833   9.896
13145WAT     H139677   3.736   1.829   9.829
13145WAT     H239678   3.888   1.881   9.857
13146WAT      O39679   6.387   9.137   7.746
13146WAT     H139680   6.400   9.160   7.649
13146WAT     H239681   6.441   9.200   7.802
13147WAT      O39682   4.905   3.007   5.436
13147WAT     H139683   4.819   3.052   5.462
13147WAT     H239684   4.917   3.013   5.337
13148WAT      O39685   6.188   6.723   6.677
13148WAT     H139686   6.124   6.666   6.626
13148WAT     H239687   6.223   6.671   6.756
13149WAT      O39688   6.454   3.130   3.632
13149WAT     H139689   6.515   3.142   3.554
13149WAT     H239690   6.386   3.060   3.610
13150WAT      O39691   6.220   7.833   8.378
13150WAT     H139692   6.254   7.854   8.470
13150WAT     H239693   6.163   7.909   8.346
13151WAT      O39694   7.092   7.808   9.688
13151WAT     H139695   7.046   7.833   9.603
13151WAT     H239696   7.030   7.753   9.744
13152WAT      O39697   6.946   3.861   3.426
13152WAT     H139698   6.963   3.954   3.393
13152WAT     H239699   7.015   3.837   3.495
13153WAT      O39700   1.777   9.132   1.747
13153WAT     H139701   1.733   9.059   1.799
13153WAT     H239702   1.863   9.098   1.709
13154WAT      O39703   3.224   1.551   5.720
13154WAT     H139704   3.232   1.569   5.818
13154WAT     H239705   3.218   1.452   5.704
13155WAT      O39706   0.157   7.591   2.956
13155WAT     H139707   0.096   7.551   2.888
13155WAT     H239708   0.250   7.592   2.921
13156WAT      O39709   2.103   0.720   3.286
13156WAT     H139710   2.078   0.668   3.368
13156WAT     H239711   2.171   0.789   3.310
13157WAT      O39712   3.955   8.964   3.001
13157WAT     H139713   3.997   9.022   2.931
13157WAT     H239714   3.938   9.018   3.083
13158WAT      O39715   5.162   4.759   9.414
13158WAT     H139716   5.227   4.703   9.361
13158WAT     H239717   5.197   4.853   9.420
13159WAT      O39718   7.423   8.073   6.286
13159WAT     H139719   7.360   8.010   6.240
13159WAT     H239720   7.497   8.098   6.224
13160WAT      O39721   9.569   3.931   5.551
13160WAT     H139722   9.654   3.926   5.499
13160WAT     H239723   9.507   3.998   5.509
13161WAT      O39724   4.328   3.456   4.331
13161WAT     H139725   4.396   3.528   4.325
13161WAT     H239726   4.266   3.475   4.407
13162WAT      O39727   0.575   4.105   1.031
13162WAT     H139728   0.521   4.143   1.106
13162WAT     H239729   0.529   4.122   0.944
13163WAT      O39730   1.250   7.490   6.246
13163WAT     H139731   1.339   7.530   6.268
13163WAT     H239732   1.241   7.401   6.291
13164WAT      O39733   7.012   2.316   8.133
13164WAT     H139734   6.997   2.394   8.073
13164WAT     H239735   6.926   2.291   8.177
13165WAT      O39736   4.299   6.412   5.532
13165WAT     H139737   4.356   6.493   5.543
13165WAT     H239738   4.356   6.330   5.539
13166WAT      O39739   6.924   2.749   7.465
13166WAT     H139740   6.920   2.841   7.504
13166WAT     H239741   6.842   2.733   7.410
13167WAT      O39742   4.295   4.062   7.054
13167WAT     H139743   4.361   4.121   7.101
13167WAT     H239744   4.331   3.969   7.051
13168WAT      O39745   4.202   2.526   8.508
13168WAT     H139746   4.300   2.510   8.500
13168WAT     H239747   4.156   2.489   8.427
13169WAT      O39748   5.060   4.056   7.393
13169WAT     H139749   5.130   3.984   7.398
13169WAT     H239750   5.019   4.056   7.302
13170WAT      O39751   2.172   9.575   5.601
13170WAT     H139752   2.124   9.497   5.641
13170WAT     H239753   2.154   9.657   5.656
13171WAT      O39754   6.142   9.083   9.247
13171WAT     H139755   6.190   9.055   9.164
13171WAT     H239756   6.174   9.028   9.324
13172WAT      O39757   0.148   3.409   0.467
13172WAT     H139758   0.085   3.391   0.391
13172WAT     H239759   0.216   3.336   0.472
13173WAT      O39760   4.443   2.843   6.990
13173WAT     H139761   4.521   2.790   6.955
13173WAT     H239762   4.359   2.811   6.946
13174WAT      O39763   3.374   2.749   4.545
13174WAT     H139764   3.438   2.823   4.525
13174WAT     H239765   3.320   2.728   4.464
13175WAT      O39766   2.131   9.548   7.897
13175WAT     H139767   2.162   9.637   7.929
13175WAT     H239768   2.033   9.552   7.876
13176WAT      O39769   8.907   1.069   3.469
13176WAT     H139770   9.001   1.105   3.461
13176WAT     H239771   8.879   1.070   3.565
13177WAT      O39772   1.893   4.224   1.491
13177WAT     H139773   1.907   4.192   1.397
13177WAT     H239774   1.879   4.323   1.491
13178WAT      O39775   7.999   9.260   8.317
13178WAT     H139776   8.012   9.280   8.220
13178WAT     H239777   8.068   9.194   8.347
13179WAT      O39778   1.645   3.863   6.922
13179WAT     H139779   1.547   3.852   6.935
13179WAT     H239780   1.680   3.931   6.987
13180WAT      O39781   2.104   2.879   1.834
13180WAT     H139782   2.087   2.788   1.872
13180WAT     H239783   2.121   2.871   1.736
13181WAT      O39784   7.311   2.499   1.855
13181WAT     H139785   7.271   2.450   1.778
13181WAT     H239786   7.297   2.446   1.939
13182WAT      O39787   0.801   5.882   5.155
13182WAT     H139788   0.847   5.801   5.119
13182WAT     H239789   0.740   5.856   5.229
13183WAT      O39790   9.483   7.696   0.299
13183WAT     H139791   9.572   7.713   0.257
13183WAT     H239792   9.495   7.684   0.398
13184WAT      O39793   7.172   8.160   0.914
13184WAT     H139794   7.143   8.241   0.861
13184WAT     H239795   7.169   8.079   0.855
13185WAT      O39796   7.613   8.707   2.412
13185WAT     H139797   7.570   8.701   2.502
13185WAT     H239798   7.705   8.668   2.415
13186WAT      O39799   1.167   7.365   8.724
13186WAT     H139800   1.170   7.272   8.759
13186WAT     H239801   1.089   7.375   8.662
13187WAT      O39802   5.163   4.713   8.586
13187WAT     H139803   5.124   4.800   8.555
13187WAT     H239804   5.195   4.723   8.681
13188WAT      O39805   7.800   5.452   2.766
13188WAT     H139806   7.761   5.414   2.850
13188WAT     H239807   7.760   5.541   2.747
13189WAT      O39808   3.086   0.181   5.785
13189WAT     H139809   3.046   0.142   5.868
13189WAT     H239810   3.141   0.112   5.738
13190WAT      O39811   8.593   4.100   1.168
13190WAT     H139812   8.683   4.055   1.163
13190WAT     H239813   8.589   4.157   1.250
13191WAT      O39814   9.554   8.698   1.873
13191WAT     H139815   9.568   8.774   1.936
13191WAT     H239816   9.638   8.684   1.819
13192WAT      O39817   2.866   8.063   1.627
13192WAT     H139818   2.905   8.049   1.536
13192WAT     H239819   2.856   7.975   1.673
13193WAT      O39820   0.072   9.153   8.502
13193WAT     H139821   0.100   9.164   8.597
13193WAT     H239822   0.121   9.218   8.445
13194WAT      O39823   7.969   8.070   7.054
13194WAT     H139824   7.882   8.087   7.100
13194WAT     H239825   8.037   8.135   7.088
13195WAT      O39826   6.599   9.282   7.464
13195WAT     H139827   6.679   9.298   7.407
13195WAT     H239828   6.523   9.249   7.408
13196WAT      O39829   3.669   6.498   7.529
13196WAT     H139830   3.583   6.547   7.540
13196WAT     H239831   3.729   6.517   7.607
13197WAT      O39832   8.421   5.261   4.268
13197WAT     H139833   8.341   5.305   4.308
13197WAT     H239834   8.422   5.165   4.296
13198WAT      O39835   9.518   8.399   8.232
13198WAT     H139836   9.520   8.498   8.220
13198WAT     H239837   9.500   8.377   8.328
13199WAT      O39838   0.163   5.663   3.284
13199WAT     H139839   0.161   5.756   3.249
13199WAT     H239840   0.100   5.655   3.362
13200WAT      O39841   9.582   7.005   5.375
13200WAT     H139842   9.593   7.017   5.473
13200WAT     H239843   9.600   7.092   5.329
13201WAT      O39844   0.343   8.988   9.060
13201WAT     H139845   0.412   8.921   9.032
13201WAT     H239846   0.384   9.079   9.058
13202WAT      O39847   3.606   8.200   3.124
13202WAT     H139848   3.676   8.137   3.158
13202WAT     H239849   3.552   8.236   3.200
13203WAT      O39850   1.606   1.138   6.582
13203WAT     H139851   1.643   1.177   6.498
13203WAT     H239852   1.506   1.142   6.580
13204WAT      O39853   3.460   8.847   6.453
13204WAT     H139854   3.414   8.811   6.534
13204WAT     H239855   3.505   8.773   6.404
13205WAT      O39856   2.638   1.207   4.858
13205WAT     H139857   2.652   1.305   4.844
13205WAT     H239858   2.602   1.166   4.774
13206WAT      O39859   7.313   2.222   7.412
13206WAT     H139860   7.398   2.176   7.439
13206WAT     H239861   7.327   2.321   7.413
13207WAT      O39862   1.261   5.935   6.859
13207WAT     H139863   1.224   5.954   6.950
13207WAT     H239864   1.270   6.021   6.808
13208WAT      O39865   4.350   3.082   6.931
13208WAT     H139866   4.383   2.991   6.956
13208WAT     H239867   4.385   3.107   6.840
13209WAT      O39868   6.757   3.255   8.438
13209WAT     H139869   6.683   3.302   8.390
13209WAT     H239870   6.731   3.160   8.453
13210WAT      O39871   2.375   1.609   9.037
13210WAT     H139872   2.299   1.667   9.011
13210WAT     H239873   2.340   1.520   9.067
13211WAT      O39874   3.498   3.727   0.244
13211WAT     H139875   3.412   3.760   0.205
13211WAT     H239876   3.555   3.690   0.171
13212WAT      O39877   6.654   1.564   0.561
13212WAT     H139878   6.656   1.656   0.602
13212WAT     H239879   6.611   1.569   0.471
13213WAT      O39880   6.828   9.357   3.252
13213WAT     H139881   6.755   9.412   3.293
13213WAT     H239882   6.791   9.303   3.177
13214WAT      O39883   3.335   2.889   1.605
13214WAT     H139884   3.401   2.892   1.530
13214WAT     H239885   3.383   2.896   1.692
13215WAT      O39886   3.571   0.587   1.532
13215WAT     H139887   3.643   0.641   1.576
13215WAT     H239888   3.613   0.513   1.478
13216WAT      O39889   5.226   4.134   8.868
13216WAT     H139890   5.135   4.128   8.909
13216WAT     H239891   5.230   4.214   8.807
13217WAT      O39892   6.041   4.290   0.718
13217WAT     H139893   5.943   4.273   0.712
13217WAT     H239894   6.079   4.241   0.796
13218WAT      O39895   8.829   8.527   4.649
13218WAT     H139896   8.746   8.574   4.677
13218WAT     H239897   8.808   8.460   4.578
13219WAT      O39898   5.258   0.546   8.787
13219WAT     H139899   5.230   0.509   8.875
13219WAT     H239900   5.183   0.536   8.721
13220WAT      O39901   0.064   4.268   4.219
13220WAT     H139902  -0.003   4.198   4.194
13220WAT     H239903   0.056   4.288   4.317
13221WAT      O39904   4.582   2.171   7.342
13221WAT     H139905   4.500   2.187   7.287
13221WAT     H239906   4.660   2.158   7.282
13222WAT      O39907   5.431   6.077   9.458
13222WAT     H139908   5.490   6.081   9.539
13222WAT     H239909   5.434   6.164   9.410
13223WAT      O39910   7.167   0.899   0.008
13223WAT     H139911   7.237   0.889   0.080
13223WAT     H239912   7.116   0.983   0.024
13224WAT      O39913   8.391   7.162   0.309
13224WAT     H139914   8.296   7.138   0.289
13224WAT     H239915   8.400   7.183   0.407
13225WAT      O39916   8.561   2.657   8.408
13225WAT     H139917   8.534   2.623   8.498
13225WAT     H239918   8.534   2.753   8.400
13226WAT      O39919   1.102   0.668   2.756
13226WAT     H139920   1.148   0.756   2.749
13226WAT     H239921   1.005   0.681   2.776
13227WAT      O39922   9.380   5.554   7.591
13227WAT     H139923   9.284   5.533   7.611
13227WAT     H239924   9.439   5.505   7.655
13228WAT      O39925   3.777   3.416   4.063
13228WAT     H139926   3.795   3.373   3.974
13228WAT     H239927   3.679   3.435   4.072
13229WAT      O39928   4.685   3.407   0.845
13229WAT     H139929   4.628   3.379   0.922
13229WAT     H239930   4.627   3.450   0.775
13230WAT      O39931   6.737   2.180   0.942
13230WAT     H139932   6.709   2.220   1.030
13230WAT     H239933   6.664   2.192   0.876
13231WAT      O39934   1.223   1.594   1.743
13231WAT     H139935   1.234   1.500   1.777
13231WAT     H239936   1.140   1.599   1.687
13232WAT      O39937   9.677   6.310   7.296
13232WAT     H139938   9.744   6.271   7.359
13232WAT     H239939   9.585   6.300   7.335
13233WAT      O39940   0.892   7.181   1.952
13233WAT     H139941   0.977   7.193   2.003
13233WAT     H239942   0.904   7.110   1.882
13234WAT      O39943   1.858   1.137   7.247
13234WAT     H139944   1.808   1.104   7.168
13234WAT     H239945   1.855   1.237   7.251
13235WAT      O39946   7.932   4.440   1.367
13235WAT     H139947   7.876   4.495   1.305
13235WAT     H239948   7.993   4.500   1.418
13236WAT      O39949   3.517   2.903   2.988
13236WAT     H139950   3.605   2.906   2.940
13236WAT     H239951   3.459   2.978   2.956
13237WAT      O39952   8.878   4.757   0.899
13237WAT     H139953   8.853   4.838   0.844
13237WAT     H239954   8.972   4.768   0.932
13238WAT      O39955   5.872   0.488   4.998
13238WAT     H139956   5.859   0.514   4.902
13238WAT     H239957   5.931   0.555   5.043
13239WAT      O39958   2.638   4.182   1.292
13239WAT     H139959   2.581   4.261   1.268
13239WAT     H239960   2.640   4.171   1.391
13240WAT      O39961   8.241   8.573   5.113
13240WAT     H139962   8.230   8.599   5.018
13240WAT     H239963   8.249   8.473   5.120
13241WAT      O39964   0.766   9.598   7.502
13241WAT     H139965   0.848   9.653   7.487
13241WAT     H239966   0.685   9.652   7.479
13242WAT      O39967   3.904   0.818   3.668
13242WAT     H139968   4.004   0.817   3.668
13242WAT     H239969   3.870   0.874   3.744
13243WAT      O39970   4.872   8.615   3.885
13243WAT     H139971   4.970   8.626   3.869
13243WAT     H239972   4.833   8.562   3.810
13244WAT      O39973   2.194   1.630   1.920
13244WAT     H139974   2.172   1.536   1.946
13244WAT     H239975   2.282   1.656   1.961
13245WAT      O39976   4.683   9.194   5.552
13245WAT     H139977   4.631   9.110   5.536
13245WAT     H239978   4.620   9.267   5.578
13246WAT      O39979   4.227   2.788   1.199
13246WAT     H139980   4.262   2.786   1.293
13246WAT     H239981   4.293   2.744   1.138
13247WAT      O39982   3.286   7.577   3.885
13247WAT     H139983   3.370   7.628   3.903
13247WAT     H239984   3.287   7.492   3.938
13248WAT      O39985   7.698   6.898   2.901
13248WAT     H139986   7.723   6.994   2.903
13248WAT     H239987   7.750   6.851   2.830
13249WAT      O39988   8.049   5.022   8.455
13249WAT     H139989   7.977   4.987   8.394
13249WAT     H239990   8.050   5.122   8.451
13250WAT      O39991   8.612   9.801   6.904
13250WAT     H139992   8.623   9.709   6.941
13250WAT     H239993   8.655   9.867   6.966
13251WAT      O39994   2.791   6.237   7.426
13251WAT     H139995   2.854   6.197   7.358
13251WAT     H239996   2.799   6.187   7.512
13252WAT      O39997   2.524   3.567   0.537
13252WAT     H139998   2.578   3.552   0.454
13252WAT     H239999   2.465   3.646   0.525
13253WAT      O40000   1.130   5.551   8.901
13253WAT     H140001   1.111   5.492   8.823
13253WAT     H240002   1.045   5.591   8.935
13254WAT      O40003   6.122   6.509   7.825
13254WAT     H140004   6.027   6.512   7.856
13254WAT     H240005   6.126   6.472   7.733
13255WAT      O40006   1.306   2.029   8.221
13255WAT     H140007   1.356   2.089   8.159
13255WAT     H240008   1.361   1.947   8.239
13256WAT      O40009   2.844   7.534   2.269
13256WAT     H140010   2.809   7.472   2.339
13256WAT     H240011   2.895   7.608   2.311
13257WAT      O40012   6.121   0.132   4.778
13257WAT     H140013   6.171   0.098   4.857
13257WAT     H240014   6.031   0.166   4.806
13258WAT      O40015   9.551   8.547   4.067
13258WAT     H140016   9.528   8.505   3.979
13258WAT     H240017   9.567   8.645   4.054
13259WAT      O40018   1.133   8.008   1.575
13259WAT     H140019   1.201   7.972   1.639
13259WAT     H240020   1.172   8.009   1.482
13260WAT      O40021   6.188   6.225   9.786
13260WAT     H140022   6.178   6.313   9.739
13260WAT     H240023   6.285   6.201   9.791
13261WAT      O40024   6.810   0.232   7.185
13261WAT     H140025   6.750   0.270   7.115
13261WAT     H240026   6.812   0.133   7.178
13262WAT      O40027   4.412   2.220   4.321
13262WAT     H140028   4.333   2.159   4.321
13262WAT     H240029   4.480   2.187   4.256
13263WAT      O40030   6.657   6.019   4.073
13263WAT     H140031   6.580   5.985   4.128
13263WAT     H240032   6.727   5.947   4.066
13264WAT      O40033   3.129   6.133   9.873
13264WAT     H140034   3.210   6.181   9.907
13264WAT     H240035   3.152   6.037   9.854
13265WAT      O40036   8.743   7.090   4.850
13265WAT     H140037   8.787   7.115   4.763
13265WAT     H240038   8.799   7.120   4.926
13266WAT      O40039   1.100   5.077   3.910
13266WAT     H140040   1.084   5.012   3.836
13266WAT     H240041   1.045   5.051   3.990
13267WAT      O40042   4.421   1.272   7.975
13267WAT     H140043   4.464   1.362   7.983
13267WAT     H240044   4.396   1.239   8.065
13268WAT      O40045   5.043   4.110   4.305
13268WAT     H140046   4.945   4.096   4.298
13268WAT     H240047   5.087   4.088   4.218
13269WAT      O40048   9.339   3.920   1.649
13269WAT     H140049   9.402   3.856   1.605
13269WAT     H240050   9.308   3.881   1.736
13270WAT      O40051   5.375   5.843   9.787
13270WAT     H140052   5.412   5.791   9.864
13270WAT     H240053   5.367   5.783   9.707
13271WAT      O40054   3.605   7.252   9.796
13271WAT     H140055   3.683   7.200   9.829
13271WAT     H240056   3.591   7.333   9.854
13272WAT      O40057   2.333   8.348   6.434
13272WAT     H140058   2.396   8.415   6.473
13272WAT     H240059   2.321   8.273   6.499
13273WAT      O40060   8.032   6.683   7.186
13273WAT     H140061   8.005   6.601   7.135
13273WAT     H240062   7.954   6.716   7.240
13274WAT      O40063   7.554   4.035   6.433
13274WAT     H140064   7.456   4.054   6.419
13274WAT     H240065   7.582   4.066   6.523
13275WAT      O40066   0.129   4.295   0.392
13275WAT     H140067   0.078   4.266   0.472
13275WAT     H240068   0.226   4.303   0.415
13276WAT      O40069   2.848   9.660   1.653
13276WAT     H140070   2.852   9.717   1.571
13276WAT     H240071   2.789   9.703   1.721
13277WAT      O40072   0.234   7.677   4.989
13277WAT     H140073   0.191   7.611   4.927
13277WAT     H240074   0.297   7.735   4.938
13278WAT      O40075   2.507   8.418   1.141
13278WAT     H140076   2.586   8.365   1.110
13278WAT     H240077   2.529   8.516   1.138
13279WAT      O40078   0.548   7.671   3.961
13279WAT     H140079   0.535   7.650   4.058
13279WAT     H240080   0.478   7.624   3.908
13280WAT      O40081   1.112   9.166   9.796
13280WAT     H140082   1.050   9.244   9.801
13280WAT     H240083   1.098   9.118   9.710
13281WAT      O40084   9.541   8.794   0.763
13281WAT     H140085   9.525   8.696   0.774
13281WAT     H240086   9.613   8.823   0.826
13282WAT      O40087   3.293   5.707   7.881
13282WAT     H140088   3.393   5.698   7.871
13282WAT     H240089   3.270   5.708   7.978
13283WAT      O40090   1.075   3.638   8.645
13283WAT     H140091   1.149   3.607   8.705
13283WAT     H240092   0.987   3.617   8.686
13284WAT      O40093   3.962   0.681   3.402
13284WAT     H140094   3.897   0.735   3.455
13284WAT     H240095   4.047   0.671   3.454
13285WAT      O40096   3.889   4.825   5.499
13285WAT     H140097   3.869   4.818   5.401
13285WAT     H240098   3.984   4.800   5.516
13286WAT      O40099   5.958   8.648   4.429
13286WAT     H140100   5.896   8.673   4.503
13286WAT     H240101   5.934   8.700   4.347
13287WAT      O40102   9.058   3.932   9.284
13287WAT     H140103   9.110   3.853   9.252
13287WAT     H240104   9.120   3.994   9.333
13288WAT      O40105   1.392   3.668   1.955
13288WAT     H140106   1.319   3.648   2.021
13288WAT     H240107   1.365   3.746   1.899
13289WAT      O40108   4.915   3.787   1.207
13289WAT     H140109   4.888   3.767   1.113
13289WAT     H240110   4.991   3.852   1.206
13290WAT      O40111   9.318   6.807   8.714
13290WAT     H140112   9.255   6.884   8.702
13290WAT     H240113   9.309   6.744   8.637
13291WAT      O40114   4.842   9.327   3.176
13291WAT     H140115   4.825   9.410   3.228
13291WAT     H240116   4.760   9.269   3.178
13292WAT      O40117   5.044   9.804   9.871
13292WAT     H140118   5.041   9.834   9.776
13292WAT     H240119   4.953   9.773   9.899
13293WAT      O40120   9.681   1.666   6.797
13293WAT     H140121   9.657   1.657   6.894
13293WAT     H240122   9.620   1.731   6.753
13294WAT      O40123   5.044   5.827   0.648
13294WAT     H140124   5.139   5.856   0.635
13294WAT     H240125   5.035   5.780   0.736
13295WAT      O40126   6.057   2.507   6.235
13295WAT     H140127   6.013   2.594   6.260
13295WAT     H240128   6.107   2.472   6.314
13296WAT      O40129   4.175   9.701   2.891
13296WAT     H140130   4.216   9.740   2.974
13296WAT     H240131   4.242   9.643   2.845
13297WAT      O40132   0.236   5.876   1.338
13297WAT     H140133   0.203   5.907   1.248
13297WAT     H240134   0.246   5.956   1.398
13298WAT      O40135   7.950   1.255   1.506
13298WAT     H140136   7.854   1.283   1.502
13298WAT     H240137   7.992   1.287   1.591
13299WAT      O40138   8.940   1.281   5.933
13299WAT     H140139   8.994   1.358   5.899
13299WAT     H240140   8.979   1.248   6.019
13300WAT      O40141   5.746   3.663   0.435
13300WAT     H140142   5.786   3.720   0.507
13300WAT     H240143   5.802   3.581   0.423
13301WAT      O40144   9.537   8.044   1.598
13301WAT     H140145   9.528   8.069   1.694
13301WAT     H240146   9.634   8.033   1.575
13302WAT      O40147   7.231   8.637   5.844
13302WAT     H140148   7.162   8.678   5.784
13302WAT     H240149   7.322   8.654   5.806
13303WAT      O40150   6.591   6.537   5.312
13303WAT     H140151   6.533   6.606   5.356
13303WAT     H240152   6.662   6.508   5.376
13304WAT      O40153   8.792   3.025   9.169
13304WAT     H140154   8.780   3.025   9.268
13304WAT     H240155   8.772   2.934   9.134
13305WAT      O40156   6.511   9.174   7.005
13305WAT     H140157   6.580   9.208   6.941
13305WAT     H240158   6.485   9.081   6.980
13306WAT      O40159   0.038   7.997   4.046
13306WAT     H140160  -0.015   8.079   4.023
13306WAT     H240161   0.075   7.957   3.963
13307WAT      O40162   2.568   9.438   6.804
13307WAT     H140163   2.663   9.416   6.781
13307WAT     H240164   2.565   9.507   6.876
13308WAT      O40165   7.642   3.816   7.818
13308WAT     H140166   7.567   3.768   7.864
13308WAT     H240167   7.668   3.897   7.871
13309WAT      O40168   6.032   2.424   0.894
13309WAT     H140169   5.969   2.472   0.833
13309WAT     H240170   6.064   2.340   0.850
13310WAT      O40171   5.400   1.702   5.278
13310WAT     H140172   5.431   1.623   5.332
13310WAT     H240173   5.303   1.718   5.295
13311WAT      O40174   7.520   3.973   2.553
13311WAT     H140175   7.436   4.022   2.576
13311WAT     H240176   7.500   3.875   2.550
13312WAT      O40177   5.912   3.318   4.324
13312WAT     H140178   5.974   3.281   4.394
13312WAT     H240179   5.872   3.243   4.272
13313WAT      O40180   5.977   2.199   2.861
13313WAT     H140181   5.923   2.115   2.850
13313WAT     H240182   6.074   2.175   2.867
13314WAT      O40183   6.164   7.072   4.074
13314WAT     H140184   6.241   7.107   4.128
13314WAT     H240185   6.110   7.148   4.038
13315WAT      O40186   1.735   2.693   7.778
13315WAT     H140187   1.773   2.782   7.803
13315WAT     H240188   1.705   2.695   7.682
13316WAT      O40189   2.135   9.397   3.383
13316WAT     H140190   2.062   9.454   3.345
13316WAT     H240191   2.101   9.304   3.396
13317WAT      O40192   5.980   5.496   8.373
13317WAT     H140193   6.016   5.424   8.313
13317WAT     H240194   6.055   5.539   8.423
13318WAT      O40195   8.014   6.423   8.934
13318WAT     H140196   7.993   6.486   8.859
13318WAT     H240197   8.111   6.431   8.957
13319WAT      O40198   0.658   6.459   9.420
13319WAT     H140199   0.672   6.388   9.490
13319WAT     H240200   0.581   6.516   9.445
13320WAT      O40201   2.779   8.161   9.885
13320WAT     H140202   2.821   8.243   9.848
13320WAT     H240203   2.849   8.094   9.908
13321WAT      O40204   5.216   1.175   0.656
13321WAT     H140205   5.141   1.181   0.721
13321WAT     H240206   5.301   1.155   0.705
13322WAT      O40207   3.996   1.169   3.589
13322WAT     H140208   3.968   1.225   3.511
13322WAT     H240209   3.940   1.086   3.592
13323WAT      O40210   1.132   9.675   0.521
13323WAT     H140211   1.204   9.611   0.494
13323WAT     H240212   1.173   9.764   0.544
13324WAT      O40213   0.488   6.108   9.262
13324WAT     H140214   0.398   6.105   9.306
13324WAT     H240215   0.504   6.199   9.225
13325WAT      O40216   1.640   7.384   1.241
13325WAT     H140217   1.661   7.317   1.312
13325WAT     H240218   1.549   7.366   1.204
13326WAT      O40219   0.089   9.804   5.054
13326WAT     H140220   0.097   9.822   4.956
13326WAT     H240221   0.035   9.720   5.068
13327WAT      O40222   6.773   4.442   8.314
13327WAT     H140223   6.719   4.525   8.333
13327WAT     H240224   6.753   4.410   8.222
13328WAT      O40225   3.426   7.410   4.826
13328WAT     H140226   3.498   7.417   4.757
13328WAT     H240227   3.349   7.467   4.799
13329WAT      O40228   1.747   5.234   3.365
13329WAT     H140229   1.715   5.171   3.294
13329WAT     H240230   1.789   5.314   3.322
13330WAT      O40231   0.099   7.392   7.588
13330WAT     H140232   0.111   7.456   7.512
13330WAT     H240233   0.111   7.441   7.675
13331WAT      O40234   4.982   0.911   7.019
13331WAT     H140235   4.943   1.003   7.013
13331WAT     H240236   4.925   0.854   7.079
13332WAT      O40237   3.496   5.362   9.888
13332WAT     H140238   3.441   5.444   9.873
13332WAT     H240239   3.531   5.362   9.982
13333WAT      O40240   8.359   9.200   3.090
13333WAT     H140241   8.277   9.146   3.107
13333WAT     H240242   8.372   9.264   3.165
13334WAT      O40243   9.785   5.443   0.915
13334WAT     H140244   9.717   5.374   0.890
13334WAT     H240245   9.785   5.516   0.847
13335WAT      O40246   1.995   7.475   0.269
13335WAT     H140247   1.918   7.493   0.208
13335WAT     H240248   2.073   7.532   0.243
13336WAT      O40249   1.900   6.736   5.038
13336WAT     H140250   1.938   6.707   5.126
13336WAT     H240251   1.808   6.774   5.051
13337WAT      O40252   1.242   2.930   1.302
13337WAT     H140253   1.151   2.929   1.261
13337WAT     H240254   1.280   2.837   1.302
13338WAT      O40255   3.736   7.844   9.271
13338WAT     H140256   3.718   7.747   9.285
13338WAT     H240257   3.659   7.898   9.305
13339WAT      O40258   9.069   7.819   9.139
13339WAT     H140259   9.027   7.820   9.229
13339WAT     H240260   9.062   7.728   9.100
13340WAT      O40261   7.887   4.450   5.372
13340WAT     H140262   7.873   4.549   5.364
13340WAT     H240263   7.985   4.431   5.380
13341WAT      O40264   7.677   7.079   9.396
13341WAT     H140265   7.709   7.159   9.345
13341WAT     H240266   7.623   7.020   9.336
13342WAT      O40267   7.558   3.919   8.877
13342WAT     H140268   7.541   3.999   8.819
13342WAT     H240269   7.505   3.841   8.842
13343WAT      O40270   6.660   8.132   1.856
13343WAT     H140271   6.737   8.088   1.808
13343WAT     H240272   6.576   8.119   1.803
13344WAT      O40273   3.753   1.514   3.538
13344WAT     H140274   3.806   1.430   3.544
13344WAT     H240275   3.656   1.492   3.529
13345WAT      O40276   6.845   8.993   5.118
13345WAT     H140277   6.872   9.086   5.095
13345WAT     H240278   6.745   8.986   5.118
13346WAT      O40279   4.766   9.513   5.113
13346WAT     H140280   4.804   9.538   5.024
13346WAT     H240281   4.708   9.587   5.147
13347WAT      O40282   8.432   7.968   4.735
13347WAT     H140283   8.363   7.972   4.807
13347WAT     H240284   8.467   7.874   4.728
13348WAT      O40285   0.930   2.173   6.422
13348WAT     H140286   0.969   2.107   6.487
13348WAT     H240287   0.831   2.164   6.420
13349WAT      O40288   3.338   4.322   4.630
13349WAT     H140289   3.410   4.389   4.614
13349WAT     H240290   3.373   4.250   4.691
13350WAT      O40291   4.808   0.718   0.516
13350WAT     H140292   4.818   0.775   0.434
13350WAT     H240293   4.765   0.772   0.589
13351WAT      O40294   0.449   7.955   9.690
13351WAT     H140295   0.495   7.979   9.604
13351WAT     H240296   0.353   7.935   9.672
13352WAT      O40297   4.743   2.973   3.904
13352WAT     H140298   4.730   2.989   3.806
13352WAT     H240299   4.710   2.882   3.927
13353WAT      O40300   6.028   0.206   5.834
13353WAT     H140301   5.954   0.256   5.880
13353WAT     H240302   5.989   0.132   5.779
13354WAT      O40303   0.254   5.877   9.436
13354WAT     H140304   0.336   5.830   9.465
13354WAT     H240305   0.216   5.832   9.355
13355WAT      O40306   6.649   3.774   6.990
13355WAT     H140307   6.676   3.794   7.084
13355WAT     H240308   6.603   3.686   6.986
13356WAT      O40309   9.539   7.906   5.262
13356WAT     H140310   9.512   7.996   5.297
13356WAT     H240311   9.495   7.890   5.174
13357WAT      O40312   1.725   7.197   9.623
13357WAT     H140313   1.726   7.294   9.600
13357WAT     H240314   1.768   7.184   9.713
13358WAT      O40315   9.027   2.898   3.365
13358WAT     H140316   9.111   2.851   3.341
13358WAT     H240317   8.958   2.880   3.295
13359WAT      O40318   0.232   0.091   6.845
13359WAT     H140319   0.138   0.109   6.873
13359WAT     H240320   0.271   0.173   6.803
13360WAT      O40321   8.908   1.831   0.256
13360WAT     H140322   8.950   1.922   0.257
13360WAT     H240323   8.973   1.764   0.292
13361WAT      O40324   6.655   1.839   2.658
13361WAT     H140325   6.631   1.802   2.568
13361WAT     H240326   6.660   1.939   2.653
13362WAT      O40327   8.815   6.133   0.736
13362WAT     H140328   8.757   6.057   0.764
13362WAT     H240329   8.759   6.200   0.687
13363WAT      O40330   8.239   0.979   7.253
13363WAT     H140331   8.280   0.984   7.162
13363WAT     H240332   8.248   1.068   7.298
13364WAT      O40333   0.453   0.215   7.344
13364WAT     H140334   0.489   0.278   7.275
13364WAT     H240335   0.418   0.132   7.299
13365WAT      O40336   0.465   2.203   9.841
13365WAT     H140337   0.545   2.230   9.787
13365WAT     H240338   0.451   2.268   9.915
13366WAT      O40339   1.447   3.431   4.039
13366WAT     H140340   1.464   3.332   4.036
13366WAT     H240341   1.526   3.478   4.077
13367WAT      O40342   3.344   6.999   0.761
13367WAT     H140343   3.290   7.012   0.678
13367WAT     H240344   3.377   7.087   0.794
13368WAT      O40345   7.423   9.148   6.705
13368WAT     H140346   7.383   9.236   6.729
13368WAT     H240347   7.384   9.077   6.763
13369WAT      O40348   8.709   7.863   9.167
13369WAT     H140349   8.670   7.890   9.080
13369WAT     H240350   8.666   7.916   9.241
13370WAT      O40351   4.169   6.915   2.362
13370WAT     H140352   4.242   6.982   2.345
13370WAT     H240353   4.207   6.823   2.356
13371WAT      O40354   1.067   1.830   8.791
13371WAT     H140355   1.122   1.761   8.745
13371WAT     H240356   1.127   1.898   8.833
13372WAT      O40357   5.734   2.976   2.391
13372WAT     H140358   5.737   2.966   2.291
13372WAT     H240359   5.640   2.962   2.423
13373WAT      O40360   1.452   3.310   8.902
13373WAT     H140361   1.417   3.395   8.864
13373WAT     H240362   1.548   3.322   8.927
13374WAT      O40363   3.565   5.788   1.048
13374WAT     H140364   3.543   5.881   1.078
13374WAT     H240365   3.664   5.775   1.051
13375WAT      O40366   6.726   8.552   4.810
13375WAT     H140367   6.641   8.541   4.862
13375WAT     H240368   6.773   8.464   4.804
13376WAT      O40369   2.958   5.478   4.503
13376WAT     H140370   2.946   5.386   4.540
13376WAT     H240371   3.053   5.507   4.514
13377WAT      O40372   4.834   9.711   0.172
13377WAT     H140373   4.798   9.790   0.222
13377WAT     H240374   4.919   9.680   0.216
13378WAT      O40375   0.603   5.481   2.002
13378WAT     H140376   0.549   5.541   2.061
13378WAT     H240377   0.684   5.531   1.970
13379WAT      O40378   3.933   5.887   2.869
13379WAT     H140379   3.995   5.895   2.947
13379WAT     H240380   3.982   5.909   2.784
13380WAT      O40381   8.548   8.725   1.976
13380WAT     H140382   8.633   8.742   1.926
13380WAT     H240383   8.558   8.643   2.032
13381WAT      O40384   2.523   1.383   0.551
13381WAT     H140385   2.500   1.286   0.552
13381WAT     H240386   2.470   1.431   0.621
13382WAT      O40387   5.300   6.782   5.205
13382WAT     H140388   5.337   6.753   5.293
13382WAT     H240389   5.345   6.731   5.131
13383WAT      O40390   1.082   3.120   7.970
13383WAT     H140391   1.174   3.111   7.933
13383WAT     H240392   1.024   3.172   7.906
13384WAT      O40393   5.969   1.872   4.673
13384WAT     H140394   5.931   1.959   4.643
13384WAT     H240395   5.894   1.812   4.702
13385WAT      O40396   5.969   9.059   6.132
13385WAT     H140397   5.916   9.127   6.183
13385WAT     H240398   5.955   9.073   6.034
13386WAT      O40399   9.119   4.265   3.670
13386WAT     H140400   9.072   4.253   3.582
13386WAT     H240401   9.145   4.361   3.680
13387WAT      O40402   1.913   4.460   9.489
13387WAT     H140403   1.945   4.365   9.479
13387WAT     H240404   1.941   4.513   9.410
13388WAT      O40405   7.747   3.493   7.999
13388WAT     H140406   7.648   3.479   8.002
13388WAT     H240407   7.772   3.568   8.061
13389WAT      O40408   3.027   2.453   6.113
13389WAT     H140409   3.078   2.468   6.028
13389WAT     H240410   2.931   2.432   6.091
13390WAT      O40411   0.321   6.106   3.215
13390WAT     H140412   0.341   6.200   3.187
13390WAT     H240413   0.252   6.105   3.287
13391WAT      O40414   2.682   7.503   0.948
13391WAT     H140415   2.640   7.589   0.976
13391WAT     H240416   2.637   7.427   0.993
13392WAT      O40417   7.810   8.020   1.485
13392WAT     H140418   7.790   8.118   1.487
13392WAT     H240419   7.873   8.001   1.410
13393WAT      O40420   0.817   5.383   6.870
13393WAT     H140421   0.840   5.476   6.840
13393WAT     H240422   0.845   5.371   6.965
13394WAT      O40423   2.288   7.844   6.875
13394WAT     H140424   2.265   7.861   6.779
13394WAT     H240425   2.337   7.923   6.912
13395WAT      O40426   5.588   7.105   1.827
13395WAT     H140427   5.615   7.181   1.767
13395WAT     H240428   5.594   7.134   1.923
13396WAT      O40429   1.344   3.023   0.857
13396WAT     H140430   1.370   3.032   0.761
13396WAT     H240431   1.246   3.042   0.868
13397WAT      O40432   7.930   3.171   0.191
13397WAT     H140433   7.912   3.265   0.221
13397WAT     H240434   7.872   3.149   0.113
13398WAT      O40435   9.840   9.373   2.102
13398WAT     H140436   9.908   9.311   2.141
13398WAT     H240437   9.832   9.454   2.160
13399WAT      O40438   2.148   5.904   8.974
13399WAT     H140439   2.112   5.959   9.049
13399WAT     H240440   2.073   5.860   8.925
13400WAT      O40441   2.491   0.311   0.278
13400WAT     H140442   2.590   0.301   0.268
13400WAT     H240443   2.471   0.392   0.333
13401WAT      O40444   0.374   6.814   1.728
13401WAT     H140445   0.436   6.855   1.795
13401WAT     H240446   0.282   6.808   1.766
13402WAT      O40447   3.782   8.592   1.768
13402WAT     H140448   3.814   8.502   1.797
13402WAT     H240449   3.858   8.658   1.775
13403WAT      O40450   9.182   7.730   6.764
13403WAT     H140451   9.176   7.642   6.811
13403WAT     H240452   9.161   7.803   6.828
13404WAT      O40453   0.051   3.029   2.184
13404WAT     H140454   0.081   3.123   2.196
13404WAT     H240455  -0.027   3.010   2.243
13405WAT      O40456   9.861   1.239   2.124
13405WAT     H140457   9.920   1.161   2.103
13405WAT     H240458   9.810   1.265   2.042
13406WAT      O40459   8.631   8.563   8.709
13406WAT     H140460   8.630   8.643   8.650
13406WAT     H240461   8.552   8.506   8.689
13407WAT      O40462   0.346   9.782   2.577
13407WAT     H140463   0.308   9.771   2.485
13407WAT     H240464   0.394   9.699   2.604
13408WAT      O40465   8.176   4.617   3.487
13408WAT     H140466   8.153   4.713   3.501
13408WAT     H240467   8.096   4.560   3.510
13409WAT      O40468   9.855   9.437   4.638
13409WAT     H140469   9.831   9.436   4.735
13409WAT     H240470   9.847   9.530   4.602
13410WAT      O40471   2.993   0.060   5.466
13410WAT     H140472   2.909   0.011   5.445
13410WAT     H240473   2.981   0.158   5.450
13411WAT      O40474   2.901   5.309   7.060
13411WAT     H140475   2.969   5.250   7.103
13411WAT     H240476   2.813   5.297   7.106
13412WAT      O40477   0.413   6.637   3.657
13412WAT     H140478   0.366   6.653   3.570
13412WAT     H240479   0.510   6.659   3.647
13413WAT      O40480   6.136   1.042   1.591
13413WAT     H140481   6.126   1.096   1.674
13413WAT     H240482   6.049   1.039   1.541
13414WAT      O40483   9.455   5.826   1.253
13414WAT     H140484   9.458   5.737   1.207
13414WAT     H240485   9.368   5.836   1.301
13415WAT      O40486   3.375   1.475   5.408
13415WAT     H140487   3.307   1.538   5.370
13415WAT     H240488   3.446   1.458   5.340
13416WAT      O40489   8.265   2.511   7.089
13416WAT     H140490   8.343   2.519   7.028
13416WAT     H240491   8.289   2.550   7.178
13417WAT      O40492   8.515   4.061   3.547
13417WAT     H140493   8.482   4.154   3.533
13417WAT     H240494   8.611   4.062   3.574
13418WAT      O40495   3.235   5.346   1.241
13418WAT     H140496   3.275   5.383   1.325
13418WAT     H240497   3.303   5.349   1.168
13419WAT      O40498   0.345   0.861   7.941
13419WAT     H140499   0.416   0.885   8.008
13419WAT     H240500   0.311   0.945   7.898
13420WAT      O40501   9.410   1.243   1.716
13420WAT     H140502   9.341   1.204   1.777
13420WAT     H240503   9.376   1.244   1.622
13421WAT      O40504   3.458   3.460   0.440
13421WAT     H140505   3.504   3.539   0.482
13421WAT     H240506   3.476   3.459   0.342
13422WAT      O40507   4.873   0.493   5.638
13422WAT     H140508   4.935   0.490   5.559
13422WAT     H240509   4.832   0.403   5.652
13423WAT      O40510   7.460   5.115   0.135
13423WAT     H140511   7.548   5.073   0.114
13423WAT     H240512   7.414   5.062   0.206
13424WAT      O40513   6.455   2.827   6.611
13424WAT     H140514   6.487   2.920   6.630
13424WAT     H240515   6.429   2.819   6.515
13425WAT      O40516   5.975   6.546   9.273
13425WAT     H140517   6.061   6.498   9.291
13425WAT     H240518   5.933   6.510   9.190
13426WAT      O40519   3.919   8.037   8.477
13426WAT     H140520   3.898   7.947   8.514
13426WAT     H240521   3.942   8.029   8.380
13427WAT      O40522   4.526   4.549   7.175
13427WAT     H140523   4.599   4.578   7.237
13427WAT     H240524   4.504   4.625   7.113
13428WAT      O40525   9.144   4.720   0.460
13428WAT     H140526   9.212   4.649   0.479
13428WAT     H240527   9.053   4.680   0.464
13429WAT      O40528   2.972   9.365   7.986
13429WAT     H140529   2.985   9.455   7.946
13429WAT     H240530   3.056   9.311   7.976
13430WAT      O40531   8.894   0.901   4.353
13430WAT     H140532   8.840   0.932   4.432
13430WAT     H240533   8.988   0.934   4.362
13431WAT      O40534   4.724   2.276   9.784
13431WAT     H140535   4.680   2.349   9.836
13431WAT     H240536   4.705   2.188   9.827
13432WAT      O40537   6.446   2.728   4.532
13432WAT     H140538   6.434   2.703   4.436
13432WAT     H240539   6.362   2.770   4.567
13433WAT      O40540   9.245   7.764   5.671
13433WAT     H140541   9.275   7.751   5.577
13433WAT     H240542   9.205   7.679   5.705
13434WAT      O40543   1.433   3.332   5.456
13434WAT     H140544   1.482   3.268   5.397
13434WAT     H240545   1.426   3.294   5.548
13435WAT      O40546   1.417   3.959   3.793
13435WAT     H140547   1.508   3.939   3.757
13435WAT     H240548   1.370   4.023   3.732
13436WAT      O40549   8.432   0.276   0.395
13436WAT     H140550   8.531   0.282   0.408
13436WAT     H240551   8.410   0.198   0.336
13437WAT      O40552   1.589   5.329   7.345
13437WAT     H140553   1.652   5.401   7.375
13437WAT     H240554   1.572   5.266   7.421
13438WAT      O40555   6.243   2.002   9.721
13438WAT     H140556   6.269   1.960   9.634
13438WAT     H240557   6.215   1.930   9.785
13439WAT      O40558   9.848   5.087   8.893
13439WAT     H140559   9.918   5.027   8.933
13439WAT     H240560   9.786   5.032   8.838
13440WAT      O40561   0.037   5.120   4.070
13440WAT     H140562   0.063   5.024   4.059
13440WAT     H240563   0.031   5.141   4.168
13441WAT      O40564   1.513   0.689   9.229
13441WAT     H140565   1.481   0.774   9.187
13441WAT     H240566   1.592   0.655   9.178
13442WAT      O40567   2.184   4.809   2.395
13442WAT     H140568   2.194   4.880   2.325
13442WAT     H240569   2.192   4.719   2.352
13443WAT      O40570   3.187   2.770   0.239
13443WAT     H140571   3.192   2.870   0.239
13443WAT     H240572   3.099   2.741   0.201
13444WAT      O40573   9.295   5.161   2.264
13444WAT     H140574   9.276   5.212   2.181
13444WAT     H240575   9.369   5.096   2.248
13445WAT      O40576   0.259   2.150   8.439
13445WAT     H140577   0.253   2.056   8.405
13445WAT     H240578   0.243   2.214   8.363
13446WAT      O40579   5.038   8.541   1.683
13446WAT     H140580   4.984   8.522   1.601
13446WAT     H240581   4.977   8.554   1.760
13447WAT      O40582   1.520   7.544   3.112
13447WAT     H140583   1.594   7.566   3.176
13447WAT     H240584   1.557   7.491   3.036
13448WAT      O40585   6.874   0.235   4.574
13448WAT     H140586   6.891   0.315   4.516
13448WAT     H240587   6.962   0.194   4.600
13449WAT      O40588   1.452   1.546   8.892
13449WAT     H140589   1.401   1.470   8.853
13449WAT     H240590   1.415   1.569   8.982
13450WAT      O40591   9.557   9.148   9.620
13450WAT     H140592   9.593   9.063   9.581
13450WAT     H240593   9.627   9.219   9.615
13451WAT      O40594   1.426   6.482   0.442
13451WAT     H140595   1.515   6.439   0.455
13451WAT     H240596   1.437   6.581   0.441
13452WAT      O40597   1.461   2.961   7.407
13452WAT     H140598   1.459   2.923   7.315
13452WAT     H240599   1.520   3.042   7.408
13453WAT      O40600   8.216   2.142   4.458
13453WAT     H140601   8.246   2.187   4.374
13453WAT     H240602   8.214   2.208   4.533
13454WAT      O40603   1.436   5.871   3.763
13454WAT     H140604   1.488   5.787   3.775
13454WAT     H240605   1.338   5.853   3.776
13455WAT      O40606   2.054   8.888   4.973
13455WAT     H140607   2.043   8.932   4.884
13455WAT     H240608   1.992   8.810   4.979
13456WAT      O40609   1.874   8.611   7.874
13456WAT     H140610   1.909   8.563   7.955
13456WAT     H240611   1.777   8.590   7.863
13457WAT      O40612   7.226   1.215   7.192
13457WAT     H140613   7.298   1.238   7.257
13457WAT     H240614   7.137   1.225   7.236
13458WAT      O40615   8.282   6.774   2.358
13458WAT     H140616   8.366   6.822   2.331
13458WAT     H240617   8.208   6.840   2.370
13459WAT      O40618   8.205   1.637   4.425
13459WAT     H140619   8.287   1.689   4.402
13459WAT     H240620   8.156   1.614   4.341
13460WAT      O40621   4.141   5.795   5.608
13460WAT     H140622   4.093   5.837   5.531
13460WAT     H240623   4.106   5.703   5.624
13461WAT      O40624   7.156   6.866   2.938
13461WAT     H140625   7.103   6.853   2.854
13461WAT     H240626   7.106   6.828   3.015
13462WAT      O40627   0.157   1.000   1.077
13462WAT     H140628   0.174   1.083   1.131
13462WAT     H240629   0.120   1.026   0.988
13463WAT      O40630   4.409   8.968   5.718
13463WAT     H140631   4.369   9.059   5.717
13463WAT     H240632   4.400   8.926   5.628
13464WAT      O40633   0.026   6.827   6.094
13464WAT     H140634  -0.002   6.732   6.100
13464WAT     H240635  -0.034   6.876   6.031
13465WAT      O40636   6.433   3.322   8.574
13465WAT     H140637   6.339   3.351   8.588
13465WAT     H240638   6.435   3.225   8.548
13466WAT      O40639   0.337   4.198   8.568
13466WAT     H140640   0.389   4.209   8.653
13466WAT     H240641   0.356   4.108   8.529
13467WAT      O40642   1.284   1.663   8.705
13467WAT     H140643   1.346   1.633   8.777
13467WAT     H240644   1.277   1.592   8.634
13468WAT      O40645   7.463   1.703   3.605
13468WAT     H140646   7.410   1.669   3.527
13468WAT     H240647   7.557   1.723   3.575
13469WAT      O40648   6.653   2.498   5.665
13469WAT     H140649   6.698   2.586   5.679
13469WAT     H240650   6.555   2.512   5.650
13470WAT      O40651   8.906   8.370   8.724
13470WAT     H140652   8.812   8.403   8.729
13470WAT     H240653   8.938   8.374   8.629
13471WAT      O40654   2.881   0.404   9.837
13471WAT     H140655   2.847   0.359   9.919
13471WAT     H240656   2.958   0.463   9.860
13472WAT      O40657   6.162   5.525   2.724
13472WAT     H140658   6.072   5.484   2.734
13472WAT     H240659   6.167   5.607   2.781
13473WAT      O40660   1.952   4.567   9.756
13473WAT     H140661   1.948   4.551   9.657
13473WAT     H240662   2.038   4.532   9.792
13474WAT      O40663   8.602   8.514   5.480
13474WAT     H140664   8.543   8.433   5.482
13474WAT     H240665   8.682   8.496   5.423
13475WAT      O40666   3.197   2.181   5.844
13475WAT     H140667   3.249   2.125   5.780
13475WAT     H240668   3.261   2.238   5.897
13476WAT      O40669   7.448   1.669   1.210
13476WAT     H140670   7.375   1.683   1.277
13476WAT     H240671   7.416   1.609   1.137
13477WAT      O40672   3.112   1.693   1.004
13477WAT     H140673   3.024   1.678   0.959
13477WAT     H240674   3.174   1.739   0.941
13478WAT      O40675   0.964   1.088   0.388
13478WAT     H140676   0.871   1.071   0.418
13478WAT     H240677   0.963   1.139   0.302
13479WAT      O40678   6.570   5.155   8.586
13479WAT     H140679   6.562   5.063   8.547
13479WAT     H240680   6.568   5.223   8.513
13480WAT      O40681   7.404   6.323   3.639
13480WAT     H140682   7.370   6.406   3.683
13480WAT     H240683   7.366   6.243   3.685
13481WAT      O40684   4.896   7.209   3.528
13481WAT     H140685   4.869   7.300   3.561
13481WAT     H240686   4.859   7.195   3.436
13482WAT      O40687   0.678   4.373   0.870
13482WAT     H140688   0.742   4.339   0.939
13482WAT     H240689   0.614   4.437   0.913
13483WAT      O40690   3.438   5.736   1.816
13483WAT     H140691   3.527   5.703   1.784
13483WAT     H240692   3.376   5.659   1.828
13484WAT      O40693   4.317   3.264   9.516
13484WAT     H140694   4.252   3.331   9.481
13484WAT     H240695   4.335   3.195   9.446
13485WAT      O40696   7.501   3.200   5.077
13485WAT     H140697   7.426   3.239   5.024
13485WAT     H240698   7.473   3.113   5.116
13486WAT      O40699   1.813   8.154   4.689
13486WAT     H140700   1.851   8.063   4.674
13486WAT     H240701   1.719   8.146   4.723
13487WAT      O40702   2.817   5.837   5.152
13487WAT     H140703   2.729   5.793   5.138
13487WAT     H240704   2.817   5.928   5.109
13488WAT      O40705   9.199   9.816   8.602
13488WAT     H140706   9.191   9.757   8.682
13488WAT     H240707   9.258   9.895   8.624
13489WAT      O40708   4.683   6.081   4.766
13489WAT     H140709   4.781   6.099   4.769
13489WAT     H240710   4.666   5.995   4.720
13490WAT      O40711   9.241   5.169   5.208
13490WAT     H140712   9.304   5.242   5.233
13490WAT     H240713   9.212   5.120   5.291
13491WAT      O40714   1.427   9.439   0.135
13491WAT     H140715   1.452   9.529   0.170
13491WAT     H240716   1.357   9.399   0.194
13492WAT      O40717   7.175   3.945   8.745
13492WAT     H140718   7.191   3.994   8.831
13492WAT     H240719   7.150   3.850   8.765
13493WAT      O40720   0.120   2.906   5.602
13493WAT     H140721   0.033   2.862   5.624
13493WAT     H240722   0.125   2.995   5.647
13494WAT      O40723   6.658   2.869   8.689
13494WAT     H140724   6.574   2.816   8.696
13494WAT     H240725   6.673   2.919   8.775
13495WAT      O40726   3.679   6.091   1.546
13495WAT     H140727   3.735   6.170   1.522
13495WAT     H240728   3.609   6.118   1.612
13496WAT      O40729   9.694   6.730   7.451
13496WAT     H140730   9.788   6.696   7.458
13496WAT     H240731   9.661   6.719   7.357
13497WAT      O40732   3.281   0.800   5.803
13497WAT     H140733   3.338   0.827   5.726
13497WAT     H240734   3.184   0.816   5.781
13498WAT      O40735   6.752   5.116   4.680
13498WAT     H140736   6.799   5.031   4.701
13498WAT     H240737   6.655   5.098   4.663
13499WAT      O40738   1.519   6.203   1.172
13499WAT     H140739   1.592   6.265   1.143
13499WAT     H240740   1.494   6.223   1.267
13500WAT      O40741   8.434   2.030   6.542
13500WAT     H140742   8.396   1.942   6.572
13500WAT     H240743   8.485   2.017   6.457
13501WAT      O40744   7.941   4.279   0.334
13501WAT     H140745   7.897   4.228   0.408
13501WAT     H240746   7.883   4.356   0.307
13502WAT      O40747   4.065   7.511   9.098
13502WAT     H140748   4.152   7.558   9.108
13502WAT     H240749   4.053   7.481   9.004
13503WAT      O40750   0.977   0.913   3.826
13503WAT     H140751   0.885   0.890   3.858
13503WAT     H240752   1.002   0.851   3.751
13504WAT      O40753   4.877   0.899   6.293
13504WAT     H140754   4.975   0.910   6.313
13504WAT     H240755   4.825   0.907   6.378
13505WAT      O40756   4.883   4.104   9.208
13505WAT     H140757   4.791   4.066   9.198
13505WAT     H240758   4.876   4.198   9.241
13506WAT      O40759   5.015   2.552   4.269
13506WAT     H140760   4.973   2.641   4.252
13506WAT     H240761   5.115   2.563   4.273
13507WAT      O40762   2.914   3.974   2.646
13507WAT     H140763   2.831   3.989   2.699
13507WAT     H240764   2.994   3.980   2.705
13508WAT      O40765   8.701   9.773   0.312
13508WAT     H140766   8.640   9.805   0.240
13508WAT     H240767   8.752   9.693   0.280
13509WAT      O40768   0.379   1.832   3.695
13509WAT     H140769   0.376   1.877   3.606
13509WAT     H240770   0.292   1.847   3.743
13510WAT      O40771   3.100   5.227   5.746
13510WAT     H140772   3.142   5.139   5.723
13510WAT     H240773   3.035   5.214   5.821
13511WAT      O40774   3.018   9.094   3.772
13511WAT     H140775   2.962   9.127   3.696
13511WAT     H240776   3.114   9.090   3.744
13512WAT      O40777   7.442   6.163   5.882
13512WAT     H140778   7.375   6.090   5.895
13512WAT     H240779   7.458   6.210   5.969
13513WAT      O40780   3.184   8.683   5.199
13513WAT     H140781   3.127   8.616   5.246
13513WAT     H240782   3.139   8.773   5.202
13514WAT      O40783   3.250   1.737   9.534
13514WAT     H140784   3.257   1.733   9.633
13514WAT     H240785   3.163   1.780   9.508
13515WAT      O40786   7.181   1.592   0.719
13515WAT     H140787   7.163   1.625   0.812
13515WAT     H240788   7.270   1.547   0.717
13516WAT      O40789   9.268   8.573   0.004
13516WAT     H140790   9.256   8.666  -0.032
13516WAT     H240791   9.352   8.568   0.057
13517WAT      O40792   1.443   9.352   1.375
13517WAT     H140793   1.509   9.423   1.350
13517WAT     H240794   1.490   9.280   1.426
13518WAT      O40795   8.544   8.200   2.708
13518WAT     H140796   8.566   8.198   2.611
13518WAT     H240797   8.565   8.111   2.749
13519WAT      O40798   8.962   3.245   6.654
13519WAT     H140799   8.941   3.241   6.751
13519WAT     H240800   8.954   3.153   6.614
13520WAT      O40801   7.911   7.698   0.475
13520WAT     H140802   7.929   7.788   0.435
13520WAT     H240803   7.997   7.659   0.510
13521WAT      O40804   3.570   6.334   9.785
13521WAT     H140805   3.615   6.252   9.749
13521WAT     H240806   3.490   6.307   9.839
13522WAT      O40807   7.009   6.871   7.457
13522WAT     H140808   6.985   6.813   7.535
13522WAT     H240809   7.107   6.861   7.438
13523WAT      O40810   1.346   8.588   3.431
13523WAT     H140811   1.423   8.532   3.401
13523WAT     H240812   1.318   8.561   3.523
13524WAT      O40813   8.644   0.961   7.985
13524WAT     H140814   8.556   1.001   8.012
13524WAT     H240815   8.717   1.026   8.007
13525WAT      O40816   8.202   5.381   4.376
13525WAT     H140817   8.138   5.458   4.371
13525WAT     H240818   8.152   5.296   4.358
13526WAT      O40819   7.106   1.168   9.840
13526WAT     H140820   7.188   1.222   9.823
13526WAT     H240821   7.060   1.148   9.754
13527WAT      O40822   3.527   1.997   0.099
13527WAT     H140823   3.509   1.926   0.167
13527WAT     H240824   3.496   2.085   0.135
13528WAT      O40825   2.798   9.094   2.158
13528WAT     H140826   2.877   9.079   2.217
13528WAT     H240827   2.772   9.009   2.114
13529WAT      O40828   9.817   6.276   2.153
13529WAT     H140829   9.820   6.351   2.086
13529WAT     H240830   9.741   6.291   2.216
13530WAT      O40831   2.552   8.949   6.439
13530WAT     H140832   2.476   9.014   6.444
13530WAT     H240833   2.518   8.859   6.412
13531WAT      O40834   7.162   6.526   2.774
13531WAT     H140835   7.260   6.543   2.764
13531WAT     H240836   7.111   6.584   2.710
13532WAT      O40837   6.696   6.275   1.762
13532WAT     H140838   6.694   6.352   1.826
13532WAT     H240839   6.631   6.205   1.792
13533WAT      O40840   2.456   0.635   7.662
13533WAT     H140841   2.515   0.714   7.681
13533WAT     H240842   2.432   0.634   7.565
13534WAT      O40843   3.989   5.993   5.467
13534WAT     H140844   4.045   6.072   5.442
13534WAT     H240845   3.927   6.018   5.541
13535WAT      O40846   6.795   8.822   2.542
13535WAT     H140847   6.752   8.774   2.619
13535WAT     H240848   6.820   8.915   2.572
13536WAT      O40849   0.801   3.374   4.736
13536WAT     H140850   0.720   3.422   4.768
13536WAT     H240851   0.774   3.292   4.687
13537WAT      O40852   7.846   8.584   8.157
13537WAT     H140853   7.867   8.487   8.171
13537WAT     H240854   7.813   8.598   8.064
13538WAT      O40855   8.862   5.586   7.428
13538WAT     H140856   8.922   5.606   7.351
13538WAT     H240857   8.779   5.541   7.395
13539WAT      O40858   8.408   1.507   4.671
13539WAT     H140859   8.420   1.532   4.575
13539WAT     H240860   8.491   1.460   4.703
13540WAT      O40861   4.431   3.801   4.990
13540WAT     H140862   4.431   3.884   5.045
13540WAT     H240863   4.336   3.777   4.967
13541WAT      O40864   9.715   2.266   0.731
13541WAT     H140865   9.686   2.190   0.789
13541WAT     H240866   9.743   2.231   0.642
13542WAT      O40867   7.264   6.634   5.815
13542WAT     H140868   7.224   6.720   5.846
13542WAT     H240869   7.363   6.646   5.802
13543WAT      O40870   2.070   1.099   5.911
13543WAT     H140871   2.082   1.001   5.895
13543WAT     H240872   2.095   1.121   6.005
13544WAT      O40873   8.477   3.886   2.592
13544WAT     H140874   8.498   3.899   2.495
13544WAT     H240875   8.474   3.788   2.613
13545WAT      O40876   0.098   0.693   6.738
13545WAT     H140877   0.024   0.626   6.746
13545WAT     H240878   0.108   0.721   6.643
13546WAT      O40879   1.734   6.210   3.130
13546WAT     H140880   1.703   6.142   3.063
13546WAT     H240881   1.699   6.186   3.220
13547WAT      O40882   9.075   0.988   7.260
13547WAT     H140883   9.110   0.928   7.332
13547WAT     H240884   9.082   0.942   7.172
13548WAT      O40885   1.977   8.905   0.754
13548WAT     H140886   1.878   8.886   0.758
13548WAT     H240887   2.016   8.898   0.845
13549WAT      O40888   0.776   2.092   4.733
13549WAT     H140889   0.764   2.082   4.831
13549WAT     H240890   0.725   2.172   4.700
13550WAT      O40891   2.566   0.548   0.977
13550WAT     H140892   2.553   0.521   0.881
13550WAT     H240893   2.478   0.550   1.024
13551WAT      O40894   9.096   4.058   6.015
13551WAT     H140895   9.159   4.025   5.944
13551WAT     H240896   9.002   4.053   5.981
13552WAT      O40897   2.610   9.150   1.552
13552WAT     H140898   2.520   9.105   1.550
13552WAT     H240899   2.655   9.137   1.464
13553WAT      O40900   3.221   2.277   9.184
13553WAT     H140901   3.177   2.220   9.114
13553WAT     H240902   3.238   2.222   9.266
13554WAT      O40903   5.995   1.573   9.483
13554WAT     H140904   5.909   1.567   9.432
13554WAT     H240905   5.990   1.513   9.563
13555WAT      O40906   9.187   8.125   2.431
13555WAT     H140907   9.243   8.050   2.396
13555WAT     H240908   9.187   8.200   2.366
13556WAT      O40909   7.831   7.597   2.016
13556WAT     H140910   7.870   7.654   2.088
13556WAT     H240911   7.848   7.639   1.927
13557WAT      O40912   0.751   0.700   6.573
13557WAT     H140913   0.770   0.685   6.670
13557WAT     H240914   0.743   0.612   6.527
13558WAT      O40915   8.941   1.215   7.543
13558WAT     H140916   8.923   1.308   7.575
13558WAT     H240917   8.862   1.157   7.565
13559WAT      O40918   2.271   0.004   6.176
13559WAT     H140919   2.340   0.056   6.228
13559WAT     H240920   2.273   0.033   6.081
13560WAT      O40921   6.493   3.509   4.239
13560WAT     H140922   6.488   3.542   4.145
13560WAT     H240923   6.403   3.514   4.282
13561WAT      O40924   2.986   8.657   8.360
13561WAT     H140925   3.001   8.670   8.262
13561WAT     H240926   2.981   8.559   8.381
13562WAT      O40927   5.850   7.536   0.382
13562WAT     H140928   5.915   7.555   0.308
13562WAT     H240929   5.854   7.439   0.405
13563WAT      O40930   2.767   6.579   4.496
13563WAT     H140931   2.755   6.651   4.564
13563WAT     H240932   2.747   6.490   4.538
13564WAT      O40933   2.686   0.597   7.300
13564WAT     H140934   2.688   0.586   7.201
13564WAT     H240935   2.710   0.511   7.344
13565WAT      O40936   8.842   3.804   6.003
13565WAT     H140937   8.846   3.904   6.010
13565WAT     H240938   8.785   3.768   6.076
13566WAT      O40939   9.524   1.782   2.338
13566WAT     H140940   9.559   1.764   2.430
13566WAT     H240941   9.552   1.873   2.309
13567WAT      O40942   5.101   1.589   7.023
13567WAT     H140943   5.085   1.659   7.092
13567WAT     H240944   5.152   1.513   7.063
13568WAT      O40945   3.194   2.372   9.588
13568WAT     H140946   3.171   2.377   9.685
13568WAT     H240947   3.155   2.451   9.540
13569WAT      O40948   3.917   2.229   7.347
13569WAT     H140949   4.013   2.210   7.330
13569WAT     H240950   3.871   2.249   7.260
13570WAT      O40951   5.855   5.599   5.484
13570WAT     H140952   5.815   5.582   5.394
13570WAT     H240953   5.954   5.610   5.474
13571WAT      O40954   0.957   6.551   1.529
13571WAT     H140955   1.032   6.566   1.465
13571WAT     H240956   0.908   6.467   1.505
13572WAT      O40957   0.864   9.369   3.495
13572WAT     H140958   0.862   9.346   3.593
13572WAT     H240959   0.882   9.467   3.484
13573WAT      O40960   2.345   2.759   8.122
13573WAT     H140961   2.272   2.819   8.156
13573WAT     H240962   2.342   2.756   8.022
13574WAT      O40963   6.534   3.149   7.518
13574WAT     H140964   6.435   3.165   7.524
13574WAT     H240965   6.556   3.106   7.430
13575WAT      O40966   6.544   4.872   9.262
13575WAT     H140967   6.462   4.928   9.277
13575WAT     H240968   6.518   4.775   9.265
13576WAT      O40969   6.399   9.655   9.091
13576WAT     H140970   6.424   9.684   8.999
13576WAT     H240971   6.457   9.700   9.158
13577WAT      O40972   7.793   5.498   8.640
13577WAT     H140973   7.766   5.403   8.658
13577WAT     H240974   7.850   5.532   8.715
13578WAT      O40975   3.385   5.290   6.448
13578WAT     H140976   3.395   5.378   6.401
13578WAT     H240977   3.472   5.242   6.447
13579WAT      O40978   0.468   7.606   2.908
13579WAT     H140979   0.454   7.637   3.002
13579WAT     H240980   0.481   7.685   2.848
13580WAT      O40981   5.381   5.894   6.703
13580WAT     H140982   5.301   5.921   6.755
13580WAT     H240983   5.376   5.933   6.611
13581WAT      O40984   4.856   5.876   6.356
13581WAT     H140985   4.909   5.799   6.318
13581WAT     H240986   4.759   5.862   6.336
13582WAT      O40987   3.443   0.525   2.218
13582WAT     H140988   3.393   0.453   2.171
13582WAT     H240989   3.512   0.485   2.278
13583WAT      O40990   6.975   5.012   5.520
13583WAT     H140991   6.886   5.047   5.491
13583WAT     H240992   6.964   4.959   5.604
13584WAT      O40993   4.460   8.663   9.442
13584WAT     H140994   4.495   8.603   9.370
13584WAT     H240995   4.518   8.655   9.523
13585WAT      O40996   4.016   6.493   5.045
13585WAT     H140997   3.982   6.403   5.072
13585WAT     H240998   4.042   6.545   5.127
13586WAT      O40999   5.801   3.739   9.431
13586WAT     H141000   5.895   3.770   9.415
13586WAT     H241001   5.749   3.813   9.474
13587WAT      O41002   4.611   0.596   8.093
13587WAT     H141003   4.539   0.541   8.050
13587WAT     H241004   4.643   0.550   8.175
13588WAT      O41005   0.706   2.888   4.991
13588WAT     H141006   0.717   2.941   5.075
13588WAT     H241007   0.788   2.896   4.935
13589WAT      O41008   0.483   1.786   5.903
13589WAT     H141009   0.500   1.876   5.863
13589WAT     H241010   0.553   1.765   5.971
13590WAT      O41011   9.581   6.998   6.602
13590WAT     H141012   9.606   6.902   6.592
13590WAT     H241013   9.498   7.017   6.551
13591WAT      O41014   1.308   6.281   8.257
13591WAT     H141015   1.260   6.217   8.196
13591WAT     H241016   1.392   6.312   8.214
13592WAT      O41017   5.822   5.123   7.058
13592WAT     H141018   5.855   5.029   7.066
13592WAT     H241019   5.745   5.137   7.121
13593WAT      O41020   4.928   3.022   5.151
13593WAT     H141021   4.977   3.106   5.174
13593WAT     H241022   4.991   2.957   5.109
13594WAT      O41023   1.001   0.935   0.738
13594WAT     H141024   0.943   0.888   0.672
13594WAT     H241025   1.078   0.978   0.691
13595WAT      O41026   5.770   4.464   6.828
13595WAT     H141027   5.710   4.480   6.750
13595WAT     H241028   5.824   4.546   6.847
13596WAT      O41029   5.213   9.528   5.108
13596WAT     H141030   5.169   9.613   5.136
13596WAT     H241031   5.293   9.548   5.051
13597WAT      O41032   1.464   8.639   9.665
13597WAT     H141033   1.411   8.678   9.741
13597WAT     H241034   1.425   8.670   9.579
13598WAT      O41035   6.565   2.025   5.631
13598WAT     H141036   6.476   1.986   5.656
13598WAT     H241037   6.620   1.955   5.585
13599WAT      O41038   3.112   6.817   5.146
13599WAT     H141039   3.038   6.769   5.193
13599WAT     H241040   3.198   6.803   5.197
13600WAT      O41041   9.561   2.074   0.861
13600WAT     H141042   9.465   2.065   0.837
13600WAT     H241043   9.570   2.133   0.941
13601WAT      O41044   6.704   1.887   8.242
13601WAT     H141045   6.644   1.807   8.232
13601WAT     H241046   6.763   1.895   8.161
13602WAT      O41047   2.169   0.479   2.512
13602WAT     H141048   2.173   0.525   2.423
13602WAT     H241049   2.130   0.387   2.499
13603WAT      O41050   3.480   8.584   3.329
13603WAT     H141051   3.382   8.583   3.346
13603WAT     H241052   3.512   8.678   3.323
13604WAT      O41053   5.408   9.512   5.586
13604WAT     H141054   5.430   9.452   5.509
13604WAT     H241055   5.329   9.475   5.635
13605WAT      O41056   1.784   5.821   2.428
13605WAT     H141057   1.706   5.808   2.489
13605WAT     H241058   1.861   5.766   2.459
13606WAT      O41059   3.027   5.146   2.207
13606WAT     H141060   3.084   5.072   2.172
13606WAT     H241061   3.058   5.173   2.298
13607WAT      O41062   1.322   3.860   1.778
13607WAT     H141063   1.394   3.923   1.809
13607WAT     H241064   1.333   3.843   1.680
13608WAT      O41065   2.138   9.574   1.090
13608WAT     H141066   2.170   9.668   1.103
13608WAT     H241067   2.179   9.515   1.161
13609WAT      O41068   4.590   6.492   0.821
13609WAT     H141069   4.499   6.450   0.825
13609WAT     H241070   4.659   6.421   0.831
13610WAT      O41071   3.294   4.660   0.508
13610WAT     H141072   3.378   4.701   0.472
13610WAT     H241073   3.308   4.633   0.603
13611WAT      O41074   1.898   4.851   3.639
13611WAT     H141075   1.862   4.890   3.724
13611WAT     H241076   1.827   4.853   3.568
13612WAT      O41077   6.206   1.844   4.864
13612WAT     H141078   6.239   1.906   4.793
13612WAT     H241079   6.129   1.791   4.830
13613WAT      O41080   1.995   1.809   3.636
13613WAT     H141081   2.015   1.869   3.559
13613WAT     H241082   1.898   1.817   3.660
13614WAT      O41083   1.956   6.303   9.465
13614WAT     H141084   1.968   6.359   9.547
13614WAT     H241085   1.936   6.209   9.491
13615WAT      O41086   9.721   1.264   8.099
13615WAT     H141087   9.758   1.275   8.006
13615WAT     H241088   9.658   1.339   8.119
13616WAT      O41089   3.278   5.844   8.857
13616WAT     H141090   3.315   5.935   8.835
13616WAT     H241091   3.347   5.775   8.838
13617WAT      O41092   1.927   9.333   2.805
13617WAT     H141093   1.879   9.283   2.877
13617WAT     H241094   1.885   9.423   2.793
13618WAT      O41095   9.118   0.485   6.006
13618WAT     H141096   9.125   0.564   5.945
13618WAT     H241097   9.044   0.500   6.071
13619WAT      O41098   3.040   1.660   0.540
13619WAT     H141099   2.993   1.721   0.604
13619WAT     H241100   2.975   1.592   0.505
13620WAT      O41101   7.316   6.928   4.341
13620WAT     H141102   7.352   7.015   4.375
13620WAT     H241103   7.288   6.870   4.417
13621WAT      O41104   7.862   9.808   8.199
13621WAT     H141105   7.902   9.897   8.178
13621WAT     H241106   7.762   9.814   8.193
13622WAT      O41107   1.886   5.593   9.291
13622WAT     H141108   1.805   5.638   9.253
13622WAT     H241109   1.912   5.637   9.377
13623WAT      O41110   9.385   8.123   4.136
13623WAT     H141111   9.299   8.152   4.177
13623WAT     H241112   9.379   8.131   4.037
13624WAT      O41113   9.652   6.919   1.933
13624WAT     H141114   9.729   6.976   1.902
13624WAT     H241115   9.687   6.843   1.987
13625WAT      O41116   2.487   9.483   5.538
13625WAT     H141117   2.554   9.541   5.585
13625WAT     H241118   2.395   9.518   5.555
13626WAT      O41119   2.259   6.179   2.460
13626WAT     H141120   2.172   6.228   2.459
13626WAT     H241121   2.260   6.110   2.388
13627WAT      O41122   8.774   1.057   3.734
13627WAT     H141123   8.686   1.036   3.692
13627WAT     H241124   8.804   0.979   3.789
13628WAT      O41125   3.810   1.527   0.282
13628WAT     H141126   3.870   1.607   0.277
13628WAT     H241127   3.731   1.540   0.222
13629WAT      O41128   7.640   0.908   0.988
13629WAT     H141129   7.596   0.967   0.920
13629WAT     H241130   7.608   0.934   1.079
13630WAT      O41131   7.781   5.422   6.903
13630WAT     H141132   7.791   5.322   6.906
13630WAT     H241133   7.864   5.463   6.866
13631WAT      O41134   3.354   7.174   5.933
13631WAT     H141135   3.352   7.198   5.836
13631WAT     H241136   3.423   7.230   5.979
13632WAT      O41137   3.476   3.130   0.254
13632WAT     H141138   3.492   3.125   0.352
13632WAT     H241139   3.381   3.104   0.235
13633WAT      O41140   6.266   9.557   7.089
13633WAT     H141141   6.321   9.605   7.157
13633WAT     H241142   6.207   9.622   7.041
13634WAT      O41143   1.059   7.926   9.793
13634WAT     H141144   0.966   7.898   9.771
13634WAT     H241145   1.061   8.025   9.810
13635WAT      O41146   8.671   0.342   2.395
13635WAT     H141147   8.714   0.265   2.347
13635WAT     H241148   8.572   0.334   2.387
13636WAT      O41149   2.405   8.413   8.286
13636WAT     H141150   2.399   8.427   8.187
13636WAT     H241151   2.480   8.350   8.307
13637WAT      O41152   2.546   2.436   9.468
13637WAT     H141153   2.635   2.405   9.437
13637WAT     H241154   2.553   2.529   9.505
13638WAT      O41155   9.326   7.369   1.132
13638WAT     H141156   9.265   7.419   1.194
13638WAT     H241157   9.275   7.340   1.051
13639WAT      O41158   3.505   6.730   9.411
13639WAT     H141159   3.407   6.750   9.409
13639WAT     H241160   3.519   6.638   9.449
13640WAT      O41161   6.476   2.579   4.782
13640WAT     H141162   6.483   2.626   4.694
13640WAT     H241163   6.531   2.495   4.779
13641WAT      O41164   4.296   1.377   3.620
13641WAT     H141165   4.309   1.295   3.676
13641WAT     H241166   4.316   1.356   3.525
13642WAT      O41167   0.983   6.956   5.114
13642WAT     H141168   0.934   7.043   5.122
13642WAT     H241169   1.007   6.923   5.205
13643WAT      O41170   3.480   9.611   2.619
13643WAT     H141171   3.532   9.679   2.671
13643WAT     H241172   3.539   9.569   2.550
13644WAT      O41173   2.596   9.088   8.777
13644WAT     H141174   2.627   9.180   8.800
13644WAT     H241175   2.573   9.084   8.679
13645WAT      O41176   4.562   3.352   1.668
13645WAT     H141177   4.584   3.255   1.679
13645WAT     H241178   4.522   3.388   1.752
13646WAT      O41179   3.293   9.442   6.919
13646WAT     H141180   3.327   9.526   6.961
13646WAT     H241181   3.254   9.383   6.990
13647WAT      O41182   8.072   3.291   6.882
13647WAT     H141183   7.999   3.360   6.889
13647WAT     H241184   8.039   3.214   6.828
13648WAT      O41185   2.383   4.367   0.248
13648WAT     H141186   2.283   4.367   0.250
13648WAT     H241187   2.418   4.396   0.337
13649WAT      O41188   9.503   1.381   0.751
13649WAT     H141189   9.503   1.466   0.804
13649WAT     H241190   9.435   1.387   0.678
13650WAT      O41191   7.384   6.547   8.071
13650WAT     H141192   7.375   6.453   8.038
13650WAT     H241193   7.373   6.611   7.995
13651WAT      O41194   0.090   0.726   7.386
13651WAT     H141195   0.041   0.769   7.462
13651WAT     H241196   0.155   0.659   7.421
13652WAT      O41197   1.414   6.926   2.459
13652WAT     H141198   1.370   6.869   2.528
13652WAT     H241199   1.355   7.004   2.437
13653WAT      O41200   3.343   5.100   8.153
13653WAT     H141201   3.328   5.198   8.162
13653WAT     H241202   3.439   5.079   8.171
13654WAT      O41203   6.125   1.650   8.767
13654WAT     H141204   6.072   1.671   8.684
13654WAT     H241205   6.222   1.655   8.747
13655WAT      O41206   5.371   4.508   8.118
13655WAT     H141207   5.453   4.492   8.173
13655WAT     H241208   5.381   4.462   8.029
13656WAT      O41209   5.735   5.964   3.565
13656WAT     H141210   5.655   5.916   3.603
13656WAT     H241211   5.764   5.918   3.482
13657WAT      O41212   4.007   9.510   4.278
13657WAT     H141213   3.985   9.412   4.278
13657WAT     H241214   4.106   9.522   4.290
13658WAT      O41215   9.028   8.030   2.639
13658WAT     H141216   8.984   8.106   2.686
13658WAT     H241217   9.067   8.062   2.552
13659WAT      O41218   6.598   4.386   3.265
13659WAT     H141219   6.612   4.287   3.268
13659WAT     H241220   6.507   4.406   3.229
13660WAT      O41221   6.947   9.590   4.591
13660WAT     H141222   7.018   9.629   4.532
13660WAT     H241223   6.866   9.647   4.589
13661WAT      O41224   8.025   7.719   2.220
13661WAT     H141225   8.088   7.652   2.260
13661WAT     H241226   7.963   7.753   2.291
13662WAT      O41227   8.368   8.335   5.346
13662WAT     H141228   8.333   8.297   5.260
13662WAT     H241229   8.372   8.262   5.415
13663WAT      O41230   9.416   1.344   5.360
13663WAT     H141231   9.350   1.415   5.385
13663WAT     H241232   9.501   1.387   5.329
13664WAT      O41233   8.758   3.939   1.995
13664WAT     H141234   8.819   4.012   2.027
13664WAT     H241235   8.668   3.976   1.977
13665WAT      O41236   1.228   5.111   4.297
13665WAT     H141237   1.265   5.163   4.220
13665WAT     H241238   1.131   5.090   4.280
13666WAT      O41239   8.242   0.413   6.349
13666WAT     H141240   8.280   0.467   6.424
13666WAT     H241241   8.186   0.339   6.385
13667WAT      O41242   4.981   6.853   1.709
13667WAT     H141243   4.996   6.888   1.802
13667WAT     H241244   5.060   6.872   1.652
13668WAT      O41245   2.541   8.757   4.338
13668WAT     H141246   2.552   8.798   4.247
13668WAT     H241247   2.503   8.665   4.330
13669WAT      O41248   2.905   4.813   3.563
13669WAT     H141249   2.880   4.795   3.658
13669WAT     H241250   2.845   4.884   3.526
13670WAT      O41251   1.461   2.508   8.638
13670WAT     H141252   1.398   2.576   8.600
13670WAT     H241253   1.473   2.434   8.572
13671WAT      O41254   6.826   0.797   4.451
13671WAT     H141255   6.818   0.861   4.375
13671WAT     H241256   6.911   0.814   4.500
13672WAT      O41257   4.640   0.716   5.426
13672WAT     H141258   4.638   0.774   5.507
13672WAT     H241259   4.595   0.629   5.445
13673WAT      O41260   5.826   0.257   1.091
13673WAT     H141261   5.733   0.288   1.072
13673WAT     H241262   5.887   0.288   1.018
13674WAT      O41263   9.027   7.937   1.599
13674WAT     H141264   9.031   7.837   1.596
13674WAT     H241265   8.990   7.967   1.687
13675WAT      O41266   0.244   8.318   4.926
13675WAT     H141267   0.325   8.290   4.876
13675WAT     H241268   0.266   8.393   4.988
13676WAT      O41269   9.135   8.294   1.968
13676WAT     H141270   9.090   8.206   1.951
13676WAT     H241271   9.146   8.342   1.881
13677WAT      O41272   6.461   4.415   5.689
13677WAT     H141273   6.425   4.322   5.681
13677WAT     H241274   6.561   4.414   5.677
13678WAT      O41275   8.961   4.570   1.180
13678WAT     H141276   8.981   4.598   1.086
13678WAT     H241277   9.039   4.593   1.238
13679WAT      O41278   8.958   7.186   3.865
13679WAT     H141279   8.876   7.239   3.884
13679WAT     H241280   8.997   7.214   3.778
13680WAT      O41281   2.835   8.822   4.852
13680WAT     H141282   2.895   8.869   4.787
13680WAT     H241283   2.745   8.811   4.812
13681WAT      O41284   9.554   0.261   4.260
13681WAT     H141285   9.508   0.230   4.343
13681WAT     H241286   9.487   0.307   4.201
13682WAT      O41287   0.462   9.361   2.884
13682WAT     H141288   0.475   9.452   2.925
13682WAT     H241289   0.542   9.304   2.904
13683WAT      O41290   3.703   3.572   0.136
13683WAT     H141291   3.629   3.508   0.155
13683WAT     H241292   3.791   3.526   0.148
13684WAT      O41293   5.286   0.658   2.264
13684WAT     H141294   5.275   0.758   2.272
13684WAT     H241295   5.355   0.638   2.195
13685WAT      O41296   0.667   2.830   5.985
13685WAT     H141297   0.686   2.781   5.900
13685WAT     H241298   0.706   2.922   5.980
13686WAT      O41299   4.988   2.749   0.394
13686WAT     H141300   5.002   2.728   0.491
13686WAT     H241301   5.006   2.668   0.340
13687WAT      O41302   2.381   0.049   0.928
13687WAT     H141303   2.346   0.047   0.834
13687WAT     H241304   2.317   0.098   0.986
13688WAT      O41305   7.393   2.003   2.233
13688WAT     H141306   7.334   1.935   2.190
13688WAT     H241307   7.489   1.976   2.221
13689WAT      O41308   0.542   9.637   1.692
13689WAT     H141309   0.617   9.672   1.748
13689WAT     H241310   0.532   9.539   1.707
13690WAT      O41311   9.227   2.332   4.220
13690WAT     H141312   9.206   2.323   4.123
13690WAT     H241313   9.223   2.242   4.264
13691WAT      O41314   9.262   5.729   9.316
13691WAT     H141315   9.322   5.674   9.373
13691WAT     H241316   9.311   5.809   9.282
13692WAT      O41317   0.828   2.343   3.862
13692WAT     H141318   0.902   2.321   3.799
13692WAT     H241319   0.745   2.365   3.811
13693WAT      O41320   7.070   0.925   2.943
13693WAT     H141321   6.982   0.882   2.959
13693WAT     H241322   7.114   0.945   3.031
13694WAT      O41323   5.596   6.437   8.950
13694WAT     H141324   5.497   6.446   8.947
13694WAT     H241325   5.634   6.457   8.860
13695WAT      O41326   2.935   4.551   5.659
13695WAT     H141327   3.022   4.501   5.669
13695WAT     H241328   2.863   4.487   5.631
13696WAT      O41329   0.603   2.304   1.568
13696WAT     H141330   0.640   2.252   1.645
13696WAT     H241331   0.570   2.241   1.498
13697WAT      O41332   1.051   7.452   7.612
13697WAT     H141333   1.083   7.477   7.703
13697WAT     H241334   1.051   7.352   7.602
13698WAT      O41335   9.787   4.875   8.203
13698WAT     H141336   9.691   4.891   8.223
13698WAT     H241337   9.844   4.936   8.259
13699WAT      O41338   4.914   4.547   1.707
13699WAT     H141339   4.967   4.619   1.662
13699WAT     H241340   4.936   4.545   1.805
13700WAT      O41341   1.357   1.525   2.133
13700WAT     H141342   1.262   1.557   2.140
13700WAT     H241343   1.404   1.544   2.219
13701WAT      O41344   5.948   3.411   2.409
13701WAT     H141345   5.876   3.454   2.464
13701WAT     H241346   5.974   3.324   2.451
13702WAT      O41347   8.785   6.756   0.614
13702WAT     H141348   8.765   6.701   0.695
13702WAT     H241349   8.713   6.742   0.546
13703WAT      O41350   1.606   4.580   3.445
13703WAT     H141351   1.640   4.536   3.528
13703WAT     H241352   1.681   4.624   3.397
13704WAT      O41353   7.668   2.993   9.719
13704WAT     H141354   7.645   2.913   9.775
13704WAT     H241355   7.744   2.970   9.658
13705WAT      O41356   0.950   3.452   9.006
13705WAT     H141357   0.918   3.402   9.087
13705WAT     H241358   0.922   3.548   9.013
13706WAT      O41359   3.956   7.150   6.240
13706WAT     H141360   3.860   7.124   6.224
13706WAT     H241361   3.967   7.248   6.225
13707WAT      O41362   3.175   3.758   4.687
13707WAT     H141363   3.269   3.742   4.658
13707WAT     H241364   3.158   3.857   4.694
13708WAT      O41365   2.727   6.823   9.614
13708WAT     H141366   2.760   6.917   9.606
13708WAT     H241367   2.644   6.822   9.670
13709WAT      O41368   1.524   2.631   6.235
13709WAT     H141369   1.485   2.713   6.277
13709WAT     H241370   1.568   2.575   6.306
13710WAT      O41371   9.435   2.150   3.376
13710WAT     H141372   9.462   2.244   3.395
13710WAT     H241373   9.338   2.146   3.352
13711WAT      O41374   6.927   2.423   4.112
13711WAT     H141375   6.964   2.331   4.130
13711WAT     H241376   6.932   2.478   4.194
13712WAT      O41377   9.282   8.643   3.243
13712WAT     H141378   9.281   8.710   3.318
13712WAT     H241379   9.266   8.690   3.156
13713WAT      O41380   9.723   3.661   1.301
13713WAT     H141381   9.680   3.681   1.213
13713WAT     H241382   9.802   3.720   1.314
13714WAT      O41383   8.523   8.139   0.689
13714WAT     H141384   8.431   8.151   0.652
13714WAT     H241385   8.529   8.050   0.734
13715WAT      O41386   1.978   2.680   7.157
13715WAT     H141387   2.067   2.699   7.116
13715WAT     H241388   1.977   2.586   7.191
13716WAT      O41389   7.515   8.226   2.835
13716WAT     H141390   7.560   8.288   2.900
13716WAT     H241391   7.446   8.172   2.884
13717WAT      O41392   2.253   7.943   0.105
13717WAT     H141393   2.300   7.878   0.165
13717WAT     H241394   2.202   7.892   0.036
13718WAT      O41395   1.989   5.008   6.202
13718WAT     H141396   1.911   4.957   6.165
13718WAT     H241397   1.958   5.096   6.238
13719WAT      O41398   7.334   3.318   8.285
13719WAT     H141399   7.284   3.262   8.219
13719WAT     H241400   7.338   3.271   8.373
13720WAT      O41401   8.607   1.369   8.459
13720WAT     H141402   8.565   1.278   8.454
13720WAT     H241403   8.537   1.438   8.478
13721WAT      O41404   8.371   4.000   5.590
13721WAT     H141405   8.413   3.960   5.508
13721WAT     H241406   8.277   4.025   5.571
13722WAT      O41407   6.001   2.723   2.942
13722WAT     H141408   6.013   2.780   2.861
13722WAT     H241409   6.051   2.637   2.930
13723WAT      O41410   2.863   7.603   5.195
13723WAT     H141411   2.774   7.556   5.190
13723WAT     H241412   2.931   7.542   5.235
13724WAT      O41413   7.203   5.188   5.612
13724WAT     H141414   7.128   5.136   5.570
13724WAT     H241415   7.287   5.172   5.560
13725WAT      O41416   1.956   3.542   0.896
13725WAT     H141417   1.926   3.598   0.973
13725WAT     H241418   2.054   3.527   0.901
13726WAT      O41419   5.782   0.071   4.752
13726WAT     H141420   5.740   0.139   4.813
13726WAT     H241421   5.837   0.007   4.807
13727WAT      O41422   5.135   0.806   5.611
13727WAT     H141423   5.218   0.759   5.639
13727WAT     H241424   5.109   0.779   5.519
13728WAT      O41425   3.162   0.410   6.695
13728WAT     H141426   3.183   0.318   6.730
13728WAT     H241427   3.225   0.432   6.621
13729WAT      O41428   9.573   9.098   8.374
13729WAT     H141429   9.481   9.087   8.335
13729WAT     H241430   9.582   9.036   8.452
13730WAT      O41431   1.246   7.397   4.845
13730WAT     H141432   1.148   7.398   4.866
13730WAT     H241433   1.258   7.388   4.746
13731WAT      O41434   6.667   6.039   2.633
13731WAT     H141435   6.624   6.012   2.546
13731WAT     H241436   6.608   6.104   2.680
13732WAT      O41437   9.799   5.497   4.975
13732WAT     H141438   9.817   5.547   5.060
13732WAT     H241439   9.734   5.549   4.920
13733WAT      O41440   0.077   5.226   4.316
13733WAT     H141441  -0.002   5.257   4.368
13733WAT     H241442   0.146   5.298   4.314
13734WAT      O41443   8.140   7.496   9.488
13734WAT     H141444   8.194   7.419   9.523
13734WAT     H241445   8.124   7.483   9.390
13735WAT      O41446   8.041   3.853   3.277
13735WAT     H141447   8.057   3.775   3.337
13735WAT     H241448   7.946   3.883   3.286
13736WAT      O41449   5.625   3.980   2.492
13736WAT     H141450   5.607   3.983   2.393
13736WAT     H241451   5.570   4.050   2.538
13737WAT      O41452   0.092   5.741   8.465
13737WAT     H141453   0.093   5.834   8.427
13737WAT     H241454   0.093   5.674   8.391
13738WAT      O41455   0.888   5.566   7.979
13738WAT     H141456   0.860   5.594   7.887
13738WAT     H241457   0.923   5.644   8.029
13739WAT      O41458   9.722   0.946   8.858
13739WAT     H141459   9.669   0.864   8.838
13739WAT     H241460   9.675   1.026   8.821
13740WAT      O41461   6.038   0.472   5.928
13740WAT     H141462   6.052   0.405   5.856
13740WAT     H241463   6.119   0.475   5.987
13741WAT      O41464   6.296   1.981   8.475
13741WAT     H141465   6.354   1.992   8.394
13741WAT     H241466   6.202   2.008   8.452
13742WAT      O41467   7.736   7.308   9.287
13742WAT     H141468   7.752   7.365   9.367
13742WAT     H241469   7.725   7.366   9.206
13743WAT      O41470   9.883   4.901   5.368
13743WAT     H141471   9.934   4.874   5.287
13743WAT     H241472   9.944   4.950   5.431
13744WAT      O41473   8.087   8.255   8.552
13744WAT     H141474   8.020   8.306   8.606
13744WAT     H241475   8.179   8.292   8.568
13745WAT      O41476   5.372   4.525   9.479
13745WAT     H141477   5.291   4.534   9.537
13745WAT     H241478   5.417   4.437   9.498
13746WAT      O41479   4.577   6.921   2.677
13746WAT     H141480   4.482   6.904   2.650
13746WAT     H241481   4.579   6.957   2.770
13747WAT      O41482   0.035   7.814   0.392
13747WAT     H141483   0.087   7.836   0.475
13747WAT     H241484   0.034   7.894   0.332
13748WAT      O41485   8.795   2.788   5.717
13748WAT     H141486   8.890   2.795   5.688
13748WAT     H241487   8.784   2.710   5.778
13749WAT      O41488   0.976   1.183   3.785
13749WAT     H141489   1.042   1.209   3.715
13749WAT     H241490   0.983   1.085   3.803
13750WAT      O41491   2.725   6.749   7.374
13750WAT     H141492   2.799   6.683   7.358
13750WAT     H241493   2.653   6.735   7.307
13751WAT      O41494   5.725   6.289   3.210
13751WAT     H141495   5.749   6.373   3.160
13751WAT     H241496   5.628   6.269   3.196
13752WAT      O41497   9.293   2.025   4.599
13752WAT     H141498   9.345   2.025   4.514
13752WAT     H241499   9.228   2.101   4.597
13753WAT      O41500   5.150   1.690   5.385
13753WAT     H141501   5.091   1.711   5.308
13753WAT     H241502   5.152   1.767   5.449
13754WAT      O41503   7.332   7.462   8.586
13754WAT     H141504   7.409   7.506   8.540
13754WAT     H241505   7.308   7.377   8.539
13755WAT      O41506   8.600   2.375   9.722
13755WAT     H141507   8.633   2.383   9.628
13755WAT     H241508   8.671   2.334   9.779
13756WAT      O41509   2.471   2.792   1.003
13756WAT     H141510   2.392   2.761   0.950
13756WAT     H241511   2.449   2.787   1.101
13757WAT      O41512   8.807   1.442   3.902
13757WAT     H141513   8.741   1.504   3.946
13757WAT     H241514   8.759   1.363   3.864
13758WAT      O41515   8.656   2.422   7.945
13758WAT     H141516   8.698   2.513   7.951
13758WAT     H241517   8.563   2.427   7.983
13759WAT      O41518   2.318   7.409   4.429
13759WAT     H141519   2.362   7.440   4.513
13759WAT     H241520   2.226   7.448   4.423
13760WAT      O41521   0.609   1.920   9.272
13760WAT     H141522   0.584   1.888   9.181
13760WAT     H241523   0.593   1.847   9.338
13761WAT      O41524   6.313   9.029   9.055
13761WAT     H141525   6.339   9.117   9.014
13761WAT     H241526   6.306   8.960   8.984
13762WAT      O41527   6.042   6.155   0.439
13762WAT     H141528   6.089   6.171   0.352
13762WAT     H241529   5.962   6.098   0.423
13763WAT      O41530   2.777   5.213   1.682
13763WAT     H141531   2.778   5.248   1.776
13763WAT     H241532   2.835   5.271   1.625
13764WAT      O41533   8.536   9.620   4.385
13764WAT     H141534   8.597   9.554   4.340
13764WAT     H241535   8.572   9.642   4.476
13765WAT      O41536   4.486   7.844   8.967
13765WAT     H141537   4.491   7.750   9.002
13765WAT     H241538   4.578   7.884   8.967
13766WAT      O41539   5.897   9.207   5.316
13766WAT     H141540   5.833   9.283   5.304
13766WAT     H241541   5.986   9.231   5.277
13767WAT      O41542   0.570   8.927   2.368
13767WAT     H141543   0.552   8.829   2.371
13767WAT     H241544   0.483   8.977   2.367
13768WAT      O41545   8.313   7.325   7.213
13768WAT     H141546   8.382   7.262   7.176
13768WAT     H241547   8.252   7.355   7.139
13769WAT      O41548   6.007   0.033   5.447
13769WAT     H141549   5.960   0.119   5.427
13769WAT     H241550   6.064   0.007   5.370
13770WAT      O41551   6.949   5.995   8.498
13770WAT     H141552   7.001   5.961   8.577
13770WAT     H241553   6.971   6.091   8.482
13771WAT      O41554   9.639   8.119   7.856
13771WAT     H141555   9.727   8.126   7.807
13771WAT     H241556   9.587   8.203   7.842
13772WAT      O41557   6.610   6.226   9.629
13772WAT     H141558   6.659   6.248   9.544
13772WAT     H241559   6.599   6.310   9.683
13773WAT      O41560   9.296   7.961   9.548
13773WAT     H141561   9.348   8.035   9.505
13773WAT     H241562   9.331   7.945   9.641
13774WAT      O41563   6.567   8.597   1.092
13774WAT     H141564   6.628   8.676   1.097
13774WAT     H241565   6.601   8.535   1.021
13775WAT      O41566   9.873   7.549   0.462
13775WAT     H141567   9.820   7.525   0.543
13775WAT     H241568   9.893   7.647   0.462
13776WAT      O41569   5.152   6.973   9.470
13776WAT     H141570   5.148   6.918   9.387
13776WAT     H241571   5.226   6.940   9.528
13777WAT      O41572   4.299   2.220   5.380
13777WAT     H141573   4.243   2.143   5.412
13777WAT     H241574   4.289   2.229   5.280
13778WAT      O41575   8.210   4.465   3.806
13778WAT     H141576   8.123   4.421   3.782
13778WAT     H241577   8.279   4.395   3.823
13779WAT      O41578   4.801   8.963   6.577
13779WAT     H141579   4.744   8.926   6.651
13779WAT     H241580   4.743   8.999   6.505
13780WAT      O41581   4.960   3.965   5.077
13780WAT     H141582   4.953   3.923   5.167
13780WAT     H241583   4.877   3.946   5.025
13781WAT      O41584   1.336   1.730   1.533
13781WAT     H141585   1.272   1.804   1.511
13781WAT     H241586   1.287   1.656   1.580
13782WAT      O41587   9.544   7.628   4.063
13782WAT     H141588   9.571   7.668   3.975
13782WAT     H241589   9.625   7.598   4.112
13783WAT      O41590   7.832   8.107   3.766
13783WAT     H141591   7.810   8.199   3.796
13783WAT     H241592   7.881   8.111   3.679
13784WAT      O41593   8.247   7.672   6.635
13784WAT     H141594   8.236   7.770   6.650
13784WAT     H241595   8.301   7.632   6.709
13785WAT      O41596   7.979   5.030   7.186
13785WAT     H141597   8.005   4.963   7.255
13785WAT     H241598   7.972   5.121   7.229
13786WAT      O41599   2.574   4.519   6.369
13786WAT     H141600   2.673   4.505   6.361
13786WAT     H241601   2.548   4.600   6.317
13787WAT      O41602   3.865   0.026   3.752
13787WAT     H141603   3.767   0.006   3.755
13787WAT     H241604   3.895   0.059   3.841
13788WAT      O41605   1.827   4.297   5.794
13788WAT     H141606   1.856   4.224   5.856
13788WAT     H241607   1.727   4.302   5.792
13789WAT      O41608   6.171   9.078   2.042
13789WAT     H141609   6.170   9.178   2.053
13789WAT     H241610   6.124   9.054   1.957
13790WAT      O41611   0.833   4.925   1.261
13790WAT     H141612   0.800   4.834   1.287
13790WAT     H241613   0.814   4.941   1.164
13791WAT      O41614   3.894   0.225   5.767
13791WAT     H141615   3.849   0.172   5.839
13791WAT     H241616   3.993   0.216   5.777
13792WAT      O41617   0.704   2.793   5.497
13792WAT     H141618   0.662   2.871   5.544
13792WAT     H241619   0.783   2.824   5.445
13793WAT      O41620   4.307   3.960   1.004
13793WAT     H141621   4.395   3.913   0.998
13793WAT     H241622   4.294   3.995   1.097
13794WAT      O41623   3.893   1.324   8.142
13794WAT     H141624   3.813   1.286   8.189
13794WAT     H241625   3.970   1.261   8.154
13795WAT      O41626   4.838   9.684   9.382
13795WAT     H141627   4.767   9.625   9.421
13795WAT     H241628   4.926   9.637   9.387
13796WAT      O41629   5.634   4.183   8.091
13796WAT     H141630   5.572   4.106   8.108
13796WAT     H241631   5.641   4.200   7.993
13797WAT      O41632   1.269   6.593   4.706
13797WAT     H141633   1.356   6.616   4.661
13797WAT     H241634   1.194   6.640   4.660
13798WAT      O41635   8.418   7.953   3.085
13798WAT     H141636   8.328   7.914   3.066
13798WAT     H241637   8.417   7.999   3.174
13799WAT      O41638   8.263   7.845   4.071
13799WAT     H141639   8.327   7.917   4.044
13799WAT     H241640   8.195   7.832   3.999
13800WAT      O41641   8.416   9.066   5.383
13800WAT     H141642   8.343   9.131   5.359
13800WAT     H241643   8.447   9.084   5.476
13801WAT      O41644   6.035   4.254   8.716
13801WAT     H141645   6.083   4.300   8.791
13801WAT     H241646   6.050   4.155   8.723
13802WAT      O41647   6.729   0.941   1.538
13802WAT     H141648   6.747   0.852   1.496
13802WAT     H241649   6.691   0.928   1.629
13803WAT      O41650   0.063   4.013   2.758
13803WAT     H141651   0.125   4.090   2.744
13803WAT     H241652  -0.031   4.047   2.769
13804WAT      O41653   1.907   8.994   4.459
13804WAT     H141654   1.982   8.959   4.402
13804WAT     H241655   1.821   8.952   4.430
13805WAT      O41656   2.299   1.350   3.302
13805WAT     H141657   2.324   1.373   3.208
13805WAT     H241658   2.228   1.413   3.333
13806WAT      O41659   7.340   2.579   8.903
13806WAT     H141660   7.397   2.623   8.973
13806WAT     H241661   7.347   2.480   8.913
13807WAT      O41662   9.586   3.210   5.327
13807WAT     H141663   9.610   3.174   5.417
13807WAT     H241664   9.504   3.164   5.293
13808WAT      O41665   6.126   2.005   1.223
13808WAT     H141666   6.049   1.952   1.187
13808WAT     H241667   6.159   1.963   1.307
13809WAT      O41668   3.700   1.397   2.937
13809WAT     H141669   3.675   1.310   2.980
13809WAT     H241670   3.626   1.429   2.879
13810WAT      O41671   1.950   5.948   3.352
13810WAT     H141672   1.877   5.998   3.305
13810WAT     H241673   2.037   5.996   3.340
13811WAT      O41674   6.506   6.242   9.081
13811WAT     H141675   6.501   6.164   9.144
13811WAT     H241676   6.602   6.256   9.054
13812WAT      O41677   8.535   9.730   9.328
13812WAT     H141678   8.495   9.695   9.413
13812WAT     H241679   8.630   9.699   9.321
13813WAT      O41680   8.790   2.537   0.371
13813WAT     H141681   8.814   2.617   0.317
13813WAT     H241682   8.719   2.484   0.324
13814WAT      O41683   6.838   2.303   5.379
13814WAT     H141684   6.877   2.391   5.355
13814WAT     H241685   6.746   2.316   5.416
13815WAT      O41686   0.144   7.140   4.673
13815WAT     H141687   0.233   7.096   4.680
13815WAT     H241688   0.149   7.215   4.607
13816WAT      O41689   6.582   5.984   3.126
13816WAT     H141690   6.517   6.038   3.180
13816WAT     H241691   6.547   5.973   3.033
13817WAT      O41692   7.425   1.310   7.380
13817WAT     H141693   7.494   1.237   7.387
13817WAT     H241694   7.398   1.339   7.471
13818WAT      O41695   4.520   6.173   3.179
13818WAT     H141696   4.437   6.229   3.187
13818WAT     H241697   4.500   6.092   3.124
13819WAT      O41698   1.121   3.753   7.597
13819WAT     H141699   1.024   3.732   7.582
13819WAT     H241700   1.153   3.704   7.678
13820WAT      O41701   5.891   1.856   8.034
13820WAT     H141702   5.932   1.940   7.997
13820WAT     H241703   5.805   1.837   7.987
13821WAT      O41704   6.551   2.304   9.291
13821WAT     H141705   6.452   2.300   9.279
13821WAT     H241706   6.582   2.224   9.342
13822WAT      O41707   6.183   5.478   4.398
13822WAT     H141708   6.264   5.473   4.456
13822WAT     H241709   6.145   5.570   4.401
13823WAT      O41710   7.587   5.391   5.461
13823WAT     H141711   7.686   5.377   5.467
13823WAT     H241712   7.560   5.463   5.524
13824WAT      O41713   5.155   7.391   7.476
13824WAT     H141714   5.164   7.391   7.575
13824WAT     H241715   5.189   7.477   7.438
13825WAT      O41716   5.107   9.530   2.493
13825WAT     H141717   5.156   9.519   2.406
13825WAT     H241718   5.172   9.523   2.568
13826WAT      O41719   0.134   7.226   3.251
13826WAT     H141720   0.203   7.208   3.320
13826WAT     H241721   0.174   7.217   3.160
13827WAT      O41722   3.227   9.024   1.869
13827WAT     H141723   3.137   9.054   1.838
13827WAT     H241724   3.218   8.941   1.924
13828WAT      O41725   0.482   0.898   0.729
13828WAT     H141726   0.571   0.852   0.724
13828WAT     H241727   0.410   0.831   0.711
13829WAT      O41728   8.320   1.472   1.220
13829WAT     H141729   8.359   1.498   1.132
13829WAT     H241730   8.373   1.398   1.261
13830WAT      O41731   6.513   9.252   5.183
13830WAT     H141732   6.546   9.182   5.119
13830WAT     H241733   6.484   9.208   5.268
13831WAT      O41734   2.959   2.375   8.911
13831WAT     H141735   2.924   2.440   8.844
13831WAT     H241736   2.932   2.403   9.002
13832WAT      O41737   6.230   7.526   0.029
13832WAT     H141738   6.294   7.537   0.104
13832WAT     H241739   6.262   7.454  -0.032
13833WAT      O41740   3.660   6.182   8.952
13833WAT     H141741   3.577   6.179   9.008
13833WAT     H241742   3.645   6.239   8.872
13834WAT      O41743   4.217   8.238   8.236
13834WAT     H141744   4.205   8.210   8.141
13834WAT     H241745   4.270   8.322   8.240
13835WAT      O41746   1.831   5.671   1.345
13835WAT     H141747   1.789   5.615   1.274
13835WAT     H241748   1.868   5.754   1.304
13836WAT      O41749   9.196   5.650   9.024
13836WAT     H141750   9.236   5.672   9.113
13836WAT     H241751   9.204   5.551   9.007
13837WAT      O41752   0.849   4.396   0.393
13837WAT     H141753   0.860   4.492   0.422
13837WAT     H241754   0.865   4.390   0.295
13838WAT      O41755   2.539   1.773   6.335
13838WAT     H141756   2.628   1.781   6.379
13838WAT     H241757   2.486   1.701   6.379
13839WAT      O41758   9.728   1.426   4.336
13839WAT     H141759   9.721   1.417   4.436
13839WAT     H241760   9.788   1.503   4.313
13840WAT      O41761   1.964   1.038   8.779
13840WAT     H141762   2.009   1.119   8.816
13840WAT     H241763   1.963   0.966   8.849
13841WAT      O41764   9.280   6.695   7.877
13841WAT     H141765   9.331   6.763   7.929
13841WAT     H241766   9.289   6.605   7.921
13842WAT      O41767   9.506   9.490   7.262
13842WAT     H141768   9.583   9.429   7.246
13842WAT     H241769   9.506   9.519   7.358
13843WAT      O41770   6.369   1.530   3.004
13843WAT     H141771   6.413   1.513   2.916
13843WAT     H241772   6.287   1.585   2.990
13844WAT      O41773   1.533   3.098   1.574
13844WAT     H141774   1.514   3.091   1.476
13844WAT     H241775   1.539   3.194   1.600
13845WAT      O41776   3.754   4.008   5.979
13845WAT     H141777   3.782   4.010   6.075
13845WAT     H241778   3.697   3.927   5.963
13846WAT      O41779   9.195   8.149   5.403
13846WAT     H141780   9.201   8.189   5.494
13846WAT     H241781   9.285   8.152   5.359
13847WAT      O41782   5.721   8.185   1.392
13847WAT     H141783   5.777   8.246   1.337
13847WAT     H241784   5.628   8.180   1.354
13848WAT      O41785   1.577   6.042   6.534
13848WAT     H141786   1.568   6.119   6.470
13848WAT     H241787   1.505   5.975   6.515
13849WAT      O41788   1.023   6.065   8.898
13849WAT     H141789   1.091   6.046   8.827
13849WAT     H241790   0.956   6.131   8.862
13850WAT      O41791   6.465   5.470   8.068
13850WAT     H141792   6.429   5.377   8.062
13850WAT     H241793   6.419   5.520   8.142
13851WAT      O41794   3.979   8.987   4.950
13851WAT     H141795   3.948   8.901   4.992
13851WAT     H241796   4.076   9.000   4.972
13852WAT      O41797   7.187   3.249   2.416
13852WAT     H141798   7.220   3.304   2.339
13852WAT     H241799   7.088   3.260   2.424
13853WAT      O41800   3.706   2.045   7.918
13853WAT     H141801   3.685   1.994   7.835
13853WAT     H241802   3.671   1.996   7.998
13854WAT      O41803   4.203   5.979   0.012
13854WAT     H141804   4.296   5.943   0.007
13854WAT     H241805   4.146   5.935  -0.057
13855WAT      O41806   7.418   0.153   4.975
13855WAT     H141807   7.498   0.213   4.968
13855WAT     H241808   7.442   0.071   5.027
13856WAT      O41809   4.321   8.638   9.036
13856WAT     H141810   4.250   8.568   9.033
13856WAT     H241811   4.410   8.598   9.012
13857WAT      O41812   3.797   9.622   1.657
13857WAT     H141813   3.754   9.556   1.719
13857WAT     H241814   3.861   9.679   1.708
13858WAT      O41815   6.092   0.657   5.707
13858WAT     H141816   6.189   0.660   5.683
13858WAT     H241817   6.077   0.587   5.777
13859WAT      O41818   2.744   7.904   9.499
13859WAT     H141819   2.740   7.864   9.590
13859WAT     H241820   2.702   7.995   9.500
13860WAT      O41821   6.206   2.943   0.274
13860WAT     H141822   6.198   2.949   0.373
13860WAT     H241823   6.277   2.877   0.250
13861WAT      O41824   1.369   4.232   3.657
13861WAT     H141825   1.448   4.241   3.596
13861WAT     H241826   1.349   4.320   3.699
13862WAT      O41827   9.142   7.066   4.288
13862WAT     H141828   9.109   7.148   4.241
13862WAT     H241829   9.221   7.089   4.345
13863WAT      O41830   2.236   7.877   6.599
13863WAT     H141831   2.161   7.821   6.633
13863WAT     H241832   2.309   7.818   6.565
13864WAT      O41833   6.235   2.026   8.939
13864WAT     H141834   6.156   2.033   9.000
13864WAT     H241835   6.309   1.977   8.985
13865WAT      O41836   1.389   1.301   6.035
13865WAT     H141837   1.297   1.317   6.071
13865WAT     H241838   1.384   1.288   5.936
13866WAT      O41839   5.760   5.103   2.847
13866WAT     H141840   5.661   5.109   2.830
13866WAT     H241841   5.797   5.195   2.861
13867WAT      O41842   0.719   2.399   3.076
13867WAT     H141843   0.806   2.446   3.088
13867WAT     H241844   0.645   2.454   3.116
13868WAT      O41845   7.033   8.751   1.737
13868WAT     H141846   6.978   8.827   1.702
13868WAT     H241847   7.015   8.669   1.684
13869WAT      O41848   4.902   8.154   9.329
13869WAT     H141849   4.885   8.252   9.314
13869WAT     H241850   4.825   8.102   9.294
13870WAT      O41851   0.898   0.686   3.232
13870WAT     H141852   0.828   0.722   3.171
13870WAT     H241853   0.988   0.717   3.202
13871WAT      O41854   4.548   3.520   9.248
13871WAT     H141855   4.641   3.534   9.282
13871WAT     H241856   4.551   3.463   9.166
13872WAT      O41857   4.105   3.233   9.061
13872WAT     H141858   4.017   3.185   9.063
13872WAT     H241859   4.142   3.231   8.969
13873WAT      O41860   2.933   0.923   2.341
13873WAT     H141861   2.873   0.849   2.374
13873WAT     H241862   2.877   1.000   2.311
13874WAT      O41863   3.989   6.893   8.482
13874WAT     H141864   3.979   6.846   8.395
13874WAT     H241865   4.075   6.867   8.525
13875WAT      O41866   2.603   7.715   4.873
13875WAT     H141867   2.695   7.712   4.833
13875WAT     H241868   2.586   7.629   4.921
13876WAT      O41869   7.985   6.753   9.006
13876WAT     H141870   8.064   6.815   9.007
13876WAT     H241871   7.902   6.805   9.027
13877WAT      O41872   4.425   9.014   1.822
13877WAT     H141873   4.424   8.951   1.745
13877WAT     H241874   4.351   8.991   1.885
13878WAT      O41875   2.937   4.108   4.624
13878WAT     H141876   2.933   4.192   4.569
13878WAT     H241877   2.901   4.031   4.570
13879WAT      O41878   7.895   1.916   8.926
13879WAT     H141879   7.959   1.993   8.925
13879WAT     H241880   7.844   1.916   9.012
13880WAT      O41881   5.609   1.162   2.973
13880WAT     H141882   5.613   1.191   3.069
13880WAT     H241883   5.524   1.112   2.957
13881WAT      O41884   9.501   3.222   5.982
13881WAT     H141885   9.561   3.181   6.051
13881WAT     H241886   9.408   3.228   6.017
13882WAT      O41887   0.643   4.694   3.029
13882WAT     H141888   0.659   4.780   2.981
13882WAT     H241889   0.546   4.687   3.053
13883WAT      O41890   6.270   3.565   6.558
13883WAT     H141891   6.325   3.533   6.635
13883WAT     H241892   6.185   3.606   6.592
13884WAT      O41893   6.448   1.600   1.655
13884WAT     H141894   6.521   1.532   1.670
13884WAT     H241895   6.405   1.622   1.743
13885WAT      O41896   7.829   4.436   2.018
13885WAT     H141897   7.823   4.342   2.052
13885WAT     H241898   7.918   4.451   1.976
13886WAT      O41899   5.609   6.993   3.909
13886WAT     H141900   5.598   6.957   4.001
13886WAT     H241901   5.699   7.037   3.901
13887WAT      O41902   5.484   0.701   6.950
13887WAT     H141903   5.441   0.673   6.864
13887WAT     H241904   5.416   0.748   7.007
13888WAT      O41905   8.671   6.118   5.114
13888WAT     H141906   8.652   6.048   5.183
13888WAT     H241907   8.616   6.100   5.032
13889WAT      O41908   1.198   1.699   0.699
13889WAT     H141909   1.172   1.628   0.764
13889WAT     H241910   1.274   1.667   0.643
13890WAT      O41911   5.532   8.755   5.269
13890WAT     H141912   5.532   8.829   5.202
13890WAT     H241913   5.438   8.729   5.291
13891WAT      O41914   3.415   3.845   3.439
13891WAT     H141915   3.493   3.841   3.502
13891WAT     H241916   3.359   3.926   3.461
13892WAT      O41917   3.372   0.492   5.961
13892WAT     H141918   3.438   0.565   5.944
13892WAT     H241919   3.304   0.491   5.888
13893WAT      O41920   3.183   4.720   0.251
13893WAT     H141921   3.248   4.767   0.193
13893WAT     H241922   3.229   4.687   0.333
13894WAT      O41923   7.556   1.911   1.215
13894WAT     H141924   7.521   1.820   1.193
13894WAT     H241925   7.556   1.923   1.315
13895WAT      O41926   6.376   0.470   8.566
13895WAT     H141927   6.309   0.431   8.629
13895WAT     H241928   6.466   0.472   8.610
13896WAT      O41929   8.924   6.806   1.572
13896WAT     H141930   8.968   6.775   1.656
13896WAT     H241931   8.894   6.727   1.518
13897WAT      O41932   0.421   3.441   0.163
13897WAT     H141933   0.391   3.388   0.084
13897WAT     H241934   0.433   3.380   0.241
13898WAT      O41935   9.705   4.495   5.191
13898WAT     H141936   9.681   4.571   5.250
13898WAT     H241937   9.764   4.431   5.241
13899WAT      O41938   3.368   2.197   5.569
13899WAT     H141939   3.398   2.228   5.479
13899WAT     H241940   3.294   2.256   5.601
13900WAT      O41941   8.659   3.175   5.518
13900WAT     H141942   8.619   3.125   5.595
13900WAT     H241943   8.728   3.239   5.551
13901WAT      O41944   6.831   5.457   1.207
13901WAT     H141945   6.888   5.419   1.279
13901WAT     H241946   6.874   5.439   1.118
13902WAT      O41947   8.823   0.194   3.352
13902WAT     H141948   8.886   0.270   3.368
13902WAT     H241949   8.844   0.119   3.414
13903WAT      O41950   6.365   6.696   9.202
13903WAT     H141951   6.416   6.712   9.286
13903WAT     H241952   6.377   6.774   9.140
13904WAT      O41953   5.037   2.124   1.497
13904WAT     H141954   5.097   2.175   1.559
13904WAT     H241955   4.964   2.184   1.465
13905WAT      O41956   2.321   5.086   7.774
13905WAT     H141957   2.409   5.118   7.739
13905WAT     H241958   2.320   4.986   7.775
13906WAT      O41959   2.813   7.458   9.551
13906WAT     H141960   2.908   7.474   9.524
13906WAT     H241961   2.752   7.489   9.478
13907WAT      O41962   0.733   1.879   4.068
13907WAT     H141963   0.792   1.808   4.030
13907WAT     H241964   0.780   1.967   4.066
13908WAT      O41965   9.064   1.486   5.787
13908WAT     H141966   9.156   1.483   5.827
13908WAT     H241967   9.071   1.495   5.688
13909WAT      O41968   8.332   8.293   9.272
13909WAT     H141969   8.257   8.228   9.260
13909WAT     H241970   8.397   8.257   9.339
13910WAT      O41971   7.294   9.073   3.784
13910WAT     H141972   7.326   9.153   3.835
13910WAT     H241973   7.239   9.103   3.706
13911WAT      O41974   9.215   8.979   6.831
13911WAT     H141975   9.195   8.945   6.739
13911WAT     H241976   9.309   9.013   6.834
13912WAT      O41977   8.195   7.815   3.071
13912WAT     H141978   8.111   7.867   3.052
13912WAT     H241979   8.171   7.721   3.094
13913WAT      O41980   1.853   2.861   1.402
13913WAT     H141981   1.908   2.780   1.423
13913WAT     H241982   1.810   2.895   1.486
13914WAT      O41983   6.271   8.797   3.655
13914WAT     H141984   6.318   8.878   3.619
13914WAT     H241985   6.172   8.809   3.645
13915WAT      O41986   1.343   0.166   3.394
13915WAT     H141987   1.342   0.258   3.433
13915WAT     H241988   1.298   0.167   3.305
13916WAT      O41989   2.713   7.170   1.303
13916WAT     H141990   2.721   7.257   1.255
13916WAT     H241991   2.618   7.139   1.301
13917WAT      O41992   1.052   3.494   4.112
13917WAT     H141993   1.063   3.447   4.200
13917WAT     H241994   1.025   3.428   4.042
13918WAT      O41995   5.194   9.412   1.686
13918WAT     H141996   5.186   9.314   1.702
13918WAT     H241997   5.291   9.436   1.676
13919WAT      O41998   9.503   3.099   0.069
13919WAT     H141999   9.466   3.011   0.037
13919WAT     H242000   9.601   3.089   0.086
13920WAT      O42001   3.807   6.329   1.490
13920WAT     H142002   3.785   6.333   1.393
13920WAT     H242003   3.758   6.401   1.539
13921WAT      O42004   1.864   0.163   4.270
13921WAT     H142005   1.866   0.253   4.314
13921WAT     H242006   1.921   0.165   4.188
13922WAT      O42007   1.874   1.787   2.197
13922WAT     H142008   1.958   1.836   2.174
13922WAT     H242009   1.896   1.693   2.224
13923WAT      O42010   5.305   0.039   5.024
13923WAT     H142011   5.262   0.081   4.945
13923WAT     H242012   5.391  -0.003   4.997
13924WAT      O42013   1.861   5.913   6.766
13924WAT     H142014   1.961   5.914   6.765
13924WAT     H242015   1.828   5.822   6.790
13925WAT      O42016   3.881   4.092   3.023
13925WAT     H142017   3.868   4.007   2.971
13925WAT     H242018   3.807   4.101   3.090
13926WAT      O42019   8.760   4.863   3.737
13926WAT     H142020   8.851   4.904   3.729
13926WAT     H242021   8.720   4.890   3.825
13927WAT      O42022   2.403   0.847   0.748
13927WAT     H142023   2.438   0.755   0.732
13927WAT     H242024   2.408   0.900   0.663
13928WAT      O42025   5.506   7.977   1.999
13928WAT     H142026   5.521   7.882   1.971
13928WAT     H242027   5.539   8.038   1.927
13929WAT      O42028   2.623   2.383   6.675
13929WAT     H142029   2.662   2.377   6.767
13929WAT     H242030   2.526   2.360   6.679
13930WAT      O42031   1.416   7.085   0.399
13930WAT     H142032   1.426   7.103   0.302
13930WAT     H242033   1.322   7.056   0.419
13931WAT      O42034   5.661   9.631   8.355
13931WAT     H142035   5.726   9.586   8.293
13931WAT     H242036   5.575   9.580   8.355
13932WAT      O42037   4.148   4.360   8.532
13932WAT     H142038   4.135   4.263   8.511
13932WAT     H242039   4.207   4.370   8.612
13933WAT      O42040   7.700   3.915   3.953
13933WAT     H142041   7.641   3.874   3.884
13933WAT     H242042   7.680   3.875   4.042
13934WAT      O42043   6.293   4.395   2.053
13934WAT     H142044   6.223   4.371   2.119
13934WAT     H242045   6.345   4.313   2.028
13935WAT      O42046   6.056   8.916   3.984
13935WAT     H142047   6.003   8.910   3.900
13935WAT     H242048   6.128   8.846   3.983
13936WAT      O42049   6.093   3.233   6.924
13936WAT     H142050   6.161   3.181   6.872
13936WAT     H242051   6.006   3.185   6.922
13937WAT      O42052   1.291   7.923   3.861
13937WAT     H142053   1.254   7.959   3.947
13937WAT     H242054   1.383   7.888   3.877
13938WAT      O42055   4.943   3.847   2.619
13938WAT     H142056   5.031   3.820   2.658
13938WAT     H242057   4.869   3.799   2.665
13939WAT      O42058   7.607   8.783   5.500
13939WAT     H142059   7.664   8.701   5.497
13939WAT     H242060   7.523   8.767   5.449
13940WAT      O42061   3.027   8.372   1.891
13940WAT     H142062   3.052   8.468   1.876
13940WAT     H242063   3.021   8.326   1.803
13941WAT      O42064   9.423   1.888   1.464
13941WAT     H142065   9.512   1.861   1.501
13941WAT     H242066   9.390   1.969   1.513
13942WAT      O42067   8.164   9.167   9.231
13942WAT     H142068   8.250   9.216   9.219
13942WAT     H242069   8.115   9.164   9.143
13943WAT      O42070   8.622   3.229   7.858
13943WAT     H142071   8.546   3.266   7.911
13943WAT     H242072   8.644   3.291   7.783
13944WAT      O42073   4.503   4.289   7.100
13944WAT     H142074   4.541   4.251   7.016
13944WAT     H242075   4.542   4.380   7.117
13945WAT      O42076   2.179   3.432   7.655
13945WAT     H142077   2.110   3.441   7.726
13945WAT     H242078   2.143   3.376   7.580
13946WAT      O42079   0.361   3.940   8.484
13946WAT     H142080   0.452   3.905   8.460
13946WAT     H242081   0.291   3.875   8.454
13947WAT      O42082   2.027   0.562   3.479
13947WAT     H142083   1.965   0.491   3.445
13947WAT     H242084   2.027   0.560   3.579
13948WAT      O42085   9.625   2.860   3.961
13948WAT     H142086   9.574   2.846   3.876
13948WAT     H242087   9.722   2.842   3.944
13949WAT      O42088   1.946   7.154   8.134
13949WAT     H142089   1.908   7.068   8.168
13949WAT     H242090   2.043   7.159   8.158
13950WAT      O42091   6.342   6.854   9.865
13950WAT     H142092   6.255   6.808   9.877
13950WAT     H242093   6.391   6.855   9.952
13951WAT      O42094   3.665   5.457   6.764
13951WAT     H142095   3.689   5.462   6.860
13951WAT     H242096   3.691   5.542   6.718
13952WAT      O42097   4.654   2.285   0.893
13952WAT     H142098   4.639   2.350   0.819
13952WAT     H242099   4.671   2.334   0.979
13953WAT      O42100   6.107   4.479   3.078
13953WAT     H142101   6.113   4.485   2.978
13953WAT     H242102   6.011   4.470   3.105
13954WAT      O42103   4.280   5.406   0.694
13954WAT     H142104   4.242   5.465   0.623
13954WAT     H242105   4.368   5.443   0.724
13955WAT      O42106   5.642   6.062   2.459
13955WAT     H142107   5.686   6.019   2.538
13955WAT     H242108   5.693   6.038   2.376
13956WAT      O42109   7.286   0.749   3.801
13956WAT     H142110   7.287   0.650   3.791
13956WAT     H242111   7.368   0.779   3.850
13957WAT      O42112   2.147   4.863   8.595
13957WAT     H142113   2.212   4.890   8.665
13957WAT     H242114   2.191   4.867   8.505
13958WAT      O42115   4.242   3.823   4.294
13958WAT     H142116   4.176   3.822   4.219
13958WAT     H242117   4.327   3.778   4.264
13959WAT      O42118   7.212   5.725   7.383
13959WAT     H142119   7.151   5.796   7.418
13959WAT     H242120   7.266   5.763   7.308
13960WAT      O42121   9.121   0.408   9.059
13960WAT     H142122   9.076   0.376   9.143
13960WAT     H242123   9.182   0.484   9.080
13961WAT      O42124   8.432   0.076   5.226
13961WAT     H142125   8.348   0.023   5.233
13961WAT     H242126   8.437   0.142   5.301
13962WAT      O42127   5.756   4.230   5.254
13962WAT     H142128   5.819   4.257   5.181
13962WAT     H242129   5.804   4.168   5.317
13963WAT      O42130   0.274   0.298   9.219
13963WAT     H142131   0.352   0.259   9.269
13963WAT     H242132   0.193   0.298   9.278
13964WAT      O42133   2.230   4.468   4.801
13964WAT     H142134   2.212   4.373   4.826
13964WAT     H242135   2.236   4.523   4.884
13965WAT      O42136   0.594   3.765   6.829
13965WAT     H142137   0.636   3.727   6.747
13965WAT     H242138   0.505   3.721   6.844
13966WAT      O42139   0.946   6.961   4.201
13966WAT     H142140   0.992   6.901   4.136
13966WAT     H242141   0.877   6.910   4.251
13967WAT      O42142   6.522   0.803   2.732
13967WAT     H142143   6.541   0.706   2.748
13967WAT     H242144   6.424   0.816   2.724
13968WAT      O42145   9.740   7.739   1.877
13968WAT     H142146   9.814   7.677   1.849
13968WAT     H242147   9.778   7.828   1.902
13969WAT      O42148   3.075   4.038   0.714
13969WAT     H142149   3.085   4.135   0.690
13969WAT     H242150   3.157   3.988   0.685
13970WAT      O42151   6.479   9.020   4.279
13970WAT     H142152   6.574   9.003   4.306
13970WAT     H242153   6.451   9.111   4.309
13971WAT      O42154   0.840   5.916   2.151
13971WAT     H142155   0.785   5.924   2.067
13971WAT     H242156   0.889   6.002   2.167
13972WAT      O42157   1.067   1.710   2.383
13972WAT     H142158   1.113   1.758   2.308
13972WAT     H242159   1.108   1.620   2.395
13973WAT      O42160   4.869   4.766   9.409
13973WAT     H142161   4.968   4.753   9.402
13973WAT     H242162   4.831   4.782   9.317
13974WAT      O42163   0.384   2.428   0.129
13974WAT     H142164   0.322   2.360   0.168
13974WAT     H242165   0.341   2.471   0.050
13975WAT      O42166   0.415   3.216   6.841
13975WAT     H142167   0.349   3.271   6.892
13975WAT     H242168   0.487   3.276   6.805
13976WAT      O42169   3.159   1.989   6.599
13976WAT     H142170   3.166   1.946   6.509
13976WAT     H242171   3.116   2.079   6.590
13977WAT      O42172   3.262   4.202   9.834
13977WAT     H142173   3.204   4.124   9.810
13977WAT     H242174   3.327   4.219   9.760
13978WAT      O42175   7.239   8.529   8.283
13978WAT     H142176   7.196   8.618   8.292
13978WAT     H242177   7.169   8.457   8.287
13979WAT      O42178   8.694   9.039   4.116
13979WAT     H142179   8.697   8.968   4.045
13979WAT     H242180   8.786   9.073   4.133
13980WAT      O42181   8.118   5.584   0.050
13980WAT     H142182   8.123   5.608   0.147
13980WAT     H242183   8.050   5.513   0.036
13981WAT      O42184   5.917   6.834   0.069
13981WAT     H142185   5.995   6.791   0.022
13981WAT     H242186   5.855   6.763   0.103
13982WAT      O42187   0.955   4.161   2.720
13982WAT     H142188   0.986   4.232   2.783
13982WAT     H242189   1.031   4.134   2.661
13983WAT      O42190   8.117   4.118   3.190
13983WAT     H142191   8.192   4.104   3.126
13983WAT     H242192   8.060   4.035   3.193
13984WAT      O42193   9.304   2.262   7.715
13984WAT     H142194   9.234   2.263   7.644
13984WAT     H242195   9.265   2.228   7.801
13985WAT      O42196   0.277   2.777   8.206
13985WAT     H142197   0.313   2.867   8.182
13985WAT     H242198   0.305   2.754   8.299
13986WAT      O42199   5.560   9.836   8.799
13986WAT     H142200   5.579   9.806   8.705
13986WAT     H242201   5.506   9.920   8.797
13987WAT      O42202   4.774   8.228   9.599
13987WAT     H142203   4.690   8.281   9.589
13987WAT     H242204   4.824   8.229   9.512
13988WAT      O42205   0.557   5.975   1.527
13988WAT     H142206   0.513   5.960   1.615
13988WAT     H242207   0.543   6.069   1.498
13989WAT      O42208   7.957   3.066   0.460
13989WAT     H142209   7.861   3.043   0.481
13989WAT     H242210   7.962   3.102   0.367
13990WAT      O42211   1.328   0.807   4.216
13990WAT     H142212   1.380   0.885   4.181
13990WAT     H242213   1.239   0.803   4.170
13991WAT      O42214   9.684   5.401   8.204
13991WAT     H142215   9.693   5.498   8.179
13991WAT     H242216   9.763   5.373   8.257
13992WAT      O42217   9.744   1.308   1.280
13992WAT     H142218   9.663   1.250   1.280
13992WAT     H242219   9.721   1.396   1.238
13993WAT      O42220   7.101   9.707   6.891
13993WAT     H142221   7.150   9.792   6.915
13993WAT     H242222   7.011   9.730   6.856
13994WAT      O42223   6.717   9.491   9.410
13994WAT     H142224   6.711   9.505   9.508
13994WAT     H242225   6.799   9.537   9.375
13995WAT      O42226   4.575   2.395   8.680
13995WAT     H142227   4.639   2.472   8.678
13995WAT     H242228   4.536   2.382   8.589
13996WAT      O42229   8.569   1.116   5.717
13996WAT     H142230   8.647   1.057   5.696
13996WAT     H242231   8.598   1.191   5.775
13997WAT      O42232   5.193   0.128   0.463
13997WAT     H142233   5.124   0.159   0.398
13997WAT     H242234   5.150   0.071   0.533
13998WAT      O42235   2.382   1.846   0.131
13998WAT     H142236   2.476   1.820   0.109
13998WAT     H242237   2.331   1.765   0.162
13999WAT      O42238   3.516   9.349   4.013
13999WAT     H142239   3.474   9.438   4.032
13999WAT     H242240   3.446   9.279   4.006
14000WAT      O42241   1.170   3.343   7.198
14000WAT     H142242   1.150   3.392   7.283
14000WAT     H242243   1.091   3.350   7.137
14001WAT      O42244   9.307   6.342   6.159
14001WAT     H142245   9.397   6.376   6.188
14001WAT     H242246   9.265   6.408   6.098
14002WAT      O42247   4.432   7.146   7.077
14002WAT     H142248   4.522   7.178   7.047
14002WAT     H242249   4.375   7.225   7.099
14003WAT      O42250   5.674   6.229   1.966
14003WAT     H142251   5.734   6.149   1.969
14003WAT     H242252   5.627   6.232   1.878
14004WAT      O42253   9.301   1.148   6.454
14004WAT     H142254   9.314   1.225   6.392
14004WAT     H242255   9.225   1.092   6.423
14005WAT      O42256   5.316   1.743   6.740
14005WAT     H142257   5.305   1.643   6.736
14005WAT     H242258   5.408   1.764   6.772
14006WAT      O42259   4.263   1.412   1.166
14006WAT     H142260   4.301   1.320   1.170
14006WAT     H242261   4.189   1.415   1.098
14007WAT      O42262   6.436   2.330   3.614
14007WAT     H142263   6.525   2.285   3.603
14007WAT     H242264   6.364   2.261   3.612
14008WAT      O42265   8.953   7.147   9.134
14008WAT     H142266   8.886   7.220   9.120
14008WAT     H242267   9.009   7.137   9.051
14009WAT      O42268   6.512   7.655   2.905
14009WAT     H142269   6.521   7.588   2.831
14009WAT     H242270   6.500   7.606   2.992
14010WAT      O42271   2.639   3.110   2.151
14010WAT     H142272   2.697   3.171   2.098
14010WAT     H242273   2.669   3.110   2.247
14011WAT      O42274   6.535   0.652   7.423
14011WAT     H142275   6.482   0.712   7.482
14011WAT     H242276   6.611   0.612   7.475
14012WAT      O42277   0.533   0.790   6.017
14012WAT     H142278   0.471   0.853   6.064
14012WAT     H242279   0.537   0.812   5.920
14013WAT      O42280   6.968   0.749   6.901
14013WAT     H142281   6.902   0.752   6.976
14013WAT     H242282   6.993   0.842   6.875
14014WAT      O42283   5.333   3.335   4.797
14014WAT     H142284   5.384   3.403   4.745
14014WAT     H242285   5.396   3.270   4.839
14015WAT      O42286   9.095   3.248   5.076
14015WAT     H142287   9.181   3.227   5.029
14015WAT     H242288   9.032   3.292   5.012
14016WAT      O42289   2.069   1.315   8.150
14016WAT     H142290   1.974   1.314   8.120
14016WAT     H242291   2.099   1.221   8.169
14017WAT      O42292   1.791   4.065   9.051
14017WAT     H142293   1.874   4.100   9.094
14017WAT     H242294   1.802   4.066   8.951
14018WAT      O42295   4.819   3.383   4.765
14018WAT     H142296   4.894   3.367   4.829
14018WAT     H242297   4.818   3.312   4.695
14019WAT      O42298   3.345   5.079   3.382
14019WAT     H142299   3.320   4.983   3.392
14019WAT     H242300   3.442   5.091   3.404
14020WAT      O42301   0.326   8.578   2.809
14020WAT     H142302   0.342   8.485   2.774
14020WAT     H242303   0.244   8.616   2.765
14021WAT      O42304   5.296   4.182   1.402
14021WAT     H142305   5.296   4.156   1.498
14021WAT     H242306   5.327   4.105   1.346
14022WAT      O42307   2.968   1.022   3.916
14022WAT     H142308   3.059   0.983   3.927
14022WAT     H242309   2.932   1.047   4.006
14023WAT      O42310   0.561   0.545   1.803
14023WAT     H142311   0.609   0.459   1.789
14023WAT     H242312   0.580   0.607   1.726
14024WAT      O42313   3.586   5.363   1.495
14024WAT     H142314   3.612   5.360   1.592
14024WAT     H242315   3.669   5.365   1.438
14025WAT      O42316   6.868   3.800   1.143
14025WAT     H142317   6.967   3.795   1.127
14025WAT     H242318   6.842   3.728   1.208
14026WAT      O42319   9.431   1.514   9.850
14026WAT     H142320   9.478   1.510   9.761
14026WAT     H242321   9.452   1.601   9.895
14027WAT      O42322   5.317   4.968   9.385
14027WAT     H142323   5.394   4.905   9.400
14027WAT     H242324   5.350   5.049   9.336
14028WAT      O42325   1.589   8.771   7.705
14028WAT     H142326   1.654   8.793   7.633
14028WAT     H242327   1.592   8.673   7.725
14029WAT      O42328   9.750   2.736   7.567
14029WAT     H142329   9.730   2.687   7.652
14029WAT     H242330   9.698   2.821   7.563
14030WAT      O42331   2.235   4.966   2.593
14030WAT     H142332   2.239   4.897   2.520
14030WAT     H242333   2.167   4.938   2.661
14031WAT      O42334   0.278   3.874   6.515
14031WAT     H142335   0.375   3.882   6.537
14031WAT     H242336   0.262   3.907   6.422
14032WAT      O42337   9.446   3.159   4.095
14032WAT     H142338   9.463   3.179   4.192
14032WAT     H242339   9.396   3.073   4.087
14033WAT      O42340   8.106   0.985   4.862
14033WAT     H142341   8.039   1.043   4.907
14033WAT     H242342   8.076   0.889   4.868
14034WAT      O42343   6.026   2.303   7.142
14034WAT     H142344   6.031   2.317   7.241
14034WAT     H242345   6.088   2.367   7.096
14035WAT      O42346   0.586   9.652   8.496
14035WAT     H142347   0.567   9.668   8.593
14035WAT     H242348   0.666   9.592   8.488
14036WAT      O42349   3.425   3.931   6.069
14036WAT     H142350   3.421   3.840   6.109
14036WAT     H242351   3.460   3.995   6.138
14037WAT      O42352   9.296   9.787   7.309
14037WAT     H142353   9.197   9.804   7.310
14037WAT     H242354   9.321   9.733   7.390
14038WAT      O42355   8.097   1.666   8.541
14038WAT     H142356   8.053   1.606   8.474
14038WAT     H242357   8.078   1.634   8.633
14039WAT      O42358   4.535   8.448   9.295
14039WAT     H142359   4.528   8.490   9.204
14039WAT     H242360   4.477   8.366   9.298
14040WAT      O42361   5.482   5.444   9.256
14040WAT     H142362   5.534   5.365   9.289
14040WAT     H242363   5.399   5.455   9.311
14041WAT      O42364   8.015   8.597   4.528
14041WAT     H142365   7.948   8.602   4.454
14041WAT     H242366   7.988   8.526   4.592
14042WAT      O42367   9.535   9.296   3.018
14042WAT     H142368   9.610   9.310   3.082
14042WAT     H242369   9.571   9.276   2.927
14043WAT      O42370   1.076   0.538   2.464
14043WAT     H142371   1.092   0.588   2.549
14043WAT     H242372   1.085   0.602   2.386
14044WAT      O42373   9.501   7.777   2.048
14044WAT     H142374   9.552   7.730   2.120
14044WAT     H242375   9.555   7.779   1.964
14045WAT      O42376   7.237   8.298   6.920
14045WAT     H142377   7.193   8.209   6.924
14045WAT     H242378   7.314   8.301   6.984
14046WAT      O42379   7.821   4.891   9.085
14046WAT     H142380   7.777   4.845   9.007
14046WAT     H242381   7.767   4.970   9.112
14047WAT      O42382   3.252   8.216   7.057
14047WAT     H142383   3.288   8.303   7.091
14047WAT     H242384   3.310   8.182   6.984
14048WAT      O42385   5.038   1.979   7.476
14048WAT     H142386   5.084   1.892   7.496
14048WAT     H242387   4.942   1.973   7.503
14049WAT      O42388   0.951   5.946   4.159
14049WAT     H142389   1.007   5.984   4.233
14049WAT     H242390   1.010   5.898   4.094
14050WAT      O42391   4.925   4.665   1.374
14050WAT     H142392   4.951   4.596   1.306
14050WAT     H242393   4.832   4.646   1.406
14051WAT      O42394   8.373   1.653   4.164
14051WAT     H142395   8.304   1.594   4.122
14051WAT     H242396   8.329   1.737   4.197
14052WAT      O42397   0.142   2.378   7.210
14052WAT     H142398   0.142   2.470   7.169
14052WAT     H242399   0.236   2.345   7.219
14053WAT      O42400   3.027   3.265   4.510
14053WAT     H142401   3.116   3.294   4.546
14053WAT     H242402   3.041   3.200   4.436
14054WAT      O42403   4.715   5.393   7.592
14054WAT     H142404   4.661   5.478   7.587
14054WAT     H242405   4.811   5.414   7.574
14055WAT      O42406   6.659   1.579   3.395
14055WAT     H142407   6.593   1.606   3.464
14055WAT     H242408   6.703   1.660   3.357
14056WAT      O42409   8.449   6.567   6.967
14056WAT     H142410   8.496   6.621   6.897
14056WAT     H242411   8.353   6.593   6.971
14057WAT      O42412   1.271   1.321   1.795
14057WAT     H142413   1.352   1.319   1.854
14057WAT     H242414   1.250   1.229   1.763
14058WAT      O42415   4.084   3.026   8.760
14058WAT     H142416   4.040   2.982   8.839
14058WAT     H242417   4.143   2.960   8.714
14059WAT      O42418   8.094   8.759   4.190
14059WAT     H142419   8.090   8.711   4.278
14059WAT     H242420   8.142   8.846   4.201
14060WAT      O42421   4.655   5.352   2.509
14060WAT     H142422   4.704   5.396   2.584
14060WAT     H242423   4.691   5.259   2.496
14061WAT      O42424   1.800   5.609   4.704
14061WAT     H142425   1.740   5.567   4.636
14061WAT     H242426   1.895   5.585   4.684
14062WAT      O42427   5.659   4.345   4.629
14062WAT     H142428   5.584   4.291   4.590
14062WAT     H242429   5.629   4.439   4.642
14063WAT      O42430   1.378   0.723   5.081
14063WAT     H142431   1.384   0.819   5.111
14063WAT     H242432   1.447   0.669   5.129
14064WAT      O42433   1.675   4.181   6.702
14064WAT     H142434   1.589   4.214   6.741
14064WAT     H242435   1.665   4.087   6.671
14065WAT      O42436   3.697   5.228   7.228
14065WAT     H142437   3.735   5.221   7.320
14065WAT     H242438   3.599   5.248   7.234
14066WAT      O42439   3.692   6.371   0.371
14066WAT     H142440   3.667   6.275   0.361
14066WAT     H242441   3.704   6.412   0.280
14067WAT      O42442   8.782   0.305   0.843
14067WAT     H142443   8.722   0.377   0.810
14067WAT     H242444   8.877   0.335   0.837
14068WAT      O42445   3.276   0.221   9.740
14068WAT     H142446   3.203   0.249   9.677
14068WAT     H242447   3.293   0.123   9.729
14069WAT      O42448   1.590   5.111   2.878
14069WAT     H142449   1.568   5.196   2.829
14069WAT     H242450   1.506   5.058   2.891
14070WAT      O42451   0.408   0.880   9.293
14070WAT     H142452   0.363   0.874   9.382
14070WAT     H242453   0.349   0.840   9.223
14071WAT      O42454   4.378   4.283   1.914
14071WAT     H142455   4.331   4.266   2.001
14071WAT     H242456   4.445   4.356   1.926
14072WAT      O42457   0.433   3.194   9.184
14072WAT     H142458   0.518   3.162   9.228
14072WAT     H242459   0.402   3.127   9.118
14073WAT      O42460   2.303   2.764   0.525
14073WAT     H142461   2.326   2.854   0.489
14073WAT     H242462   2.214   2.735   0.490
14074WAT      O42463   9.181   5.642   6.092
14074WAT     H142464   9.222   5.649   6.183
14074WAT     H242465   9.113   5.714   6.080
14075WAT      O42466   7.728   9.601   0.054
14075WAT     H142467   7.748   9.699   0.056
14075WAT     H242468   7.650   9.584  -0.006
14076WAT      O42469   2.388   0.809   5.933
14076WAT     H142470   2.381   0.742   6.006
14076WAT     H242471   2.413   0.898   5.972
14077WAT      O42472   8.002   9.290   6.434
14077WAT     H142473   7.941   9.236   6.492
14077WAT     H242474   7.991   9.387   6.455
14078WAT      O42475   1.161   7.110   8.826
14078WAT     H142476   1.187   7.133   8.919
14078WAT     H242477   1.210   7.027   8.797
14079WAT      O42478   4.621   6.106   2.468
14079WAT     H142479   4.582   6.016   2.487
14079WAT     H242480   4.678   6.100   2.386
14080WAT      O42481   0.137   8.657   3.267
14080WAT     H142482   0.207   8.636   3.199
14080WAT     H242483   0.069   8.720   3.228
14081WAT      O42484   2.294   2.080   6.884
14081WAT     H142485   2.313   2.032   6.970
14081WAT     H242486   2.214   2.041   6.840
14082WAT      O42487   9.563   4.171   8.072
14082WAT     H142488   9.616   4.219   8.002
14082WAT     H242489   9.466   4.172   8.047
14083WAT      O42490   9.654   4.476   6.971
14083WAT     H142491   9.625   4.422   6.891
14083WAT     H242492   9.672   4.414   7.048
14084WAT      O42493   8.411   3.513   9.179
14084WAT     H142494   8.475   3.436   9.176
14084WAT     H242495   8.389   3.533   9.274
14085WAT      O42496   4.985   5.784   4.850
14085WAT     H142497   4.987   5.865   4.909
14085WAT     H242498   5.057   5.791   4.781
14086WAT      O42499   0.623   6.690   5.969
14086WAT     H142500   0.713   6.731   5.959
14086WAT     H242501   0.585   6.669   5.878
14087WAT      O42502   1.151   6.643   9.283
14087WAT     H142503   1.182   6.569   9.343
14087WAT     H242504   1.199   6.728   9.308
14088WAT      O42505   0.128   3.572   0.721
14088WAT     H142506   0.179   3.658   0.723
14088WAT     H242507   0.177   3.505   0.665
14089WAT      O42508   2.669   2.641   7.021
14089WAT     H142509   2.709   2.725   6.983
14089WAT     H242510   2.718   2.562   6.984
14090WAT      O42511   0.620   2.159   7.748
14090WAT     H142512   0.640   2.099   7.825
14090WAT     H242513   0.668   2.246   7.760
14091WAT      O42514   2.855   5.518   6.358
14091WAT     H142515   2.921   5.577   6.404
14091WAT     H242516   2.777   5.502   6.418
14092WAT      O42517   9.752   7.770   6.436
14092WAT     H142518   9.686   7.811   6.499
14092WAT     H242519   9.772   7.836   6.363
14093WAT      O42520   6.070   1.689   2.459
14093WAT     H142521   5.978   1.655   2.442
14093WAT     H242522   6.091   1.762   2.394
14094WAT      O42523   1.789   6.672   5.438
14094WAT     H142524   1.808   6.624   5.353
14094WAT     H242525   1.766   6.767   5.418
14095WAT      O42526   3.464   1.631   9.434
14095WAT     H142527   3.541   1.673   9.483
14095WAT     H242528   3.379   1.669   9.469
14096WAT      O42529   7.697   3.750   5.517
14096WAT     H142530   7.777   3.788   5.563
14096WAT     H242531   7.725   3.673   5.459
14097WAT      O42532   4.448   6.057   8.607
14097WAT     H142533   4.447   6.038   8.705
14097WAT     H242534   4.525   6.010   8.564
14098WAT      O42535   1.075   4.652   4.004
14098WAT     H142536   1.167   4.616   4.022
14098WAT     H242537   1.007   4.585   4.035
14099WAT      O42538   7.916   8.575   7.469
14099WAT     H142539   7.854   8.522   7.411
14099WAT     H242540   7.997   8.520   7.490
14100WAT      O42541   0.210   3.349   6.926
14100WAT     H142542   0.135   3.310   6.980
14100WAT     H242543   0.180   3.364   6.832
14101WAT      O42544   5.499   6.838   4.873
14101WAT     H142545   5.581   6.894   4.886
14101WAT     H242546   5.418   6.897   4.871
14102WAT      O42547   5.250   0.635   9.787
14102WAT     H142548   5.310   0.705   9.750
14102WAT     H242549   5.259   0.551   9.733
14103WAT      O42550   4.924   1.398   1.530
14103WAT     H142551   4.875   1.314   1.508
14103WAT     H242552   5.008   1.376   1.580
14104WAT      O42553   2.261   1.663   1.659
14104WAT     H142554   2.330   1.729   1.630
14104WAT     H242555   2.242   1.675   1.756
14105WAT      O42556   0.637   7.221   1.190
14105WAT     H142557   0.723   7.232   1.240
14105WAT     H242558   0.569   7.180   1.250
14106WAT      O42559   1.346   9.528   3.089
14106WAT     H142560   1.374   9.546   3.183
14106WAT     H242561   1.370   9.606   3.031
14107WAT      O42562   5.421   5.640   0.376
14107WAT     H142563   5.390   5.547   0.356
14107WAT     H242564   5.521   5.642   0.373
14108WAT      O42565   5.080   1.443   0.977
14108WAT     H142566   5.062   1.540   0.957
14108WAT     H242567   5.068   1.427   1.075
14109WAT      O42568   7.405   2.030   7.732
14109WAT     H142569   7.333   1.971   7.694
14109WAT     H242570   7.429   1.998   7.824
14110WAT      O42571   5.596   1.770   2.380
14110WAT     H142572   5.587   1.854   2.433
14110WAT     H242573   5.533   1.774   2.302
14111WAT      O42574   2.307   1.663   7.941
14111WAT     H142575   2.311   1.569   7.972
14111WAT     H242576   2.248   1.716   8.002
14112WAT      O42577   6.833   7.740   8.313
14112WAT     H142578   6.775   7.821   8.327
14112WAT     H242579   6.786   7.659   8.350
14113WAT      O42580   2.451   0.347   7.121
14113WAT     H142581   2.503   0.426   7.087
14113WAT     H242582   2.387   0.377   7.191
14114WAT      O42583   4.034   8.772   6.710
14114WAT     H142584   3.976   8.790   6.631
14114WAT     H242585   4.063   8.859   6.750
14115WAT      O42586   4.156   4.716   9.256
14115WAT     H142587   4.141   4.792   9.192
14115WAT     H242588   4.236   4.735   9.313
14116WAT      O42589   3.681   1.740   5.748
14116WAT     H142590   3.624   1.683   5.690
14116WAT     H242591   3.692   1.698   5.837
14117WAT      O42592   7.933   3.440   0.276
14117WAT     H142593   8.009   3.469   0.332
14117WAT     H242594   7.918   3.505   0.202
14118WAT      O42595   3.348   8.811   5.716
14118WAT     H142596   3.281   8.838   5.647
14118WAT     H242597   3.440   8.830   5.681
14119WAT      O42598   7.923   7.288   4.947
14119WAT     H142599   7.925   7.191   4.972
14119WAT     H242600   7.894   7.343   5.026
14120WAT      O42601   7.011   7.883   5.486
14120WAT     H142602   7.070   7.960   5.509
14120WAT     H242603   6.956   7.905   5.406
14121WAT      O42604   9.019   0.805   4.700
14121WAT     H142605   8.947   0.835   4.636
14121WAT     H242606   9.096   0.768   4.648
14122WAT      O42607   1.033   7.266   6.002
14122WAT     H142608   1.031   7.256   6.101
14122WAT     H242609   0.940   7.264   5.966
14123WAT      O42610   3.685   7.369   0.605
14123WAT     H142611   3.631   7.284   0.598
14123WAT     H242612   3.768   7.360   0.550
14124WAT      O42613   2.197   5.030   1.492
14124WAT     H142614   2.154   5.039   1.402
14124WAT     H242615   2.127   5.024   1.562
14125WAT      O42616   7.083   8.295   5.986
14125WAT     H142617   7.160   8.284   5.923
14125WAT     H242618   7.049   8.205   6.014
14126WAT      O42619   6.194   5.395   6.951
14126WAT     H142620   6.187   5.490   6.920
14126WAT     H242621   6.274   5.385   7.011
14127WAT      O42622   9.766   1.217   6.820
14127WAT     H142623   9.781   1.163   6.903
14127WAT     H242624   9.825   1.184   6.747
14128WAT      O42625   1.741   0.520   5.721
14128WAT     H142626   1.708   0.454   5.789
14128WAT     H242627   1.839   0.537   5.736
14129WAT      O42628   1.431   2.382   4.663
14129WAT     H142629   1.349   2.331   4.637
14129WAT     H242630   1.476   2.417   4.581
14130WAT      O42631   7.607   1.334   5.953
14130WAT     H142632   7.619   1.252   6.008
14130WAT     H242633   7.555   1.312   5.871
14131WAT      O42634   8.659   9.661   1.853
14131WAT     H142635   8.651   9.563   1.837
14131WAT     H242636   8.567   9.702   1.857
14132WAT      O42637   8.871   4.899   7.324
14132WAT     H142638   8.861   4.942   7.234
14132WAT     H242639   8.968   4.900   7.350
14133WAT      O42640   9.323   2.935   6.598
14133WAT     H142641   9.243   2.918   6.540
14133WAT     H242642   9.399   2.968   6.543
14134WAT      O42643   7.336   2.656   8.174
14134WAT     H142644   7.423   2.697   8.149
14134WAT     H242645   7.263   2.723   8.161
14135WAT      O42646   1.485   9.223   9.588
14135WAT     H142647   1.401   9.236   9.537
14135WAT     H242648   1.544   9.303   9.577
14136WAT      O42649   2.915   3.190   6.073
14136WAT     H142650   2.824   3.228   6.094
14136WAT     H242651   2.919   3.096   6.105
14137WAT      O42652   5.751   2.767   9.191
14137WAT     H142653   5.842   2.802   9.171
14137WAT     H242654   5.738   2.679   9.144
14138WAT      O42655   7.650   5.459   0.203
14138WAT     H142656   7.584   5.513   0.256
14138WAT     H242657   7.601   5.393   0.146
14139WAT      O42658   9.441   3.018   3.254
14139WAT     H142659   9.378   3.067   3.314
14139WAT     H242660   9.404   3.018   3.161
14140WAT      O42661   8.038   9.726   2.320
14140WAT     H142662   8.073   9.723   2.226
14140WAT     H242663   7.943   9.697   2.321
14141WAT      O42664   1.595   6.892   9.567
14141WAT     H142665   1.550   6.982   9.571
14141WAT     H242666   1.666   6.888   9.638
14142WAT      O42667   2.754   8.740   3.871
14142WAT     H142668   2.764   8.696   3.782
14142WAT     H242669   2.732   8.837   3.858
14143WAT      O42670   5.612   9.815   9.576
14143WAT     H142671   5.573   9.741   9.631
14143WAT     H242672   5.702   9.786   9.541
14144WAT      O42673   8.696   1.242   2.873
14144WAT     H142674   8.726   1.334   2.899
14144WAT     H242675   8.598   1.244   2.855
14145WAT      O42676   9.781   7.632   9.732
14145WAT     H142677   9.878   7.615   9.713
14145WAT     H242678   9.751   7.712   9.681
14146WAT      O42679   2.065   2.002   2.284
14146WAT     H142680   2.052   1.953   2.370
14146WAT     H242681   2.162   2.009   2.264
14147WAT      O42682   6.373   5.760   5.310
14147WAT     H142683   6.429   5.681   5.337
14147WAT     H242684   6.280   5.749   5.345
14148WAT      O42685   1.623   2.405   2.027
14148WAT     H142686   1.543   2.347   2.011
14148WAT     H242687   1.699   2.373   1.970
14149WAT      O42688   4.609   0.562   1.741
14149WAT     H142689   4.591   0.539   1.837
14149WAT     H242690   4.633   0.659   1.734
14150WAT      O42691   7.120   6.341   9.233
14150WAT     H142692   7.162   6.317   9.146
14150WAT     H242693   7.143   6.436   9.256
14151WAT      O42694   7.608   8.245   3.981
14151WAT     H142695   7.587   8.164   3.927
14151WAT     H242696   7.651   8.314   3.922
14152WAT      O42697   1.827   6.493   4.650
14152WAT     H142698   1.840   6.471   4.746
14152WAT     H242699   1.890   6.566   4.623
14153WAT      O42700   8.561   8.234   9.445
14153WAT     H142701   8.599   8.194   9.528
14153WAT     H242702   8.601   8.188   9.365
14154WAT      O42703   1.364   4.667   3.338
14154WAT     H142704   1.457   4.640   3.362
14154WAT     H242705   1.366   4.751   3.284
14155WAT      O42706   4.492   4.334   0.943
14155WAT     H142707   4.431   4.259   0.970
14155WAT     H242708   4.571   4.337   1.004
14156WAT      O42709   0.426   8.014   1.994
14156WAT     H142710   0.501   8.068   2.031
14156WAT     H242711   0.340   8.039   2.039
14157WAT      O42712   2.906   8.602   4.529
14157WAT     H142713   2.967   8.578   4.453
14157WAT     H242714   2.945   8.570   4.615
14158WAT      O42715   0.943   1.441   7.387
14158WAT     H142716   0.919   1.383   7.466
14158WAT     H242717   1.039   1.429   7.365
14159WAT      O42718   1.620   2.519   9.823
14159WAT     H142719   1.682   2.581   9.774
14159WAT     H242720   1.573   2.460   9.757
14160WAT      O42721   2.520   4.390   2.015
14160WAT     H142722   2.540   4.457   2.086
14160WAT     H242723   2.428   4.354   2.028
14161WAT      O42724   5.121   0.255   6.555
14161WAT     H142725   5.111   0.157   6.538
14161WAT     H242726   5.211   0.285   6.522
14162WAT      O42727   8.683   6.068   0.257
14162WAT     H142728   8.761   6.131   0.248
14162WAT     H242729   8.607   6.116   0.301
14163WAT      O42730   2.326   1.714   3.163
14163WAT     H142731   2.227   1.726   3.160
14163WAT     H242732   2.355   1.700   3.258
14164WAT      O42733   5.948   5.067   0.229
14164WAT     H142734   5.958   4.971   0.204
14164WAT     H242735   5.887   5.075   0.308
14165WAT      O42736   6.096   5.503   6.158
14165WAT     H142737   6.085   5.505   6.059
14165WAT     H242738   6.167   5.436   6.182
14166WAT      O42739   2.132   3.036   6.911
14166WAT     H142740   2.189   2.960   6.877
14166WAT     H242741   2.124   3.029   7.010
14167WAT      O42742   4.199   3.654   7.214
14167WAT     H142743   4.181   3.574   7.157
14167WAT     H242744   4.229   3.624   7.304
14168WAT      O42745   1.998   9.330   8.900
14168WAT     H142746   1.933   9.319   8.975
14168WAT     H242747   2.081   9.277   8.918
14169WAT      O42748   9.417   3.313   7.244
14169WAT     H142749   9.336   3.289   7.191
14169WAT     H242750   9.393   3.324   7.340
14170WAT      O42751   8.845   3.730   9.315
14170WAT     H142752   8.826   3.640   9.276
14170WAT     H242753   8.911   3.779   9.257
14171WAT      O42754   4.772   0.494   8.584
14171WAT     H142755   4.692   0.447   8.620
14171WAT     H242756   4.752   0.591   8.573
14172WAT      O42757   7.145   0.614   9.889
14172WAT     H142758   7.144   0.712   9.873
14172WAT     H242759   7.220   0.591   9.951
14173WAT      O42760   5.340   6.044   9.185
14173WAT     H142761   5.426   6.033   9.136
14173WAT     H242762   5.342   5.991   9.270
14174WAT      O42763   2.413   5.917   4.777
14174WAT     H142764   2.367   5.987   4.832
14174WAT     H242765   2.413   5.945   4.681
14175WAT      O42766   2.617   4.823   7.997
14175WAT     H142767   2.683   4.767   8.046
14175WAT     H242768   2.545   4.765   7.959
14176WAT      O42769   4.151   1.423   4.582
14176WAT     H142770   4.109   1.480   4.512
14176WAT     H242771   4.082   1.362   4.622
14177WAT      O42772   9.812   7.999   1.546
14177WAT     H142773   9.857   8.079   1.587
14177WAT     H242774   9.868   7.918   1.561
14178WAT      O42775   4.823   6.301   3.987
14178WAT     H142776   4.814   6.238   4.064
14178WAT     H242777   4.879   6.258   3.916
14179WAT      O42778   5.766   7.480   8.810
14179WAT     H142779   5.742   7.576   8.796
14179WAT     H242780   5.848   7.474   8.866
14180WAT      O42781   0.080   0.638   4.566
14180WAT     H142782   0.121   0.711   4.619
14180WAT     H242783   0.044   0.568   4.627
14181WAT      O42784   2.277   7.020   0.704
14181WAT     H142785   2.367   7.040   0.667
14181WAT     H242786   2.213   7.001   0.630
14182WAT      O42787   6.918   5.167   2.341
14182WAT     H142788   6.832   5.177   2.390
14182WAT     H242789   6.938   5.069   2.330
14183WAT      O42790   3.966   9.482   8.075
14183WAT     H142791   4.058   9.452   8.099
14183WAT     H242792   3.923   9.526   8.154
14184WAT      O42793   5.081   9.534   4.233
14184WAT     H142794   5.070   9.480   4.150
14184WAT     H242795   5.132   9.617   4.212
14185WAT      O42796   2.854   5.339   3.511
14185WAT     H142797   2.829   5.388   3.428
14185WAT     H242798   2.943   5.295   3.499
14186WAT      O42799   5.140   1.353   1.720
14186WAT     H142800   5.104   1.310   1.803
14186WAT     H242801   5.218   1.301   1.686
14187WAT      O42802   5.974   7.506   8.998
14187WAT     H142803   6.038   7.561   8.944
14187WAT     H242804   5.930   7.564   9.066
14188WAT      O42805   2.091   4.918   7.640
14188WAT     H142806   2.005   4.886   7.600
14188WAT     H242807   2.112   5.009   7.605
14189WAT      O42808   0.224   3.502   2.926
14189WAT     H142809   0.266   3.488   2.836
14189WAT     H242810   0.128   3.474   2.922
14190WAT      O42811   0.110   0.667   8.717
14190WAT     H142812   0.126   0.577   8.677
14190WAT     H242813   0.170   0.734   8.673
14191WAT      O42814   0.139   1.946   2.510
14191WAT     H142815   0.077   1.906   2.442
14191WAT     H242816   0.203   2.008   2.464
14192WAT      O42817   6.677   2.028   4.555
14192WAT     H142818   6.667   1.930   4.537
14192WAT     H242819   6.658   2.080   4.472
14193WAT      O42820   7.930   5.998   8.380
14193WAT     H142821   7.892   6.075   8.432
14193WAT     H242822   7.905   5.913   8.426
14194WAT      O42823   9.562   9.432   2.587
14194WAT     H142824   9.605   9.521   2.581
14194WAT     H242825   9.468   9.442   2.620
14195WAT      O42826   8.351   3.527   9.455
14195WAT     H142827   8.336   3.433   9.485
14195WAT     H242828   8.429   3.566   9.504
14196WAT      O42829   9.841   7.968   4.821
14196WAT     H142830   9.821   8.059   4.784
14196WAT     H242831   9.914   7.926   4.767
14197WAT      O42832   1.508   3.484   3.250
14197WAT     H142833   1.421   3.503   3.205
14197WAT     H242834   1.512   3.532   3.337
14198WAT      O42835   2.919   8.423   7.055
14198WAT     H142836   2.949   8.427   7.151
14198WAT     H242837   2.927   8.329   7.022
14199WAT      O42838   7.466   9.467   6.230
14199WAT     H142839   7.492   9.371   6.233
14199WAT     H242840   7.476   9.507   6.321
14200WAT      O42841   3.203   2.983   7.480
14200WAT     H142842   3.123   2.932   7.448
14200WAT     H242843   3.275   2.920   7.508
14201WAT      O42844   1.787   8.988   2.685
14201WAT     H142845   1.881   8.959   2.667
14201WAT     H242846   1.724   8.913   2.663
14202WAT      O42847   6.246   0.987   5.233
14202WAT     H142848   6.176   1.001   5.302
14202WAT     H242849   6.262   0.889   5.220
14203WAT      O42850   0.683   8.968   1.597
14203WAT     H142851   0.630   8.885   1.615
14203WAT     H242852   0.781   8.946   1.599
14204WAT      O42853   4.199   5.884   7.039
14204WAT     H142854   4.132   5.917   7.106
14204WAT     H242855   4.270   5.952   7.027
14205WAT      O42856   9.155   8.204   0.669
14205WAT     H142857   9.207   8.183   0.752
14205WAT     H242858   9.214   8.200   0.589
14206WAT      O42859   5.625   7.816   0.225
14206WAT     H142860   5.694   7.786   0.159
14206WAT     H242861   5.637   7.766   0.310
14207WAT      O42862   4.734   6.599   6.579
14207WAT     H142863   4.818   6.652   6.575
14207WAT     H242864   4.667   6.646   6.637
14208WAT      O42865   0.018   0.304   6.296
14208WAT     H142866  -0.045   0.325   6.221
14208WAT     H242867   0.104   0.353   6.281
14209WAT      O42868   0.923   6.684   8.457
14209WAT     H142869   0.944   6.614   8.525
14209WAT     H242870   1.000   6.749   8.452
14210WAT      O42871   9.091   9.065   8.933
14210WAT     H142872   9.144   9.107   9.007
14210WAT     H242873   9.025   9.131   8.898
14211WAT      O42874   9.388   3.061   6.850
14211WAT     H142875   9.359   3.010   6.769
14211WAT     H242876   9.407   3.156   6.824
14212WAT      O42877   3.942   1.935   6.500
14212WAT     H142878   4.028   1.983   6.517
14212WAT     H242879   3.941   1.901   6.406
14213WAT      O42880   1.056   3.926   8.604
14213WAT     H142881   1.042   3.827   8.603
14213WAT     H242882   0.990   3.970   8.544
14214WAT      O42883   8.450   1.598   3.782
14214WAT     H142884   8.510   1.672   3.752
14214WAT     H242885   8.368   1.637   3.825
14215WAT      O42886   8.981   6.527   8.144
14215WAT     H142887   8.986   6.622   8.175
14215WAT     H242888   9.049   6.473   8.193
14216WAT      O42889   1.418   0.776   0.669
14216WAT     H142890   1.356   0.757   0.593
14216WAT     H242891   1.467   0.861   0.652
14217WAT      O42892   6.399   0.636   3.842
14217WAT     H142893   6.356   0.652   3.753
14217WAT     H242894   6.330   0.602   3.906
14218WAT      O42895   7.960   4.610   0.533
14218WAT     H142896   7.942   4.657   0.619
14218WAT     H242897   8.055   4.578   0.531
14219WAT      O42898   1.620   0.659   5.243
14219WAT     H142899   1.665   0.717   5.311
14219WAT     H242900   1.588   0.575   5.286
14220WAT      O42901   7.911   1.029   8.099
14220WAT     H142902   7.910   0.946   8.044
14220WAT     H242903   7.818   1.058   8.119
14221WAT      O42904   7.574   8.695   8.707
14221WAT     H142905   7.587   8.759   8.632
14221WAT     H242906   7.647   8.627   8.707
14222WAT      O42907   5.203   5.421   3.032
14222WAT     H142908   5.121   5.384   2.988
14222WAT     H242909   5.193   5.417   3.131
14223WAT      O42910   0.519   0.669   3.845
14223WAT     H142911   0.548   0.740   3.782
14223WAT     H242912   0.422   0.647   3.828
14224WAT      O42913   7.715   0.183   3.635
14224WAT     H142914   7.683   0.251   3.569
14224WAT     H242915   7.808   0.155   3.611
14225WAT      O42916   4.856   1.945   7.940
14225WAT     H142917   4.901   1.920   8.026
14225WAT     H242918   4.917   2.005   7.887
14226WAT      O42919   7.941   1.818   8.172
14226WAT     H142920   7.862   1.814   8.234
14226WAT     H242921   8.018   1.861   8.220
14227WAT      O42922   4.164   4.995   7.778
14227WAT     H142923   4.242   4.960   7.726
14227WAT     H242924   4.196   5.029   7.866
14228WAT      O42925   0.178   4.934   8.928
14228WAT     H142926   0.226   4.848   8.914
14228WAT     H242927   0.175   4.985   8.841
14229WAT      O42928   8.679   9.298   5.742
14229WAT     H142929   8.735   9.285   5.824
14229WAT     H242930   8.738   9.313   5.663
14230WAT      O42931   0.645   3.721   5.777
14230WAT     H142932   0.709   3.774   5.721
14230WAT     H242933   0.608   3.779   5.849
14231WAT      O42934   0.461   2.425   3.874
14231WAT     H142935   0.466   2.353   3.805
14231WAT     H242936   0.439   2.512   3.829
14232WAT      O42937   6.367   0.558   1.688
14232WAT     H142938   6.383   0.585   1.783
14232WAT     H242939   6.368   0.639   1.629
14233WAT      O42940   6.716   3.439   4.841
14233WAT     H142941   6.762   3.492   4.913
14233WAT     H242942   6.674   3.358   4.882
14234WAT      O42943   4.608   9.200   2.065
14234WAT     H142944   4.582   9.112   2.106
14234WAT     H242945   4.626   9.266   2.137
14235WAT      O42946   8.956   4.008   9.665
14235WAT     H142947   9.055   4.023   9.664
14235WAT     H242948   8.912   4.075   9.725
14236WAT      O42949   9.136   9.302   1.776
14236WAT     H142950   9.219   9.344   1.811
14236WAT     H242951   9.077   9.373   1.737
14237WAT      O42952   6.670   5.652   3.303
14237WAT     H142953   6.580   5.664   3.261
14237WAT     H242954   6.730   5.601   3.240
14238WAT      O42955   9.887   5.522   7.783
14238WAT     H142956   9.845   5.434   7.763
14238WAT     H242957   9.952   5.546   7.711
14239WAT      O42958   3.397   8.159   9.818
14239WAT     H142959   3.478   8.110   9.849
14239WAT     H242960   3.355   8.206   9.896
14240WAT      O42961   8.073   1.398   1.755
14240WAT     H142962   8.087   1.497   1.761
14240WAT     H242963   7.989   1.373   1.805
14241WAT      O42964   9.040   4.863   7.653
14241WAT     H142965   9.056   4.838   7.748
14241WAT     H242966   9.026   4.781   7.598
14242WAT      O42967   7.782   9.334   1.573
14242WAT     H142968   7.727   9.410   1.607
14242WAT     H242969   7.738   9.248   1.598
14243WAT      O42970   1.318   7.058   6.520
14243WAT     H142971   1.383   7.019   6.455
14243WAT     H242972   1.367   7.096   6.598
14244WAT      O42973   3.694   4.126   8.609
14244WAT     H142974   3.696   4.226   8.617
14244WAT     H242975   3.612   4.091   8.654
14245WAT      O42976   9.703   7.997   7.069
14245WAT     H142977   9.681   7.948   6.985
14245WAT     H242978   9.643   7.966   7.143
14246WAT      O42979   0.104   6.519   2.483
14246WAT     H142980   0.016   6.475   2.499
14246WAT     H242981   0.113   6.598   2.544
14247WAT      O42982   7.259   3.299   4.901
14247WAT     H142983   7.220   3.253   4.821
14247WAT     H242984   7.335   3.357   4.873
14248WAT      O42985   8.048   8.127   4.745
14248WAT     H142986   7.995   8.212   4.743
14248WAT     H242987   8.004   8.060   4.685
14249WAT      O42988   7.372   8.222   1.353
14249WAT     H142989   7.350   8.224   1.451
14249WAT     H242990   7.287   8.221   1.300
14250WAT      O42991   5.309   8.868   3.213
14250WAT     H142992   5.212   8.889   3.207
14250WAT     H242993   5.327   8.778   3.173
14251WAT      O42994   1.028   2.763   8.411
14251WAT     H142995   0.993   2.669   8.417
14251WAT     H242996   1.039   2.788   8.315
14252WAT      O42997   2.335   9.602   2.284
14252WAT     H142998   2.335   9.696   2.317
14252WAT     H242999   2.241   9.572   2.267
14253WAT      O43000   1.098   3.459   8.027
14253WAT     H143001   1.096   3.542   8.082
14253WAT     H243002   1.018   3.403   8.048
14254WAT      O43003   6.736   0.802   6.447
14254WAT     H143004   6.724   0.703   6.437
14254WAT     H243005   6.833   0.822   6.460
14255WAT      O43006   7.733   4.363   4.158
14255WAT     H143007   7.742   4.357   4.257
14255WAT     H243008   7.800   4.428   4.122
14256WAT      O43009   0.491   3.523   6.084
14256WAT     H143010   0.563   3.591   6.068
14256WAT     H243011   0.484   3.463   6.004
14257WAT      O43012   5.951   4.152   7.434
14257WAT     H143013   5.885   4.106   7.494
14257WAT     H243014   6.021   4.086   7.407
14258WAT      O43015   7.036   9.674   5.219
14258WAT     H143016   7.026   9.605   5.291
14258WAT     H243017   6.966   9.745   5.232
14259WAT      O43018   0.765   3.288   7.576
14259WAT     H143019   0.783   3.335   7.489
14259WAT     H243020   0.668   3.298   7.599
14260WAT      O43021   7.577   5.212   1.656
14260WAT     H143022   7.625   5.227   1.742
14260WAT     H243023   7.535   5.298   1.626
14261WAT      O43024   7.856   4.700   9.346
14261WAT     H143025   7.861   4.754   9.262
14261WAT     H243026   7.851   4.603   9.323
14262WAT      O43027   7.217   2.742   0.919
14262WAT     H143028   7.273   2.820   0.890
14262WAT     H243029   7.206   2.679   0.842
14263WAT      O43030   2.910   1.474   9.386
14263WAT     H143031   2.894   1.461   9.484
14263WAT     H243032   2.893   1.569   9.362
14264WAT      O43033   2.773   8.059   5.660
14264WAT     H143034   2.698   8.102   5.712
14264WAT     H243035   2.746   8.050   5.565
14265WAT      O43036   2.827   4.324   1.003
14265WAT     H143037   2.828   4.383   1.083
14265WAT     H243038   2.808   4.230   1.031
14266WAT      O43039   2.146   0.150   8.157
14266WAT     H143040   2.078   0.121   8.224
14266WAT     H243041   2.106   0.217   8.095
14267WAT      O43042   9.044   9.423   2.986
14267WAT     H143043   9.074   9.519   2.983
14267WAT     H243044   9.095   9.375   3.057
14268WAT      O43045   4.779   2.075   1.237
14268WAT     H143046   4.718   2.023   1.297
14268WAT     H243047   4.737   2.162   1.214
14269WAT      O43048   3.104   6.367   0.310
14269WAT     H143049   3.059   6.448   0.347
14269WAT     H243050   3.180   6.341   0.369
14270WAT      O43051   4.720   8.704   7.424
14270WAT     H143052   4.623   8.727   7.420
14270WAT     H243053   4.759   8.710   7.332
14271WAT      O43054   6.907   8.646   8.652
14271WAT     H143055   6.879   8.550   8.665
14271WAT     H243056   6.899   8.695   8.738
14272WAT      O43057   7.681   3.329   9.483
14272WAT     H143058   7.614   3.394   9.517
14272WAT     H243059   7.635   3.255   9.433
14273WAT      O43060   2.766   0.681   7.811
14273WAT     H143061   2.741   0.769   7.769
14273WAT     H243062   2.817   0.626   7.745
14274WAT      O43063   9.622   2.347   8.273
14274WAT     H143064   9.584   2.312   8.188
14274WAT     H243065   9.654   2.272   8.330
14275WAT      O43066   1.979   8.866   1.350
14275WAT     H143067   1.995   8.953   1.302
14275WAT     H243068   1.906   8.815   1.303
14276WAT      O43069   4.612   9.804   4.798
14276WAT     H143070   4.565   9.730   4.750
14276WAT     H243071   4.649   9.869   4.732
14277WAT      O43072   3.075   3.078   0.439
14277WAT     H143073   3.139   3.037   0.504
14277WAT     H243074   2.994   3.109   0.488
14278WAT      O43075   4.243   9.408   5.832
14278WAT     H143076   4.303   9.487   5.820
14278WAT     H243077   4.221   9.397   5.929
14279WAT      O43078   9.501   5.803   3.459
14279WAT     H143079   9.519   5.705   3.472
14279WAT     H243080   9.541   5.834   3.373
14280WAT      O43081   1.820   7.318   5.784
14280WAT     H143082   1.828   7.219   5.788
14280WAT     H243083   1.875   7.359   5.857
14281WAT      O43084   5.698   2.304   3.082
14281WAT     H143085   5.611   2.299   3.131
14281WAT     H243086   5.753   2.223   3.103
14282WAT      O43087   2.563   6.577   3.067
14282WAT     H143088   2.543   6.480   3.084
14282WAT     H243089   2.510   6.633   3.130
14283WAT      O43090   1.882   5.361   3.827
14283WAT     H143091   1.910   5.314   3.742
14283WAT     H243092   1.827   5.441   3.804
14284WAT      O43093   6.428   0.862   1.934
14284WAT     H143094   6.360   0.806   1.886
14284WAT     H243095   6.414   0.854   2.033
14285WAT      O43096   2.114   9.713   5.371
14285WAT     H143097   2.108   9.652   5.450
14285WAT     H243098   2.118   9.808   5.402
14286WAT      O43099   0.099   5.433   1.298
14286WAT     H143100   0.180   5.466   1.346
14286WAT     H243101   0.067   5.502   1.234
14287WAT      O43102   9.352   3.682   0.867
14287WAT     H143103   9.355   3.724   0.776
14287WAT     H243104   9.444   3.677   0.905
14288WAT      O43105   2.424   5.921   9.534
14288WAT     H143106   2.387   5.884   9.619
14288WAT     H243107   2.388   5.867   9.457
14289WAT      O43108   5.773   6.216   8.130
14289WAT     H143109   5.790   6.310   8.161
14289WAT     H243110   5.693   6.215   8.070
14290WAT      O43111   2.791   8.212   6.011
14290WAT     H143112   2.722   8.212   5.938
14290WAT     H243113   2.875   8.169   5.977
14291WAT      O43114   2.899   0.177   0.648
14291WAT     H143115   2.949   0.229   0.717
14291WAT     H243116   2.836   0.238   0.600
14292WAT      O43117   4.677   7.291   8.803
14292WAT     H143118   4.663   7.282   8.902
14292WAT     H243119   4.689   7.387   8.780
14293WAT      O43120   8.981   7.067   8.405
14293WAT     H143121   8.887   7.049   8.375
14293WAT     H243122   8.994   7.166   8.415
14294WAT      O43123   2.019   7.804   9.085
14294WAT     H143124   2.112   7.819   9.051
14294WAT     H243125   1.958   7.875   9.049
14295WAT      O43126   0.441   0.463   3.031
14295WAT     H143127   0.503   0.525   3.079
14295WAT     H243128   0.417   0.387   3.091
14296WAT      O43129   8.550   9.640   6.156
14296WAT     H143130   8.580   9.611   6.066
14296WAT     H243131   8.628   9.636   6.220
14297WAT      O43132   5.534   0.413   0.576
14297WAT     H143133   5.616   0.409   0.633
14297WAT     H243134   5.555   0.379   0.484
14298WAT      O43135   2.892   6.228   5.904
14298WAT     H143136   2.819   6.289   5.873
14298WAT     H243137   2.918   6.167   5.830
14299WAT      O43138   6.121   5.381   1.654
14299WAT     H143139   6.196   5.439   1.688
14299WAT     H243140   6.064   5.433   1.591
14300WAT      O43141   2.320   5.897   9.787
14300WAT     H143142   2.355   5.835   9.857
14300WAT     H243143   2.303   5.987   9.828
14301WAT      O43144   2.615   8.743   2.249
14301WAT     H143145   2.582   8.830   2.287
14301WAT     H243146   2.659   8.690   2.321
14302WAT      O43147   3.898   5.240   8.933
14302WAT     H143148   3.910   5.150   8.890
14302WAT     H243149   3.905   5.230   9.032
14303WAT      O43150   9.370   8.417   6.912
14303WAT     H143151   9.336   8.406   7.006
14303WAT     H243152   9.465   8.387   6.907
14304WAT      O43153   1.573   8.541   4.859
14304WAT     H143154   1.630   8.544   4.777
14304WAT     H243155   1.482   8.575   4.837
14305WAT      O43156   1.216   7.774   3.644
14305WAT     H143157   1.196   7.678   3.662
14305WAT     H243158   1.243   7.819   3.729
14306WAT      O43159   8.016   6.454   9.381
14306WAT     H143160   7.955   6.463   9.302
14306WAT     H243161   7.963   6.455   9.465
14307WAT      O43162   1.530   0.882   1.147
14307WAT     H143163   1.485   0.834   1.072
14307WAT     H243164   1.598   0.945   1.110
14308WAT      O43165   0.603   0.587   9.368
14308WAT     H143166   0.633   0.681   9.351
14308WAT     H243167   0.504   0.580   9.350
14309WAT      O43168   5.648   1.759   7.919
14309WAT     H143169   5.683   1.665   7.926
14309WAT     H243170   5.682   1.801   7.835
14310WAT      O43171   0.856   6.237   8.798
14310WAT     H143172   0.797   6.206   8.723
14310WAT     H243173   0.818   6.319   8.839
14311WAT      O43174   1.172   0.433   0.317
14311WAT     H143175   1.103   0.438   0.245
14311WAT     H243176   1.240   0.363   0.293
14312WAT      O43177   9.349   8.112   7.026
14312WAT     H143178   9.404   8.076   7.101
14312WAT     H243179   9.368   8.209   7.014
14313WAT      O43180   5.182   6.683   9.851
14313WAT     H143181   5.158   6.725   9.938
14313WAT     H243182   5.204   6.754   9.784
14314WAT      O43183   7.018   2.638   8.328
14314WAT     H143184   7.060   2.678   8.246
14314WAT     H243185   7.076   2.563   8.362
14315WAT      O43186   3.027   2.726   2.308
14315WAT     H143187   3.007   2.823   2.297
14315WAT     H243188   2.970   2.687   2.380
14316WAT      O43189   2.165   0.004   1.149
14316WAT     H143190   2.098   0.011   1.075
14316WAT     H243191   2.216   0.089   1.157
14317WAT      O43192   6.468   2.014   8.260
14317WAT     H143193   6.409   1.990   8.183
14317WAT     H243194   6.564   2.001   8.233
14318WAT      O43195   0.754   5.275   8.656
14318WAT     H143196   0.800   5.294   8.570
14318WAT     H243197   0.811   5.215   8.712
14319WAT      O43198   2.450   9.336   6.328
14319WAT     H143199   2.521   9.275   6.294
14319WAT     H243200   2.361   9.294   6.314
14320WAT      O43201   6.953   5.356   1.457
14320WAT     H143202   6.943   5.438   1.514
14320WAT     H243203   7.049   5.329   1.454
14321WAT      O43204   0.103   4.701   7.778
14321WAT     H143205   0.184   4.755   7.799
14321WAT     H243206   0.021   4.758   7.787
14322WAT      O43207   1.696   3.557   2.534
14322WAT     H143208   1.684   3.458   2.519
14322WAT     H243209   1.789   3.583   2.508
14323WAT      O43210   2.647   6.555   7.072
14323WAT     H143211   2.601   6.499   7.140
14323WAT     H243212   2.689   6.496   7.003
14324WAT      O43213   8.040   3.287   9.755
14324WAT     H143214   8.066   3.384   9.748
14324WAT     H243215   8.122   3.230   9.755
14325WAT      O43216   3.048   7.236   0.707
14325WAT     H143217   2.975   7.301   0.729
14325WAT     H243218   3.127   7.285   0.670
14326WAT      O43219   0.280   4.515   6.835
14326WAT     H143220   0.365   4.465   6.819
14326WAT     H243221   0.296   4.592   6.896
14327WAT      O43222   1.278   1.030   2.131
14327WAT     H143223   1.344   0.960   2.157
14327WAT     H243224   1.327   1.108   2.090
14328WAT      O43225   8.790   2.700   6.914
14328WAT     H143226   8.738   2.785   6.903
14328WAT     H243227   8.803   2.657   6.825
14329WAT      O43228   7.056   1.221   1.124
14329WAT     H143229   7.105   1.205   1.209
14329WAT     H243230   7.053   1.137   1.070
14330WAT      O43231   0.824   5.702   2.296
14330WAT     H143232   0.838   5.778   2.233
14330WAT     H243233   0.886   5.627   2.272
14331WAT      O43234   5.462   8.031   9.509
14331WAT     H143235   5.396   8.103   9.533
14331WAT     H243236   5.464   8.021   9.409
14332WAT      O43237   0.010   3.867   5.148
14332WAT     H143238   0.091   3.824   5.109
14332WAT     H243239  -0.003   3.836   5.242
14333WAT      O43240   8.974   3.326   1.414
14333WAT     H143241   8.977   3.230   1.385
14333WAT     H243242   8.962   3.331   1.513
14334WAT      O43243   4.978   0.135   1.044
14334WAT     H143244   5.038   0.184   0.982
14334WAT     H243245   5.006   0.152   1.138
14335WAT      O43246   5.930   2.744   3.549
14335WAT     H143247   5.938   2.836   3.586
14335WAT     H243248   5.852   2.698   3.591
14336WAT      O43249   6.349   6.470   5.822
14336WAT     H143250   6.406   6.460   5.740
14336WAT     H243251   6.283   6.543   5.808
14337WAT      O43252   1.888   8.489   0.118
14337WAT     H143253   1.810   8.550   0.132
14337WAT     H243254   1.967   8.524   0.167
14338WAT      O43255   3.820   1.471   6.775
14338WAT     H143256   3.792   1.522   6.694
14338WAT     H243257   3.896   1.411   6.753
14339WAT      O43258   8.741   6.718   5.094
14339WAT     H143259   8.829   6.765   5.094
14339WAT     H243260   8.735   6.659   5.013
14340WAT      O43261   1.898   3.344   5.945
14340WAT     H143262   1.867   3.259   5.902
14340WAT     H243263   1.998   3.344   5.950
14341WAT      O43264   8.160   8.569   7.149
14341WAT     H143265   8.155   8.472   7.172
14341WAT     H243266   8.211   8.618   7.221
14342WAT      O43267   4.975   2.066   6.819
14342WAT     H143268   5.052   2.052   6.757
14342WAT     H243269   4.953   1.980   6.865
14343WAT      O43270   1.182   8.269   4.752
14343WAT     H143271   1.197   8.235   4.844
14343WAT     H243272   1.268   8.272   4.702
14344WAT      O43273   9.868   7.531   1.413
14344WAT     H143274   9.926   7.476   1.473
14344WAT     H243275   9.877   7.497   1.319
14345WAT      O43276   1.628   0.621   2.637
14345WAT     H143277   1.608   0.523   2.641
14345WAT     H243278   1.702   0.638   2.573
14346WAT      O43279   4.015   4.026   9.555
14346WAT     H143280   4.077   4.084   9.502
14346WAT     H243281   3.977   3.955   9.496
14347WAT      O43282   2.028   6.787   0.829
14347WAT     H143283   2.048   6.765   0.733
14347WAT     H243284   2.113   6.804   0.878
14348WAT      O43285   2.961   9.649   8.987
14348WAT     H143286   2.975   9.640   9.085
14348WAT     H243287   2.895   9.722   8.969
14349WAT      O43288   6.236   7.246   6.637
14349WAT     H143289   6.238   7.232   6.538
14349WAT     H243290   6.263   7.161   6.684
14350WAT      O43291   4.522   3.305   3.371
14350WAT     H143292   4.520   3.338   3.277
14350WAT     H243293   4.434   3.322   3.415
14351WAT      O43294   2.072   9.446   1.620
14351WAT     H143295   2.023   9.412   1.700
14351WAT     H243296   2.123   9.528   1.646
14352WAT      O43297   5.431   4.416   6.883
14352WAT     H143298   5.469   4.344   6.825
14352WAT     H243299   5.478   4.502   6.865
14353WAT      O43300   0.542   7.024   3.553
14353WAT     H143301   0.524   6.957   3.625
14353WAT     H243302   0.638   7.053   3.558
14354WAT      O43303   6.983   4.282   3.603
14354WAT     H143304   6.885   4.288   3.626
14354WAT     H243305   7.037   4.308   3.682
14355WAT      O43306   6.973   6.892   3.358
14355WAT     H143307   6.948   6.858   3.449
14355WAT     H243308   7.050   6.956   3.367
14356WAT      O43309   0.273   7.194   8.795
14356WAT     H143310   0.189   7.141   8.787
14356WAT     H243311   0.252   7.292   8.793
14357WAT      O43312   3.896   7.294   8.219
14357WAT     H143313   3.925   7.271   8.126
14357WAT     H243314   3.852   7.214   8.260
14358WAT      O43315   3.391   8.003   6.176
14358WAT     H143316   3.310   8.025   6.231
14358WAT     H243317   3.458   7.956   6.233
14359WAT      O43318   4.016   0.678   0.692
14359WAT     H143319   4.089   0.652   0.755
14359WAT     H243320   3.931   0.692   0.743
14360WAT      O43321   7.483   4.975   7.161
14360WAT     H143322   7.552   5.007   7.096
14360WAT     H243323   7.427   4.905   7.117
14361WAT      O43324   5.112   1.182   7.628
14361WAT     H143325   5.132   1.122   7.551
14361WAT     H243326   5.193   1.238   7.648
14362WAT      O43327   3.081   1.725   3.536
14362WAT     H143328   3.108   1.801   3.596
14362WAT     H243329   3.161   1.690   3.488
14363WAT      O43330   3.044   3.877   8.579
14363WAT     H143331   2.976   3.880   8.652
14363WAT     H243332   3.096   3.792   8.584
14364WAT      O43333   4.389   7.361   2.562
14364WAT     H143334   4.318   7.341   2.494
14364WAT     H243335   4.453   7.284   2.568
14365WAT      O43336   1.052   9.137   9.215
14365WAT     H143337   0.962   9.095   9.212
14365WAT     H243338   1.116   9.084   9.161
14366WAT      O43339   3.782   0.082   7.350
14366WAT     H143340   3.708   0.025   7.386
14366WAT     H243341   3.865   0.068   7.403
14367WAT      O43342   0.964   8.081   2.492
14367WAT     H143343   0.936   8.174   2.468
14367WAT     H243344   1.059   8.082   2.523
14368WAT      O43345   1.582   6.765   1.943
14368WAT     H143346   1.577   6.846   1.886
14368WAT     H243347   1.507   6.703   1.919
14369WAT      O43348   0.014   8.003   7.336
14369WAT     H143349  -0.016   8.061   7.260
14369WAT     H243350   0.089   8.047   7.384
14370WAT      O43351   9.370   4.578   9.055
14370WAT     H143352   9.422   4.605   8.974
14370WAT     H243353   9.429   4.580   9.136
14371WAT      O43354   8.629   5.506   5.059
14371WAT     H143355   8.536   5.539   5.071
14371WAT     H243356   8.674   5.560   4.987
14372WAT      O43357   0.731   2.757   9.137
14372WAT     H143358   0.672   2.677   9.140
14372WAT     H243359   0.712   2.810   9.054
14373WAT      O43360   0.759   3.068   8.613
14373WAT     H143361   0.781   3.124   8.693
14373WAT     H243362   0.840   3.060   8.554
14374WAT      O43363   9.755   2.304   3.974
14374WAT     H143364   9.770   2.398   3.945
14374WAT     H243365   9.842   2.260   3.994
14375WAT      O43366   2.076   7.858   7.074
14375WAT     H143367   1.998   7.800   7.051
14375WAT     H243368   2.146   7.850   7.002
14376WAT      O43369   9.271   3.429   7.947
14376WAT     H143370   9.327   3.436   8.030
14376WAT     H243371   9.210   3.350   7.955
14377WAT      O43372   6.542   6.119   7.551
14377WAT     H143373   6.554   6.131   7.650
14377WAT     H243374   6.448   6.093   7.532
14378WAT      O43375   9.723   5.518   3.108
14378WAT     H143376   9.746   5.542   3.014
14378WAT     H243377   9.783   5.444   3.140
14379WAT      O43378   9.749   6.662   3.299
14379WAT     H143379   9.662   6.619   3.276
14379WAT     H243380   9.788   6.704   3.217
14380WAT      O43381   7.933   4.748   0.769
14380WAT     H143382   8.022   4.737   0.813
14380WAT     H243383   7.875   4.807   0.825
14381WAT      O43384   8.113   8.124   3.316
14381WAT     H143385   8.199   8.157   3.357
14381WAT     H243386   8.134   8.059   3.243
14382WAT      O43387   4.911   8.649   9.294
14382WAT     H143388   4.871   8.705   9.221
14382WAT     H243389   4.882   8.683   9.383
14383WAT      O43390   5.352   7.337   9.247
14383WAT     H143391   5.397   7.405   9.189
14383WAT     H243392   5.290   7.384   9.311
14384WAT      O43393   9.286   9.699   8.092
14384WAT     H143394   9.229   9.709   8.012
14384WAT     H243395   9.244   9.634   8.156
14385WAT      O43396   3.902   4.538   6.652
14385WAT     H143397   3.949   4.517   6.738
14385WAT     H243398   3.954   4.607   6.601
14386WAT      O43399   6.211   6.733   4.285
14386WAT     H143400   6.250   6.782   4.363
14386WAT     H243401   6.127   6.778   4.255
14387WAT      O43402   8.498   6.908   8.273
14387WAT     H143403   8.448   6.843   8.331
14387WAT     H243404   8.434   6.955   8.213
14388WAT      O43405   4.637   2.087   8.334
14388WAT     H143406   4.551   2.064   8.381
14388WAT     H243407   4.683   2.161   8.383
14389WAT      O43408   9.465   0.927   6.507
14389WAT     H143409   9.407   1.007   6.495
14389WAT     H243410   9.501   0.896   6.419
14390WAT      O43411   4.359   4.810   0.625
14390WAT     H143412   4.375   4.901   0.661
14390WAT     H243413   4.438   4.752   0.645
14391WAT      O43414   5.724   9.147   1.198
14391WAT     H143415   5.824   9.152   1.200
14391WAT     H243416   5.690   9.109   1.284
14392WAT      O43417   1.868   5.759   8.894
14392WAT     H143418   1.805   5.779   8.969
14392WAT     H243419   1.838   5.678   8.844
14393WAT      O43420   4.827   8.450   0.549
14393WAT     H143421   4.912   8.494   0.578
14393WAT     H243422   4.762   8.520   0.519
14394WAT      O43423   3.532   6.504   7.229
14394WAT     H143424   3.498   6.424   7.180
14394WAT     H243425   3.591   6.475   7.304
14395WAT      O43426   7.490   2.864   0.767
14395WAT     H143427   7.523   2.798   0.835
14395WAT     H243428   7.546   2.858   0.685
14396WAT      O43429   3.721   9.126   5.761
14396WAT     H143430   3.734   9.156   5.667
14396WAT     H243431   3.705   9.206   5.819
14397WAT      O43432   2.697   0.396   1.713
14397WAT     H143433   2.641   0.478   1.713
14397WAT     H243434   2.793   0.421   1.725
14398WAT      O43435   4.289   2.032   1.682
14398WAT     H143436   4.237   2.103   1.731
14398WAT     H243437   4.243   2.011   1.596
14399WAT      O43438   2.816   5.252   0.143
14399WAT     H143439   2.802   5.344   0.178
14399WAT     H243440   2.872   5.256   0.060
14400WAT      O43441   9.312   0.542   8.232
14400WAT     H143442   9.285   0.536   8.136
14400WAT     H243443   9.258   0.614   8.277
14401WAT      O43444   2.754   2.151   3.866
14401WAT     H143445   2.833   2.205   3.839
14401WAT     H243446   2.731   2.087   3.792
14402WAT      O43447   1.283   3.906   2.572
14402WAT     H143448   1.238   3.992   2.549
14402WAT     H243449   1.301   3.903   2.670
14403WAT      O43450   7.408   8.472   9.073
14403WAT     H143451   7.426   8.534   8.997
14403WAT     H243452   7.330   8.506   9.126
14404WAT      O43453   3.228   6.453   5.724
14404WAT     H143454   3.175   6.407   5.652
14404WAT     H243455   3.169   6.473   5.801
14405WAT      O43456   7.530   8.442   8.322
14405WAT     H143457   7.507   8.479   8.232
14405WAT     H243458   7.451   8.451   8.383
14406WAT      O43459   1.068   0.754   9.712
14406WAT     H143460   0.997   0.799   9.658
14406WAT     H243461   1.157   0.794   9.691
14407WAT      O43462   0.700   7.019   4.591
14407WAT     H143463   0.703   7.071   4.505
14407WAT     H243464   0.636   6.943   4.582
14408WAT      O43465   0.786   8.298   3.792
14408WAT     H143466   0.777   8.221   3.730
14408WAT     H243467   0.880   8.302   3.827
14409WAT      O43468   0.037   9.568   8.710
14409WAT     H143469  -0.013   9.621   8.778
14409WAT     H243470   0.084   9.630   8.647
14410WAT      O43471   1.404   5.042   7.815
14410WAT     H143472   1.467   5.023   7.891
14410WAT     H243473   1.361   4.956   7.786
14411WAT      O43474   6.371   3.446   4.672
14411WAT     H143475   6.460   3.422   4.634
14411WAT     H243476   6.383   3.489   4.762
14412WAT      O43477   4.469   7.537   9.056
14412WAT     H143478   4.516   7.460   9.014
14412WAT     H243479   4.519   7.566   9.138
14413WAT      O43480   1.959   5.850   7.736
14413WAT     H143481   1.942   5.913   7.811
14413WAT     H243482   2.030   5.887   7.676
14414WAT      O43483   1.243   4.460   5.647
14414WAT     H143484   1.291   4.373   5.633
14414WAT     H243485   1.183   4.478   5.570
14415WAT      O43486   2.183   4.974   2.136
14415WAT     H143487   2.176   5.015   2.045
14415WAT     H243488   2.101   4.996   2.188
14416WAT      O43489   3.155   8.384   8.680
14416WAT     H143490   3.251   8.404   8.661
14416WAT     H243491   3.108   8.362   8.594
14417WAT      O43492   2.392   0.600   2.680
14417WAT     H143493   2.325   0.538   2.638
14417WAT     H243494   2.370   0.694   2.656
14418WAT      O43495   2.320   3.541   6.497
14418WAT     H143496   2.334   3.632   6.536
14418WAT     H243497   2.298   3.549   6.400
14419WAT      O43498   4.344   4.149   4.395
14419WAT     H143499   4.348   4.052   4.420
14419WAT     H243500   4.386   4.204   4.468
14420WAT      O43501   7.826   4.910   0.952
14420WAT     H143502   7.741   4.876   0.993
14420WAT     H243503   7.880   4.956   1.023
14421WAT      O43504   0.483   9.518   2.268
14421WAT     H143505   0.394   9.479   2.244
14421WAT     H243506   0.515   9.577   2.194
14422WAT      O43507   1.291   9.569   6.244
14422WAT     H143508   1.253   9.650   6.200
14422WAT     H243509   1.349   9.520   6.179
14423WAT      O43510   2.347   7.807   2.336
14423WAT     H143511   2.390   7.725   2.297
14423WAT     H243512   2.248   7.802   2.324
14424WAT      O43513   0.804   1.314   9.663
14424WAT     H143514   0.889   1.302   9.714
14424WAT     H243515   0.746   1.379   9.709
14425WAT      O43516   2.398   9.670   7.524
14425WAT     H143517   2.490   9.680   7.488
14425WAT     H243518   2.392   9.586   7.578
14426WAT      O43519   4.790   0.693   1.146
14426WAT     H143520   4.725   0.747   1.092
14426WAT     H243521   4.881   0.734   1.138
14427WAT      O43522   0.035   3.935   0.761
14427WAT     H143523  -0.045   3.885   0.729
14427WAT     H243524   0.053   3.912   0.856
14428WAT      O43525   6.068   6.949   3.066
14428WAT     H143526   6.066   7.021   3.135
14428WAT     H243527   6.023   6.867   3.103
14429WAT      O43528   3.001   4.025   3.319
14429WAT     H143529   2.924   4.047   3.260
14429WAT     H243530   3.008   3.926   3.329
14430WAT      O43531   2.926   1.508   6.626
14430WAT     H143532   2.933   1.411   6.603
14430WAT     H243533   2.959   1.523   6.719
14431WAT      O43534   2.081   7.143   2.691
14431WAT     H143535   2.011   7.077   2.718
14431WAT     H243536   2.057   7.181   2.602
14432WAT      O43537   0.048   6.534   0.582
14432WAT     H143538   0.003   6.570   0.664
14432WAT     H243539   0.031   6.436   0.574
14433WAT      O43540   4.135   7.953   2.769
14433WAT     H143541   4.194   7.979   2.692
14433WAT     H243542   4.039   7.954   2.739
14434WAT      O43543   8.551   7.882   0.807
14434WAT     H143544   8.511   7.812   0.747
14434WAT     H243545   8.482   7.914   0.871
14435WAT      O43546   2.438   1.677   2.033
14435WAT     H143547   2.474   1.769   2.044
14435WAT     H243548   2.391   1.649   2.117
14436WAT      O43549   4.908   9.212   1.417
14436WAT     H143550   4.867   9.121   1.410
14436WAT     H243551   4.997   9.212   1.372
14437WAT      O43552   1.176   6.977   5.744
14437WAT     H143553   1.236   6.977   5.664
14437WAT     H243554   1.102   6.912   5.729
14438WAT      O43555   6.170   4.978   4.673
14438WAT     H143556   6.212   5.015   4.590
14438WAT     H243557   6.202   5.030   4.753
14439WAT      O43558   2.535   1.235   5.224
14439WAT     H143559   2.497   1.221   5.133
14439WAT     H243560   2.624   1.281   5.216
14440WAT      O43561   5.917   4.891   2.754
14440WAT     H143562   5.842   4.943   2.795
14440WAT     H243563   5.985   4.954   2.717
14441WAT      O43564   5.468   3.888   3.720
14441WAT     H143565   5.388   3.848   3.764
14441WAT     H243566   5.518   3.816   3.672
14442WAT      O43567   2.408   3.209   7.226
14442WAT     H143568   2.452   3.122   7.247
14442WAT     H243569   2.407   3.267   7.307
14443WAT      O43570   4.140   7.949   0.216
14443WAT     H143571   4.116   7.851   0.211
14443WAT     H243572   4.226   7.959   0.266
14444WAT      O43573   9.710   3.646   2.378
14444WAT     H143574   9.782   3.578   2.395
14444WAT     H243575   9.719   3.681   2.285
14445WAT      O43576   2.073   0.255   6.774
14445WAT     H143577   2.091   0.334   6.716
14445WAT     H243578   2.028   0.183   6.720
14446WAT      O43579   0.977   7.187   9.311
14446WAT     H143580   0.910   7.192   9.385
14446WAT     H243581   1.060   7.236   9.338
14447WAT      O43582   8.629   2.016   4.610
14447WAT     H143583   8.713   1.972   4.578
14447WAT     H243584   8.564   2.022   4.535
14448WAT      O43585   8.215   4.457   2.989
14448WAT     H143586   8.243   4.366   2.956
14448WAT     H243587   8.238   4.525   2.920
14449WAT      O43588   8.718   5.660   5.315
14449WAT     H143589   8.732   5.564   5.291
14449WAT     H243590   8.792   5.691   5.375
14450WAT      O43591   1.738   7.649   4.514
14450WAT     H143592   1.825   7.682   4.552
14450WAT     H243593   1.737   7.666   4.415
14451WAT      O43594   6.866   5.596   4.601
14451WAT     H143595   6.884   5.639   4.690
14451WAT     H243596   6.798   5.650   4.551
14452WAT      O43597   2.406   4.796   6.953
14452WAT     H143598   2.383   4.838   6.865
14452WAT     H243599   2.421   4.698   6.941
14453WAT      O43600   7.619   9.594   1.684
14453WAT     H143601   7.685   9.669   1.684
14453WAT     H243602   7.538   9.621   1.632
14454WAT      O43603   7.506   7.459   1.765
14454WAT     H143604   7.588   7.419   1.804
14454WAT     H243605   7.522   7.555   1.743
14455WAT      O43606   9.202   3.940   6.292
14455WAT     H143607   9.161   3.952   6.201
14455WAT     H243608   9.229   4.029   6.328
14456WAT      O43609   2.474   4.134   4.592
14456WAT     H143610   2.527   4.100   4.670
14456WAT     H243611   2.458   4.060   4.527
14457WAT      O43612   1.033   2.830   1.051
14457WAT     H143613   1.013   2.848   1.148
14457WAT     H243614   1.045   2.731   1.037
14458WAT      O43615   4.062   3.005   9.332
14458WAT     H143616   4.095   2.911   9.323
14458WAT     H243617   4.088   3.058   9.251
14459WAT      O43618   7.075   8.096   1.936
14459WAT     H143619   7.152   8.033   1.945
14459WAT     H243620   7.022   8.071   1.855
14460WAT      O43621   3.087   1.610   4.926
14460WAT     H143622   3.095   1.703   4.963
14460WAT     H243623   3.000   1.570   4.953
14461WAT      O43624   7.349   5.999   9.634
14461WAT     H143625   7.288   5.991   9.555
14461WAT     H243626   7.384   6.093   9.639
14462WAT      O43627   9.018   7.334   8.460
14462WAT     H143628   9.113   7.363   8.474
14462WAT     H243629   8.958   7.413   8.469
14463WAT      O43630   1.676   6.260   4.602
14463WAT     H143631   1.713   6.199   4.533
14463WAT     H243632   1.735   6.340   4.611
14464WAT      O43633   3.403   0.533   7.114
14464WAT     H143634   3.425   0.608   7.176
14464WAT     H243635   3.322   0.557   7.061
14465WAT      O43636   4.771   0.096   7.586
14465WAT     H143637   4.709   0.175   7.591
14465WAT     H243638   4.719   0.012   7.599
14466WAT      O43639   5.675   0.890   7.543
14466WAT     H143640   5.765   0.859   7.513
14466WAT     H243641   5.607   0.869   7.472
14467WAT      O43642   6.325   2.125   0.346
14467WAT     H143643   6.300   2.162   0.256
14467WAT     H243644   6.377   2.193   0.397
14468WAT      O43645   4.070   5.360   9.168
14468WAT     H143646   4.116   5.387   9.083
14468WAT     H243647   4.121   5.285   9.211
14469WAT      O43648   0.635   3.389   9.117
14469WAT     H143649   0.563   3.350   9.174
14469WAT     H243650   0.718   3.401   9.171
14470WAT      O43651   1.343   8.858   3.480
14470WAT     H143652   1.350   8.758   3.488
14470WAT     H243653   1.281   8.881   3.405
14471WAT      O43654   3.606   1.519   8.480
14471WAT     H143655   3.581   1.556   8.569
14471WAT     H243656   3.597   1.591   8.411
14472WAT      O43657   0.619   7.829   2.379
14472WAT     H143658   0.538   7.887   2.363
14472WAT     H243659   0.596   7.758   2.445
14473WAT      O43660   4.158   4.965   3.645
14473WAT     H143661   4.166   5.012   3.557
14473WAT     H243662   4.236   4.987   3.702
14474WAT      O43663   7.987   0.909   0.012
14474WAT     H143664   8.046   0.977  -0.032
14474WAT     H243665   8.044   0.848   0.068
14475WAT      O43666   0.528   6.356   9.182
14475WAT     H143667   0.573   6.417   9.247
14475WAT     H243668   0.505   6.407   9.099
14476WAT      O43669   6.412   7.291   4.273
14476WAT     H143670   6.320   7.294   4.311
14476WAT     H243671   6.478   7.321   4.343
14477WAT      O43672   0.799   4.642   4.873
14477WAT     H143673   0.836   4.698   4.947
14477WAT     H243674   0.869   4.577   4.842
14478WAT      O43675   0.214   0.728   5.667
14478WAT     H143676   0.290   0.685   5.618
14478WAT     H243677   0.130   0.717   5.615
14479WAT      O43678   3.021   2.074   1.693
14479WAT     H143679   2.961   2.146   1.725
14479WAT     H243680   2.967   2.002   1.649
14480WAT      O43681   2.511   3.509   5.395
14480WAT     H143682   2.520   3.431   5.456
14480WAT     H243683   2.457   3.483   5.315
14481WAT      O43684   1.850   6.450   0.751
14481WAT     H143685   1.887   6.363   0.717
14481WAT     H243686   1.889   6.468   0.842
14482WAT      O43687   3.989   8.532   8.100
14482WAT     H143688   3.995   8.477   8.017
14482WAT     H243689   3.895   8.562   8.114
14483WAT      O43690   0.488   9.155   1.619
14483WAT     H143691   0.499   9.238   1.674
14483WAT     H243692   0.572   9.101   1.625
14484WAT      O43693   6.731   2.841   9.167
14484WAT     H143694   6.649   2.840   9.225
14484WAT     H243695   6.791   2.764   9.193
14485WAT      O43696   7.343   0.708   0.964
14485WAT     H143697   7.400   0.772   0.912
14485WAT     H243698   7.387   0.618   0.966
14486WAT      O43699   6.473   1.892   9.108
14486WAT     H143700   6.555   1.847   9.144
14486WAT     H243701   6.395   1.870   9.166
14487WAT      O43702   5.726   7.011   9.252
14487WAT     H143703   5.634   7.030   9.286
14487WAT     H243704   5.733   6.914   9.227
14488WAT      O43705   9.542   7.630   2.653
14488WAT     H143706   9.584   7.642   2.743
14488WAT     H243707   9.484   7.549   2.654
14489WAT      O43708   0.306   0.910   8.344
14489WAT     H143709   0.249   0.920   8.262
14489WAT     H243710   0.401   0.896   8.316
14490WAT      O43711   6.982   9.644   9.831
14490WAT     H143712   6.914   9.579   9.863
14490WAT     H243713   7.007   9.706   9.906
14491WAT      O43714   7.316   1.668   7.577
14491WAT     H143715   7.287   1.764   7.576
14491WAT     H243716   7.306   1.630   7.485
14492WAT      O43717   7.253   2.396   0.256
14492WAT     H143718   7.351   2.387   0.277
14492WAT     H243719   7.210   2.306   0.259
14493WAT      O43720   1.430   3.568   6.333
14493WAT     H143721   1.472   3.636   6.273
14493WAT     H243722   1.353   3.525   6.285
14494WAT      O43723   6.696   1.683   5.082
14494WAT     H143724   6.706   1.586   5.105
14494WAT     H243725   6.784   1.729   5.093
14495WAT      O43726   4.884   2.145   0.885
14495WAT     H143727   4.956   2.212   0.866
14495WAT     H243728   4.795   2.190   0.883
14496WAT      O43729   8.729   5.979   7.891
14496WAT     H143730   8.787   5.902   7.918
14496WAT     H243731   8.646   5.944   7.846
14497WAT      O43732   3.325   3.089   8.553
14497WAT     H143733   3.247   3.127   8.504
14497WAT     H243734   3.366   3.014   8.500
14498WAT      O43735   7.517   5.659   0.817
14498WAT     H143736   7.440   5.712   0.853
14498WAT     H243737   7.512   5.658   0.717
14499WAT      O43738   0.774   8.375   8.166
14499WAT     H143739   0.695   8.414   8.118
14499WAT     H243740   0.839   8.448   8.187
14500WAT      O43741   0.656   0.560   4.618
14500WAT     H143742   0.614   0.508   4.693
14500WAT     H243743   0.676   0.498   4.542
14501WAT      O43744   9.296   6.145   4.074
14501WAT     H143745   9.332   6.213   4.010
14501WAT     H243746   9.276   6.190   4.161
14502WAT      O43747   9.710   5.008   0.922
14502WAT     H143748   9.647   4.937   0.891
14502WAT     H243749   9.804   4.977   0.910
14503WAT      O43750   6.368   0.315   8.335
14503WAT     H143751   6.367   0.371   8.417
14503WAT     H243752   6.445   0.251   8.338
14504WAT      O43753   4.041   3.783   6.450
14504WAT     H143754   4.029   3.764   6.352
14504WAT     H243755   4.132   3.753   6.479
14505WAT      O43756   9.394   0.255   1.051
14505WAT     H143757   9.312   0.201   1.030
14505WAT     H243758   9.378   0.310   1.133
14506WAT      O43759   7.921   5.958   9.109
14506WAT     H143760   7.950   6.051   9.089
14506WAT     H243761   7.997   5.895   9.094
14507WAT      O43762   8.584   6.040   9.887
14507WAT     H143763   8.647   6.053   9.963
14507WAT     H243764   8.545   5.948   9.890
14508WAT      O43765   6.053   6.204   4.206
14508WAT     H143766   6.146   6.194   4.169
14508WAT     H243767   6.058   6.235   4.301
14509WAT      O43768   9.144   6.415   6.724
14509WAT     H143769   9.106   6.461   6.644
14509WAT     H243770   9.177   6.483   6.789
14510WAT      O43771   3.623   7.216   7.508
14510WAT     H143772   3.581   7.252   7.591
14510WAT     H243773   3.720   7.239   7.508
14511WAT      O43774   6.067   5.609   4.803
14511WAT     H143775   5.991   5.617   4.739
14511WAT     H243776   6.117   5.524   4.785
14512WAT      O43777   3.288   2.320   7.966
14512WAT     H143778   3.240   2.237   7.936
14512WAT     H243779   3.385   2.300   7.978
14513WAT      O43780   2.108   0.570   8.510
14513WAT     H143781   2.079   0.643   8.572
14513WAT     H243782   2.197   0.593   8.470
14514WAT      O43783   4.557   3.361   0.272
14514WAT     H143784   4.522   3.450   0.300
14514WAT     H243785   4.488   3.291   0.292
14515WAT      O43786   9.001   0.297   9.297
14515WAT     H143787   9.045   0.212   9.325
14515WAT     H243788   8.926   0.318   9.360
14516WAT      O43789   7.412   4.331   5.197
14516WAT     H143790   7.402   4.239   5.158
14516WAT     H243791   7.509   4.353   5.205
14517WAT      O43792   5.866   7.624   3.750
14517WAT     H143793   5.778   7.599   3.790
14517WAT     H243794   5.871   7.586   3.657
14518WAT      O43795   0.307   4.811   0.232
14518WAT     H143796   0.225   4.865   0.221
14518WAT     H243797   0.387   4.871   0.238
14519WAT      O43798   9.409   4.612   1.407
14519WAT     H143799   9.322   4.565   1.391
14519WAT     H243800   9.391   4.710   1.420
14520WAT      O43801   1.843   1.764   6.597
14520WAT     H143802   1.897   1.797   6.520
14520WAT     H243803   1.746   1.761   6.570
14521WAT      O43804   1.614   3.233   0.601
14521WAT     H143805   1.603   3.226   0.700
14521WAT     H243806   1.668   3.313   0.579
14522WAT      O43807   7.787   2.750   1.538
14522WAT     H143808   7.732   2.707   1.466
14522WAT     H243809   7.860   2.804   1.497
14523WAT      O43810   7.045   2.358   8.907
14523WAT     H143811   7.104   2.386   8.832
14523WAT     H243812   6.984   2.285   8.876
14524WAT      O43813   7.684   7.515   7.840
14524WAT     H143814   7.652   7.536   7.932
14524WAT     H243815   7.639   7.433   7.807
14525WAT      O43816   9.459   3.773   8.678
14525WAT     H143817   9.504   3.722   8.605
14525WAT     H243818   9.429   3.862   8.643
14526WAT      O43819   9.293   7.535   9.232
14526WAT     H143820   9.350   7.569   9.307
14526WAT     H243821   9.202   7.513   9.267
14527WAT      O43822   7.860   1.012   1.447
14527WAT     H143823   7.806   1.012   1.363
14527WAT     H243824   7.885   1.106   1.471
14528WAT      O43825   5.931   9.754   4.918
14528WAT     H143826   6.019   9.789   4.951
14528WAT     H243827   5.947   9.681   4.852
14529WAT      O43828   4.423   7.878   7.858
14529WAT     H143829   4.444   7.964   7.903
14529WAT     H243830   4.503   7.846   7.808
14530WAT      O43831   0.951   5.878   0.983
14530WAT     H143832   1.035   5.932   0.980
14530WAT     H243833   0.944   5.832   1.072
14531WAT      O43834   7.782   5.077   5.582
14531WAT     H143835   7.734   5.086   5.669
14531WAT     H243836   7.774   4.983   5.549
14532WAT      O43837   2.236   0.930   1.436
14532WAT     H143838   2.320   0.948   1.385
14532WAT     H243839   2.184   0.858   1.390
14533WAT      O43840   6.062   2.399   3.044
14533WAT     H143841   5.996   2.425   3.115
14533WAT     H243842   6.017   2.396   2.955
14534WAT      O43843   7.935   8.784   7.857
14534WAT     H143844   7.947   8.824   7.948
14534WAT     H243845   7.909   8.856   7.793
14535WAT      O43846   2.288   3.493   8.369
14535WAT     H143847   2.249   3.401   8.362
14535WAT     H243848   2.387   3.489   8.359
14536WAT      O43849   9.176   2.715   0.517
14536WAT     H143850   9.221   2.727   0.429
14536WAT     H243851   9.118   2.634   0.513
14537WAT      O43852   6.188   1.404   6.984
14537WAT     H143853   6.194   1.444   6.892
14537WAT     H243854   6.093   1.406   7.015
14538WAT      O43855   2.836   6.938   3.844
14538WAT     H143856   2.808   6.859   3.899
14538WAT     H243857   2.936   6.944   3.845
14539WAT      O43858   2.547   6.345   7.205
14539WAT     H143859   2.568   6.354   7.302
14539WAT     H243860   2.603   6.271   7.166
14540WAT      O43861   7.631   7.731   7.237
14540WAT     H143862   7.651   7.638   7.207
14540WAT     H243863   7.694   7.756   7.310
14541WAT      O43864   9.161   9.083   3.166
14541WAT     H143865   9.138   9.089   3.069
14541WAT     H243866   9.148   9.173   3.209
14542WAT      O43867   5.368   6.490   2.482
14542WAT     H143868   5.391   6.400   2.443
14542WAT     H243869   5.397   6.562   2.419
14543WAT      O43870   9.747   6.716   6.840
14543WAT     H143871   9.772   6.642   6.778
14543WAT     H243872   9.829   6.768   6.865
14544WAT      O43873   8.049   8.798   3.543
14544WAT     H143874   8.111   8.740   3.595
14544WAT     H243875   8.102   8.859   3.483
14545WAT      O43876   3.329   3.544   7.353
14545WAT     H143877   3.408   3.580   7.402
14545WAT     H243878   3.320   3.590   7.264
14546WAT      O43879   7.342   0.039   6.985
14546WAT     H143880   7.256   0.084   7.007
14546WAT     H243881   7.408   0.054   7.059
14547WAT      O43882   0.523   8.077   6.047
14547WAT     H143883   0.571   7.999   6.086
14547WAT     H243884   0.457   8.044   5.979
14548WAT      O43885   7.487   0.740   5.209
14548WAT     H143886   7.396   0.760   5.246
14548WAT     H243887   7.482   0.656   5.155
14549WAT      O43888   7.290   3.316   7.020
14549WAT     H143889   7.280   3.340   6.924
14549WAT     H243890   7.300   3.399   7.075
14550WAT      O43891   7.878   1.818   9.346
14550WAT     H143892   7.814   1.793   9.419
14550WAT     H243893   7.919   1.735   9.308
14551WAT      O43894   7.488   7.811   8.159
14551WAT     H143895   7.474   7.874   8.083
14551WAT     H243896   7.505   7.863   8.243
14552WAT      O43897   7.872   9.166   6.657
14552WAT     H143898   7.888   9.092   6.723
14552WAT     H243899   7.836   9.246   6.704
14553WAT      O43900   2.567   6.719   2.826
14553WAT     H143901   2.643   6.692   2.767
14553WAT     H243902   2.559   6.655   2.903
14554WAT      O43903   1.373   1.649   3.151
14554WAT     H143904   1.342   1.628   3.059
14554WAT     H243905   1.330   1.587   3.216
14555WAT      O43906   0.023   0.733   6.469
14555WAT     H143907   0.008   0.649   6.522
14555WAT     H243908  -0.029   0.729   6.384
14556WAT      O43909   2.237   3.384   8.096
14556WAT     H143910   2.225   3.470   8.146
14556WAT     H243911   2.288   3.401   8.012
14557WAT      O43912   4.415   8.321   3.999
14557WAT     H143913   4.427   8.252   4.070
14557WAT     H243914   4.318   8.335   3.982
14558WAT      O43915   8.896   2.599   2.261
14558WAT     H143916   8.857   2.671   2.204
14558WAT     H243917   8.830   2.573   2.331
14559WAT      O43918   3.028   2.059   9.176
14559WAT     H143919   3.118   2.020   9.194
14559WAT     H243920   3.027   2.101   9.085
14560WAT      O43921   6.877   8.895   7.126
14560WAT     H143922   6.852   8.845   7.209
14560WAT     H243923   6.836   8.850   7.046
14561WAT      O43924   0.353   4.921   3.360
14561WAT     H143925   0.309   4.942   3.447
14561WAT     H243926   0.312   4.839   3.321
14562WAT      O43927   6.637   7.633   0.331
14562WAT     H143928   6.630   7.725   0.292
14562WAT     H243929   6.659   7.639   0.428
14563WAT      O43930   4.258   5.649   6.749
14563WAT     H143931   4.167   5.621   6.780
14563WAT     H243932   4.259   5.748   6.734
14564WAT      O43933   4.485   9.741   0.573
14564WAT     H143934   4.466   9.801   0.651
14564WAT     H243935   4.578   9.759   0.540
14565WAT      O43936   1.498   9.197   4.451
14565WAT     H143937   1.546   9.111   4.435
14565WAT     H243938   1.560   9.263   4.495
14566WAT      O43939   4.671   6.385   0.227
14566WAT     H143940   4.745   6.443   0.194
14566WAT     H243941   4.705   6.326   0.300
14567WAT      O43942   4.376   3.539   6.981
14567WAT     H143943   4.415   3.509   6.893
14567WAT     H243944   4.447   3.535   7.051
14568WAT      O43945   6.789   3.039   0.459
14568WAT     H143946   6.752   2.981   0.386
14568WAT     H243947   6.886   3.020   0.470
14569WAT      O43948   1.229   7.972   6.306
14569WAT     H143949   1.311   7.920   6.333
14569WAT     H243950   1.255   8.043   6.241
14570WAT      O43951   9.651   0.100   2.209
14570WAT     H143952   9.576   0.163   2.228
14570WAT     H243953   9.637   0.015   2.260
14571WAT      O43954   7.643   0.606   9.508
14571WAT     H143955   7.669   0.515   9.476
14571WAT     H243956   7.543   0.614   9.509
14572WAT      O43957   3.307   3.932   0.614
14572WAT     H143958   3.332   3.987   0.694
14572WAT     H243959   3.294   3.992   0.535
14573WAT      O43960   7.362   5.067   4.195
14573WAT     H143961   7.283   5.115   4.156
14573WAT     H243962   7.349   4.968   4.184
14574WAT      O43963   7.917   1.898   3.302
14574WAT     H143964   7.947   1.803   3.309
14574WAT     H243965   7.888   1.931   3.392
14575WAT      O43966   6.427   1.107   6.921
14575WAT     H143967   6.487   1.056   6.859
14575WAT     H243968   6.479   1.134   7.002
14576WAT      O43969   5.094   2.428   3.252
14576WAT     H143970   5.003   2.419   3.292
14576WAT     H243971   5.109   2.355   3.186
14577WAT      O43972   0.569   3.324   8.498
14577WAT     H143973   0.538   3.269   8.575
14577WAT     H243974   0.515   3.302   8.417
14578WAT      O43975   3.573   1.543   3.830
14578WAT     H143976   3.633   1.465   3.810
14578WAT     H243977   3.486   1.531   3.783
14579WAT      O43978   0.052   3.797   2.572
14579WAT     H143979   0.070   3.855   2.651
14579WAT     H243980  -0.001   3.847   2.504
14580WAT      O43981   6.230   2.152   2.862
14580WAT     H143982   6.293   2.229   2.874
14580WAT     H243983   6.276   2.068   2.889
14581WAT      O43984   7.169   9.007   5.803
14581WAT     H143985   7.189   9.062   5.722
14581WAT     H243986   7.127   8.921   5.776
14582WAT      O43987   8.211   5.834   3.843
14582WAT     H143988   8.253   5.844   3.752
14582WAT     H243989   8.281   5.806   3.909
14583WAT      O43990   9.449   1.341   3.624
14583WAT     H143991   9.426   1.344   3.721
14583WAT     H243992   9.432   1.249   3.589
14584WAT      O43993   0.474   1.709   6.753
14584WAT     H143994   0.388   1.658   6.759
14584WAT     H243995   0.460   1.802   6.785
14585WAT      O43996   7.557   7.254   4.491
14585WAT     H143997   7.546   7.155   4.503
14585WAT     H243998   7.477   7.301   4.527
14586WAT      O43999   0.787   3.406   3.791
14586WAT     H144000   0.852   3.405   3.714
14586WAT     H244001   0.798   3.323   3.845
14587WAT      O44002   9.211   9.328   1.126
14587WAT     H144003   9.279   9.354   1.195
14587WAT     H244004   9.119   9.349   1.160
14588WAT      O44005   4.403   3.897   9.593
14588WAT     H144006   4.462   3.861   9.521
14588WAT     H244007   4.318   3.845   9.594
14589WAT      O44008   1.132   4.044   4.007
14589WAT     H144009   1.124   4.045   3.907
14589WAT     H244010   1.043   4.067   4.047
14590WAT      O44011   5.398   3.964   3.292
14590WAT     H144012   5.465   3.891   3.305
14590WAT     H244013   5.306   3.930   3.313
14591WAT      O44014   9.507   5.953   9.167
14591WAT     H144015   9.435   5.951   9.098
14591WAT     H244016   9.509   6.043   9.211
14592WAT      O44017   2.080   5.126   7.477
14592WAT     H144018   1.989   5.144   7.514
14592WAT     H244019   2.126   5.212   7.457
14593WAT      O44020   6.453   7.654   8.527
14593WAT     H144021   6.407   7.741   8.543
14593WAT     H244022   6.549   7.670   8.502
14594WAT      O44023   4.154   2.682   1.746
14594WAT     H144024   4.056   2.704   1.752
14594WAT     H244025   4.187   2.654   1.836
14595WAT      O44026   9.224   6.644   8.496
14595WAT     H144027   9.252   6.563   8.547
14595WAT     H244028   9.135   6.675   8.528
14596WAT      O44029   9.695   6.329   8.531
14596WAT     H144030   9.672   6.327   8.434
14596WAT     H244031   9.663   6.414   8.572
14597WAT      O44032   6.927   7.908   0.528
14597WAT     H144033   6.935   8.004   0.557
14597WAT     H244034   6.898   7.852   0.606
14598WAT      O44035   1.295   4.569   9.125
14598WAT     H144036   1.315   4.665   9.144
14598WAT     H244037   1.196   4.555   9.123
14599WAT      O44038   2.662   2.054   2.654
14599WAT     H144039   2.652   2.128   2.588
14599WAT     H244040   2.640   2.086   2.746
14600WAT      O44041   5.012   1.444   9.047
14600WAT     H144042   5.066   1.375   9.094
14600WAT     H244043   4.939   1.477   9.107
14601WAT      O44044   7.736   3.489   5.369
14601WAT     H144045   7.768   3.428   5.441
14601WAT     H244046   7.665   3.444   5.315
14602WAT      O44047   9.458   5.744   8.770
14602WAT     H144048   9.393   5.791   8.830
14602WAT     H244049   9.424   5.652   8.750
14603WAT      O44050   5.278   4.108   1.651
14603WAT     H144051   5.191   4.061   1.635
14603WAT     H244052   5.333   4.054   1.715
14604WAT      O44053   0.008   2.088   4.633
14604WAT     H144054  -0.041   2.160   4.584
14604WAT     H244055   0.071   2.128   4.699
14605WAT      O44056   5.383   4.669   2.461
14605WAT     H144057   5.418   4.762   2.476
14605WAT     H244058   5.417   4.635   2.373
14606WAT      O44059   5.663   6.019   4.368
14606WAT     H144060   5.692   6.113   4.384
14606WAT     H244061   5.609   6.015   4.283
14607WAT      O44062   0.363   2.076   2.404
14607WAT     H144063   0.441   2.108   2.459
14607WAT     H244064   0.387   2.079   2.307
14608WAT      O44065   6.984   2.037   4.561
14608WAT     H144066   7.024   2.035   4.652
14608WAT     H244067   6.884   2.033   4.568
14609WAT      O44068   2.281   7.061   7.776
14609WAT     H144069   2.326   7.019   7.698
14609WAT     H244070   2.303   7.159   7.780
14610WAT      O44071   7.329   5.683   2.507
14610WAT     H144072   7.404   5.619   2.524
14610WAT     H244073   7.245   5.648   2.548
14611WAT      O44074   5.831   6.569   7.230
14611WAT     H144075   5.808   6.581   7.326
14611WAT     H244076   5.890   6.644   7.200
14612WAT      O44077   1.206   4.681   8.643
14612WAT     H144078   1.236   4.585   8.635
14612WAT     H244079   1.201   4.722   8.552
14613WAT      O44080   0.055   8.201   8.840
14613WAT     H144081   0.125   8.260   8.800
14613WAT     H244082   0.067   8.107   8.806
14614WAT      O44083   1.003   1.093   9.417
14614WAT     H144084   1.055   1.069   9.335
14614WAT     H244085   0.914   1.129   9.390
14615WAT      O44086   0.602   8.661   1.159
14615WAT     H144087   0.673   8.709   1.211
14615WAT     H244088   0.644   8.589   1.104
14616WAT      O44089   6.486   2.607   6.234
14616WAT     H144090   6.398   2.653   6.248
14616WAT     H244091   6.504   2.545   6.311
14617WAT      O44092   1.546   2.589   3.270
14617WAT     H144093   1.624   2.639   3.233
14617WAT     H244094   1.554   2.584   3.370
14618WAT      O44095   6.706   4.684   5.611
14618WAT     H144096   6.753   4.762   5.652
14618WAT     H244097   6.608   4.706   5.602
14619WAT      O44098   1.698   1.061   7.033
14619WAT     H144099   1.709   1.122   6.955
14619WAT     H244100   1.601   1.040   7.046
14620WAT      O44101   6.323   5.266   9.827
14620WAT     H144102   6.309   5.167   9.820
14620WAT     H244103   6.391   5.286   9.898
14621WAT      O44104   2.858   7.260   1.907
14621WAT     H144105   2.768   7.231   1.939
14621WAT     H244106   2.902   7.185   1.858
14622WAT      O44107   8.600   8.326   7.766
14622WAT     H144108   8.517   8.383   7.771
14622WAT     H244109   8.660   8.350   7.842
14623WAT      O44110   6.699   2.430   6.973
14623WAT     H144111   6.631   2.449   6.902
14623WAT     H244112   6.661   2.453   7.063
14624WAT      O44113   0.298   0.525   1.431
14624WAT     H144114   0.256   0.549   1.344
14624WAT     H244115   0.260   0.438   1.463
14625WAT      O44116   1.263   3.470   3.097
14625WAT     H144117   1.291   3.397   3.035
14625WAT     H244118   1.290   3.558   3.059
14626WAT      O44119   0.219   3.650   0.038
14626WAT     H144120   0.283   3.725   0.025
14626WAT     H244121   0.268   3.568   0.067
14627WAT      O44122   4.709   6.379   6.440
14627WAT     H144123   4.775   6.386   6.365
14627WAT     H244124   4.716   6.460   6.499
14628WAT      O44125   3.993   4.900   6.090
14628WAT     H144126   3.938   4.855   6.161
14628WAT     H244127   4.014   4.993   6.119
14629WAT      O44128   1.394   0.342   4.732
14629WAT     H144129   1.366   0.424   4.781
14629WAT     H244130   1.428   0.275   4.798
14630WAT      O44131   1.946   5.620   0.964
14630WAT     H144132   2.014   5.578   1.024
14630WAT     H244133   1.992   5.671   0.892
14631WAT      O44134   3.553   1.358   4.280
14631WAT     H144135   3.544   1.456   4.294
14631WAT     H244136   3.647   1.330   4.295
14632WAT      O44137   4.811   8.727   5.713
14632WAT     H144138   4.888   8.790   5.705
14632WAT     H244139   4.736   8.772   5.761
14633WAT      O44140   1.790   0.302   6.998
14633WAT     H144141   1.829   0.370   7.061
14633WAT     H244142   1.857   0.231   6.980
14634WAT      O44143   3.311   9.786   6.825
14634WAT     H144144   3.363   9.729   6.761
14634WAT     H244145   3.321   9.749   6.917
14635WAT      O44146   6.334   6.755   4.941
14635WAT     H144147   6.329   6.656   4.933
14635WAT     H244148   6.429   6.782   4.958
14636WAT      O44149   8.526   2.566   3.209
14636WAT     H144150   8.582   2.543   3.130
14636WAT     H244151   8.433   2.531   3.196
14637WAT      O44152   5.558   7.003   5.636
14637WAT     H144153   5.545   6.997   5.537
14637WAT     H244154   5.501   7.076   5.673
14638WAT      O44155   6.802   7.236   8.819
14638WAT     H144156   6.719   7.188   8.793
14638WAT     H244157   6.858   7.178   8.877
14639WAT      O44158   4.827   6.742   1.327
14639WAT     H144159   4.855   6.699   1.412
14639WAT     H244160   4.907   6.772   1.276
14640WAT      O44161   6.410   7.826   5.878
14640WAT     H144162   6.347   7.776   5.936
14640WAT     H244163   6.384   7.816   5.782
14641WAT      O44164   6.593   7.080   4.908
14641WAT     H144165   6.660   7.121   4.846
14641WAT     H244166   6.594   6.980   4.896
14642WAT      O44167   2.289   5.116   6.431
14642WAT     H144168   2.225   5.050   6.470
14642WAT     H244169   2.269   5.130   6.334
14643WAT      O44170   8.904   4.855   4.246
14643WAT     H144171   8.888   4.921   4.319
14643WAT     H244172   8.934   4.903   4.164
14644WAT      O44173   3.934   4.671   2.381
14644WAT     H144174   3.961   4.694   2.475
14644WAT     H244175   3.982   4.731   2.317
14645WAT      O44176   3.562   5.679   7.875
14645WAT     H144177   3.603   5.619   7.944
14645WAT     H244178   3.625   5.755   7.856
14646WAT      O44179   5.888   3.911   3.532
14646WAT     H144180   5.984   3.919   3.558
14646WAT     H244181   5.867   3.980   3.462
14647WAT      O44182   5.844   7.999   9.708
14647WAT     H144183   5.891   8.085   9.725
14647WAT     H244184   5.749   8.006   9.738
14648WAT      O44185   6.952   0.523   7.516
14648WAT     H144186   6.929   0.428   7.495
14648WAT     H244187   6.930   0.581   7.438
14649WAT      O44188   5.873   3.428   9.023
14649WAT     H144189   5.843   3.333   9.025
14649WAT     H244190   5.872   3.466   9.115
14650WAT      O44191   2.715   2.829   3.565
14650WAT     H144192   2.689   2.737   3.537
14650WAT     H244193   2.633   2.884   3.580
14651WAT      O44194   5.734   6.940   4.964
14651WAT     H144195   5.803   6.904   4.902
14651WAT     H244196   5.771   7.018   5.014
14652WAT      O44197   1.694   2.933   1.179
14652WAT     H144198   1.618   2.998   1.187
14652WAT     H244199   1.722   2.903   1.271
14653WAT      O44200   4.115   1.914   7.363
14653WAT     H144201   4.081   1.859   7.439
14653WAT     H244202   4.103   1.864   7.277
14654WAT      O44203   7.240   1.376   4.372
14654WAT     H144204   7.151   1.385   4.328
14654WAT     H244205   7.311   1.362   4.303
14655WAT      O44206   6.249   4.997   9.831
14655WAT     H144207   6.279   4.947   9.912
14655WAT     H244208   6.265   4.942   9.750
14656WAT      O44209   3.944   1.693   2.385
14656WAT     H144210   4.034   1.683   2.343
14656WAT     H244211   3.873   1.669   2.319
14657WAT      O44212   2.026   1.931   5.253
14657WAT     H144213   2.005   1.926   5.351
14657WAT     H244214   2.099   1.998   5.239
14658WAT      O44215   0.401   2.813   9.372
14658WAT     H144216   0.343   2.750   9.320
14658WAT     H244217   0.346   2.890   9.404
14659WAT      O44218   7.478   7.866   1.053
14659WAT     H144219   7.561   7.836   1.006
14659WAT     H244220   7.503   7.913   1.138
14660WAT      O44221   0.305   1.725   2.396
14660WAT     H144222   0.226   1.786   2.406
14660WAT     H244223   0.381   1.759   2.451
14661WAT      O44224   1.627   6.395   0.890
14661WAT     H144225   1.702   6.435   0.837
14661WAT     H244226   1.617   6.298   0.866
14662WAT      O44227   2.343   6.835   3.511
14662WAT     H144228   2.442   6.822   3.518
14662WAT     H244229   2.320   6.931   3.527
14663WAT      O44230   1.448   1.341   0.971
14663WAT     H144231   1.384   1.294   0.909
14663WAT     H244232   1.541   1.332   0.935
14664WAT      O44233   9.502   3.628   9.494
14664WAT     H144234   9.543   3.635   9.403
14664WAT     H244235   9.573   3.608   9.562
14665WAT      O44236   5.060   5.844   8.480
14665WAT     H144237   5.072   5.942   8.497
14665WAT     H244238   4.998   5.806   8.548
14666WAT      O44239   6.711   3.286   7.004
14666WAT     H144240   6.748   3.280   7.097
14666WAT     H244241   6.632   3.224   6.996
14667WAT      O44242   2.492   9.743   3.093
14667WAT     H144243   2.588   9.759   3.118
14667WAT     H244244   2.434   9.756   3.173
14668WAT      O44245   8.094   5.827   9.809
14668WAT     H144246   8.096   5.730   9.832
14668WAT     H244247   8.121   5.840   9.714
14669WAT      O44248   1.296   5.408   0.406
14669WAT     H144249   1.239   5.351   0.347
14669WAT     H244250   1.344   5.351   0.473
14670WAT      O44251   3.139   5.557   8.167
14670WAT     H144252   3.054   5.586   8.123
14670WAT     H244253   3.136   5.581   8.264
14671WAT      O44254   9.295   5.454   4.061
14671WAT     H144255   9.267   5.522   4.129
14671WAT     H244256   9.384   5.480   4.024
14672WAT      O44257   4.607   7.115   3.491
14672WAT     H144258   4.616   7.168   3.575
14672WAT     H244259   4.671   7.149   3.422
14673WAT      O44260   9.383   8.378   9.726
14673WAT     H144261   9.328   8.444   9.777
14673WAT     H244262   9.410   8.418   9.638
14674WAT      O44263   2.588   7.623   7.628
14674WAT     H144264   2.526   7.698   7.605
14674WAT     H244265   2.574   7.596   7.723
14675WAT      O44266   0.467   0.366   0.463
14675WAT     H144267   0.414   0.282   0.476
14675WAT     H244268   0.532   0.376   0.538
14676WAT      O44269   3.233   0.608   3.291
14676WAT     H144270   3.186   0.529   3.253
14676WAT     H244271   3.211   0.616   3.389
14677WAT      O44272   3.744   7.733   8.823
14677WAT     H144273   3.764   7.701   8.916
14677WAT     H244274   3.665   7.794   8.826
14678WAT      O44275   6.519   0.388   6.358
14678WAT     H144276   6.568   0.366   6.273
14678WAT     H244277   6.516   0.308   6.417
14679WAT      O44278   2.945   0.875   4.816
14679WAT     H144279   2.873   0.863   4.747
14679WAT     H244280   2.917   0.945   4.881
14680WAT      O44281   5.707   6.144   3.893
14680WAT     H144282   5.711   6.155   3.794
14680WAT     H244283   5.764   6.215   3.936
14681WAT      O44284   4.650   1.421   7.101
14681WAT     H144285   4.739   1.455   7.133
14681WAT     H244286   4.595   1.393   7.179
14682WAT      O44287   1.530   7.704   8.126
14682WAT     H144288   1.534   7.678   8.223
14682WAT     H244289   1.460   7.650   8.080
14683WAT      O44290   5.710   8.073   0.161
14683WAT     H144291   5.690   7.988   0.209
14683WAT     H244292   5.807   8.078   0.141
14684WAT      O44293   0.742   7.431   2.071
14684WAT     H144294   0.794   7.357   2.029
14684WAT     H244295   0.689   7.479   2.001
14685WAT      O44296   5.693   4.737   2.605
14685WAT     H144297   5.601   4.704   2.628
14685WAT     H244298   5.734   4.780   2.686
14686WAT      O44299   1.241   2.746   0.529
14686WAT     H144300   1.180   2.737   0.450
14686WAT     H244301   1.194   2.713   0.611
14687WAT      O44302   3.113   0.907   2.148
14687WAT     H144303   3.055   0.913   2.229
14687WAT     H244304   3.159   0.818   2.147
14688WAT      O44305   3.006   3.087   6.844
14688WAT     H144306   3.001   3.152   6.768
14688WAT     H244307   2.914   3.058   6.869
14689WAT      O44308   1.159   1.058   3.408
14689WAT     H144309   1.093   0.983   3.409
14689WAT     H244310   1.135   1.123   3.336
14690WAT      O44311   6.865   2.662   8.720
14690WAT     H144312   6.781   2.712   8.702
14690WAT     H244313   6.869   2.636   8.817
14691WAT      O44314   2.203   0.243   2.995
14691WAT     H144315   2.167   0.331   3.028
14691WAT     H244316   2.301   0.251   2.980
14692WAT      O44317   0.704   1.500   5.356
14692WAT     H144318   0.660   1.464   5.438
14692WAT     H244319   0.737   1.592   5.374
14693WAT      O44320   9.256   7.015   1.448
14693WAT     H144321   9.315   7.090   1.476
14693WAT     H244322   9.259   6.942   1.517
14694WAT      O44323   3.475   7.018   8.453
14694WAT     H144324   3.493   7.116   8.446
14694WAT     H244325   3.543   6.975   8.512
14695WAT      O44326   2.997   3.106   3.949
14695WAT     H144327   2.900   3.087   3.932
14695WAT     H244328   3.017   3.201   3.922
14696WAT      O44329   2.672   4.267   6.586
14696WAT     H144330   2.683   4.344   6.649
14696WAT     H244331   2.746   4.267   6.519
14697WAT      O44332   5.553   4.301   9.823
14697WAT     H144333   5.546   4.290   9.922
14697WAT     H244334   5.649   4.317   9.798
14698WAT      O44335   3.421   6.079   5.035
14698WAT     H144336   3.354   6.126   4.977
14698WAT     H244337   3.488   6.145   5.069
14699WAT      O44338   9.343   1.151   2.397
14699WAT     H144339   9.413   1.189   2.336
14699WAT     H244340   9.279   1.223   2.423
14700WAT      O44341   7.617   3.775   0.875
14700WAT     H144342   7.687   3.753   0.807
14700WAT     H244343   7.528   3.742   0.843
14701WAT      O44344   9.681   5.781   0.124
14701WAT     H144345   9.680   5.751   0.219
14701WAT     H244346   9.619   5.859   0.113
14702WAT      O44347   2.209   2.886   3.942
14702WAT     H144348   2.114   2.915   3.943
14702WAT     H244349   2.268   2.966   3.955
14703WAT      O44350   1.839   5.216   9.751
14703WAT     H144351   1.886   5.183   9.832
14703WAT     H244352   1.903   5.218   9.674
14704WAT      O44353   2.411   4.275   2.736
14704WAT     H144354   2.381   4.257   2.642
14704WAT     H244355   2.465   4.360   2.738
14705WAT      O44356   1.135   8.943   7.257
14705WAT     H144357   1.119   8.890   7.339
14705WAT     H244358   1.229   8.977   7.256
14706WAT      O44359   0.919   3.748   6.311
14706WAT     H144360   0.832   3.772   6.353
14706WAT     H244361   0.993   3.795   6.359
14707WAT      O44362   2.384   0.549   0.450
14707WAT     H144363   2.287   0.526   0.451
14707WAT     H244364   2.406   0.600   0.367
14708WAT      O44365   4.595   5.351   2.073
14708WAT     H144366   4.641   5.409   2.140
14708WAT     H244367   4.595   5.397   1.984
14709WAT      O44368   2.120   5.419   3.950
14709WAT     H144369   2.021   5.412   3.942
14709WAT     H244370   2.164   5.357   3.886
14710WAT      O44371   6.494   1.483   7.754
14710WAT     H144372   6.413   1.536   7.727
14710WAT     H244373   6.546   1.534   7.822
14711WAT      O44374   1.829   3.504   1.405
14711WAT     H144375   1.888   3.503   1.486
14711WAT     H244376   1.881   3.470   1.326
14712WAT      O44377   1.277   7.402   7.034
14712WAT     H144378   1.364   7.425   7.078
14712WAT     H244379   1.264   7.462   6.955
14713WAT      O44380   0.685   2.956   8.951
14713WAT     H144381   0.651   3.050   8.943
14713WAT     H244382   0.780   2.952   8.919
14714WAT      O44383   7.342   8.329   9.426
14714WAT     H144384   7.295   8.401   9.376
14714WAT     H244385   7.285   8.247   9.427
14715WAT      O44386   5.324   3.525   7.257
14715WAT     H144387   5.382   3.597   7.296
14715WAT     H244388   5.334   3.525   7.157
14716WAT      O44389   0.070   8.281   7.634
14716WAT     H144390   0.122   8.239   7.559
14716WAT     H244391   0.055   8.213   7.706
14717WAT      O44392   9.252   0.269   1.558
14717WAT     H144393   9.349   0.257   1.540
14717WAT     H244394   9.203   0.184   1.534
14718WAT      O44395   8.905   8.801   5.189
14718WAT     H144396   8.966   8.820   5.111
14718WAT     H244397   8.815   8.839   5.171
14719WAT      O44398   6.982   7.925   2.912
14719WAT     H144399   6.965   7.984   2.833
14719WAT     H244400   6.898   7.877   2.936
14720WAT      O44401   0.808   8.363   6.834
14720WAT     H144402   0.897   8.409   6.843
14720WAT     H244403   0.749   8.418   6.775
14721WAT      O44404   4.514   4.270   4.828
14721WAT     H144405   4.425   4.268   4.782
14721WAT     H244406   4.577   4.328   4.776
14722WAT      O44407   6.718   7.070   7.013
14722WAT     H144408   6.731   6.972   6.997
14722WAT     H244409   6.783   7.122   6.957
14723WAT      O44410   0.107   3.532   8.800
14723WAT     H144411   0.064   3.569   8.718
14723WAT     H244412   0.115   3.433   8.792
14724WAT      O44413   2.907   1.413   0.177
14724WAT     H144414   2.813   1.433   0.151
14724WAT     H244415   2.958   1.499   0.185
14725WAT      O44416   8.032   9.396   5.873
14725WAT     H144417   8.012   9.346   5.788
14725WAT     H244418   8.070   9.332   5.940
14726WAT      O44419   1.547   9.320   1.963
14726WAT     H144420   1.590   9.397   2.012
14726WAT     H244421   1.557   9.334   1.865
14727WAT      O44422   2.311   9.038   1.001
14727WAT     H144423   2.289   9.102   0.928
14727WAT     H244424   2.237   9.038   1.069
14728WAT      O44425   2.884   8.882   2.784
14728WAT     H144426   2.926   8.863   2.695
14728WAT     H244427   2.914   8.813   2.850
14729WAT      O44428   7.190   2.864   5.523
14729WAT     H144429   7.201   2.851   5.622
14729WAT     H244430   7.272   2.832   5.476
14730WAT      O44431   4.277   8.004   1.910
14730WAT     H144432   4.200   8.052   1.952
14730WAT     H244433   4.242   7.926   1.857
14731WAT      O44434   6.667   9.365   8.822
14731WAT     H144435   6.736   9.434   8.844
14731WAT     H244436   6.611   9.398   8.746
14732WAT      O44437   9.501   9.718   5.572
14732WAT     H144438   9.448   9.634   5.567
14732WAT     H244439   9.591   9.698   5.611
14733WAT      O44440   7.154   1.997   8.572
14733WAT     H144441   7.078   2.034   8.518
14733WAT     H244442   7.221   2.069   8.589
14734WAT      O44443   3.576   7.887   6.345
14734WAT     H144444   3.559   7.931   6.433
14734WAT     H244445   3.672   7.859   6.340
14735WAT      O44446   1.377   9.331   0.698
14735WAT     H144447   1.460   9.350   0.750
14735WAT     H244448   1.301   9.384   0.737
14736WAT      O44449   6.802   9.494   3.607
14736WAT     H144450   6.758   9.572   3.650
14736WAT     H244451   6.733   9.440   3.558
14737WAT      O44452   2.228   6.140   3.746
14737WAT     H144453   2.129   6.131   3.757
14737WAT     H244454   2.274   6.065   3.794
14738WAT      O44455   3.434   1.465   2.871
14738WAT     H144456   3.406   1.553   2.909
14738WAT     H244457   3.353   1.411   2.847
14739WAT      O44458   8.581   2.721   2.000
14739WAT     H144459   8.548   2.632   2.029
14739WAT     H244460   8.644   2.758   2.069
14740WAT      O44461   9.673   8.252   9.884
14740WAT     H144462   9.725   8.326   9.927
14740WAT     H244463   9.595   8.292   9.834
14741WAT      O44464   3.427   8.317   3.291
14741WAT     H144465   3.339   8.328   3.245
14741WAT     H244466   3.470   8.406   3.302
14742WAT      O44467   4.269   6.187   2.806
14742WAT     H144468   4.214   6.267   2.834
14742WAT     H244469   4.325   6.212   2.727
14743WAT      O44470   8.805   5.232   8.471
14743WAT     H144471   8.825   5.134   8.462
14743WAT     H244472   8.706   5.247   8.460
14744WAT      O44473   5.247   1.310   9.575
14744WAT     H144474   5.276   1.359   9.657
14744WAT     H244475   5.296   1.345   9.495
14745WAT      O44476   0.083   7.284   5.428
14745WAT     H144477   0.178   7.297   5.456
14745WAT     H244478   0.030   7.366   5.450
14746WAT      O44479   5.168   7.202   2.159
14746WAT     H144480   5.130   7.188   2.251
14746WAT     H244481   5.265   7.177   2.160
14747WAT      O44482   7.221   1.759   4.728
14747WAT     H144483   7.253   1.674   4.770
14747WAT     H244484   7.297   1.804   4.681
14748WAT      O44485   8.928   7.136   7.402
14748WAT     H144486   8.882   7.215   7.361
14748WAT     H244487   9.012   7.116   7.351
14749WAT      O44488   3.368   3.725   7.957
14749WAT     H144489   3.425   3.646   7.934
14749WAT     H244490   3.419   3.809   7.940
14750WAT      O44491   1.548   0.344   3.806
14750WAT     H144492   1.472   0.378   3.862
14750WAT     H244493   1.582   0.418   3.748
14751WAT      O44494   6.523   6.947   0.456
14751WAT     H144495   6.538   6.923   0.552
14751WAT     H244496   6.574   7.030   0.434
14752WAT      O44497   6.214   5.817   5.712
14752WAT     H144498   6.256   5.882   5.648
14752WAT     H244499   6.181   5.737   5.661
14753WAT      O44500   8.844   0.660   9.229
14753WAT     H144501   8.888   0.744   9.262
14753WAT     H244502   8.745   0.667   9.243
14754WAT      O44503   0.098   5.080   7.228
14754WAT     H144504   0.038   5.001   7.221
14754WAT     H244505   0.151   5.074   7.313
14755WAT      O44506   1.955   1.214   9.559
14755WAT     H144507   2.044   1.180   9.588
14755WAT     H244508   1.926   1.165   9.476
14756WAT      O44509   0.534   0.185   2.215
14756WAT     H144510   0.468   0.260   2.208
14756WAT     H244511   0.516   0.119   2.142
14757WAT      O44512   5.074   7.166   7.746
14757WAT     H144513   5.091   7.228   7.823
14757WAT     H244514   4.985   7.121   7.759
14758WAT      O44515   2.682   2.827   6.581
14758WAT     H144516   2.762   2.810   6.638
14758WAT     H244517   2.613   2.876   6.634
14759WAT      O44518   3.902   5.811   7.521
14759WAT     H144519   3.936   5.888   7.576
14759WAT     H244520   3.802   5.808   7.526
14760WAT      O44521   3.891   4.340   0.694
14760WAT     H144522   3.791   4.329   0.696
14760WAT     H244523   3.919   4.405   0.764
14761WAT      O44524   9.153   8.778   5.497
14761WAT     H144525   9.218   8.846   5.462
14761WAT     H244526   9.181   8.748   5.588
14762WAT      O44527   1.731   3.682   1.677
14762WAT     H144528   1.695   3.619   1.747
14762WAT     H244529   1.692   3.658   1.588
14763WAT      O44530   5.969   2.259   9.634
14763WAT     H144531   6.049   2.299   9.587
14763WAT     H244532   5.942   2.175   9.588
14764WAT      O44533   6.414   9.492   3.947
14764WAT     H144534   6.454   9.426   3.884
14764WAT     H244535   6.382   9.445   4.029
14765WAT      O44536   6.674   8.996   3.437
14765WAT     H144537   6.675   8.952   3.348
14765WAT     H244538   6.758   8.974   3.486
14766WAT      O44539   2.811   3.251   1.997
14766WAT     H144540   2.765   3.265   1.909
14766WAT     H244541   2.887   3.188   1.984
14767WAT      O44542   0.708   5.952   6.896
14767WAT     H144543   0.805   5.934   6.881
14767WAT     H244544   0.698   6.021   6.968
14768WAT      O44545   4.634   1.669   3.108
14768WAT     H144546   4.572   1.745   3.089
14768WAT     H244547   4.609   1.590   3.053
14769WAT      O44548   9.571   6.475   6.289
14769WAT     H144549   9.649   6.526   6.253
14769WAT     H244550   9.597   6.428   6.373
14770WAT      O44551   3.565   0.252   6.607
14770WAT     H144552   3.538   0.274   6.700
14770WAT     H244553   3.491   0.277   6.544
14771WAT      O44554   5.490   6.983   6.257
14771WAT     H144555   5.585   7.006   6.279
14771WAT     H244556   5.452   6.928   6.331
14772WAT      O44557   4.141   7.312   2.960
14772WAT     H144558   4.210   7.309   3.033
14772WAT     H244559   4.076   7.238   2.973
14773WAT      O44560   8.898   3.933   3.514
14773WAT     H144561   8.881   3.840   3.546
14773WAT     H244562   8.974   3.932   3.449
14774WAT      O44563   8.225   3.677   2.494
14774WAT     H144564   8.140   3.716   2.530
14774WAT     H244565   8.243   3.715   2.403
14775WAT      O44566   9.017   8.494   7.465
14775WAT     H144567   8.974   8.449   7.543
14775WAT     H244568   9.113   8.512   7.486
14776WAT      O44569   9.062   2.159   8.969
14776WAT     H144570   9.056   2.174   8.871
14776WAT     H244571   9.069   2.061   8.988
14777WAT      O44572   9.882   9.697   7.021
14777WAT     H144573   9.855   9.793   7.031
14777WAT     H244574   9.969   9.682   7.067
14778WAT      O44575   5.847   9.477   5.826
14778WAT     H144576   5.869   9.481   5.924
14778WAT     H244577   5.925   9.511   5.773
14779WAT      O44578   6.036   2.702   5.314
14779WAT     H144579   6.037   2.632   5.385
14779WAT     H244580   6.052   2.792   5.354
14780WAT      O44581   3.356   9.349   9.011
14780WAT     H144582   3.286   9.282   9.035
14780WAT     H244583   3.441   9.302   8.989
14781WAT      O44584   6.816   1.243   2.444
14781WAT     H144585   6.853   1.189   2.367
14781WAT     H244586   6.789   1.181   2.518
14782WAT      O44587   5.565   7.310   0.664
14782WAT     H144588   5.588   7.401   0.700
14782WAT     H244589   5.498   7.318   0.591
14783WAT      O44590   4.840   4.541   0.730
14783WAT     H144591   4.890   4.610   0.679
14783WAT     H244592   4.780   4.585   0.797
14784WAT      O44593   1.808   0.418   6.065
14784WAT     H144594   1.884   0.482   6.053
14784WAT     H244595   1.774   0.389   5.976
14785WAT      O44596   7.527   2.358   1.655
14785WAT     H144597   7.428   2.354   1.649
14785WAT     H244598   7.554   2.426   1.724
14786WAT      O44599   5.486   9.769   0.190
14786WAT     H144600   5.498   9.822   0.274
14786WAT     H244601   5.409   9.806   0.138
14787WAT      O44602   3.649   6.563   8.125
14787WAT     H144603   3.617   6.546   8.032
14787WAT     H244604   3.707   6.487   8.155
14788WAT      O44605   1.570   2.253   0.796
14788WAT     H144606   1.545   2.232   0.702
14788WAT     H244607   1.641   2.323   0.797
14789WAT      O44608   1.255   7.779   4.774
14789WAT     H144609   1.344   7.823   4.759
14789WAT     H244610   1.210   7.820   4.853
14790WAT      O44611   0.297   3.527   3.694
14790WAT     H144612   0.372   3.485   3.745
14790WAT     H244613   0.331   3.605   3.642
14791WAT      O44614   8.159   1.184   1.974
14791WAT     H144615   8.156   1.267   1.918
14791WAT     H244616   8.136   1.105   1.918
14792WAT      O44617   9.765   1.835   9.306
14792WAT     H144618   9.804   1.863   9.218
14792WAT     H244619   9.667   1.850   9.306
14793WAT      O44620   0.445   1.303   6.811
14793WAT     H144621   0.528   1.359   6.809
14793WAT     H244622   0.438   1.256   6.899
14794WAT      O44623   8.593   3.311   9.174
14794WAT     H144624   8.516   3.262   9.215
14794WAT     H244625   8.648   3.247   9.121
14795WAT      O44626   2.481   4.709   5.120
14795WAT     H144627   2.394   4.661   5.134
14795WAT     H244628   2.546   4.683   5.191
14796WAT      O44629   0.967   8.895   1.841
14796WAT     H144630   0.967   8.906   1.741
14796WAT     H244631   1.045   8.840   1.868
14797WAT      O44632   6.961   4.389   2.946
14797WAT     H144633   7.028   4.409   2.874
14797WAT     H244634   6.905   4.311   2.918
14798WAT      O44635   2.222   1.671   0.290
14798WAT     H144636   2.228   1.762   0.332
14798WAT     H244637   2.300   1.616   0.321
14799WAT      O44638   4.166   0.009   1.699
14799WAT     H144639   4.245   0.067   1.720
14799WAT     H244640   4.096   0.021   1.770
14800WAT      O44641   2.228   1.216   0.831
14800WAT     H144642   2.270   1.170   0.752
14800WAT     H244643   2.179   1.297   0.799
14801WAT      O44644   3.173   4.417   5.681
14801WAT     H144645   3.259   4.411   5.631
14801WAT     H244646   3.161   4.335   5.737
14802WAT      O44647   7.909   7.295   7.888
14802WAT     H144648   7.905   7.321   7.791
14802WAT     H244649   7.848   7.354   7.941
14803WAT      O44650   3.918   4.316   4.114
14803WAT     H144651   3.986   4.291   4.183
14803WAT     H244652   3.960   4.376   4.046
14804WAT      O44653   1.345   7.640   2.888
14804WAT     H144654   1.246   7.645   2.897
14804WAT     H244655   1.385   7.618   2.978
14805WAT      O44656   2.075   7.568   3.854
14805WAT     H144657   2.065   7.618   3.940
14805WAT     H244658   2.059   7.631   3.778
14806WAT      O44659   6.277   4.084   5.330
14806WAT     H144660   6.367   4.043   5.349
14806WAT     H244661   6.209   4.046   5.393
14807WAT      O44662   1.865   7.206   3.659
14807WAT     H144663   1.919   7.127   3.688
14807WAT     H244664   1.776   7.204   3.703
14808WAT      O44665   4.726   7.240   7.068
14808WAT     H144666   4.723   7.162   7.130
14808WAT     H244667   4.768   7.318   7.114
14809WAT      O44668   0.854   9.281   0.499
14809WAT     H144669   0.936   9.333   0.476
14809WAT     H244670   0.873   9.183   0.491
14810WAT      O44671   5.687   1.125   9.231
14810WAT     H144672   5.727   1.049   9.282
14810WAT     H244673   5.721   1.212   9.266
14811WAT      O44674   5.755   9.522   3.195
14811WAT     H144675   5.657   9.515   3.175
14811WAT     H244676   5.775   9.476   3.281
14812WAT      O44677   8.375   6.669   3.496
14812WAT     H144678   8.392   6.767   3.493
14812WAT     H244679   8.309   6.649   3.569
14813WAT      O44680   7.057   4.695   0.558
14813WAT     H144681   7.010   4.763   0.502
14813WAT     H244682   7.044   4.604   0.519
14814WAT      O44683   4.879   2.097   9.198
14814WAT     H144684   4.869   2.005   9.162
14814WAT     H244685   4.860   2.163   9.125
14815WAT      O44686   5.221   1.899   4.336
14815WAT     H144687   5.231   1.952   4.421
14815WAT     H244688   5.275   1.816   4.342
14816WAT      O44689   1.487   4.440   7.532
14816WAT     H144690   1.505   4.531   7.569
14816WAT     H244691   1.406   4.443   7.473
14817WAT      O44692   0.635   0.447   1.210
14817WAT     H144693   0.626   0.366   1.268
14817WAT     H244694   0.607   0.528   1.262
14818WAT      O44695   1.814   0.671   1.495
14818WAT     H144696   1.778   0.661   1.587
14818WAT     H244697   1.751   0.628   1.430
14819WAT      O44698   6.077   2.617   3.327
14819WAT     H144699   6.028   2.530   3.319
14819WAT     H244700   6.053   2.661   3.414
14820WAT      O44701   5.373   0.213   8.821
14820WAT     H144702   5.298   0.154   8.791
14820WAT     H244703   5.413   0.259   8.741
14821WAT      O44704   0.822   3.071   5.966
14821WAT     H144705   0.761   3.136   6.012
14821WAT     H244706   0.899   3.049   6.026
14822WAT      O44707   5.858   5.635   4.615
14822WAT     H144708   5.815   5.555   4.574
14822WAT     H244709   5.798   5.714   4.603
14823WAT      O44710   4.825   0.811   3.284
14823WAT     H144711   4.882   0.883   3.244
14823WAT     H244712   4.730   0.842   3.288
14824WAT      O44713   4.292   6.956   2.694
14824WAT     H144714   4.274   7.054   2.688
14824WAT     H244715   4.206   6.906   2.679
14825WAT      O44716   3.070   3.584   4.121
14825WAT     H144717   3.147   3.620   4.174
14825WAT     H244718   3.097   3.573   4.026
14826WAT      O44719   1.002   1.428   5.781
14826WAT     H144720   1.032   1.460   5.871
14826WAT     H244721   1.030   1.494   5.712
14827WAT      O44722   2.336   6.340   0.643
14827WAT     H144723   2.407   6.282   0.681
14827WAT     H244724   2.350   6.434   0.672
14828WAT      O44725   6.705   3.459   0.599
14828WAT     H144726   6.624   3.437   0.653
14828WAT     H244727   6.734   3.553   0.620
14829WAT      O44728   3.431   6.278   7.090
14829WAT     H144729   3.346   6.268   7.142
14829WAT     H244730   3.410   6.309   6.997
14830WAT      O44731   7.163   9.712   4.441
14830WAT     H144732   7.259   9.686   4.427
14830WAT     H244733   7.148   9.728   4.539
14831WAT      O44734   0.519   9.593   7.089
14831WAT     H144735   0.599   9.534   7.108
14831WAT     H244736   0.548   9.672   7.035
14832WAT      O44737   8.726   6.291   1.852
14832WAT     H144738   8.721   6.234   1.934
14832WAT     H244739   8.671   6.374   1.866
14833WAT      O44740   8.490   1.271   3.396
14833WAT     H144741   8.495   1.224   3.308
14833WAT     H244742   8.394   1.294   3.416
14834WAT      O44743   9.344   0.992   4.071
14834WAT     H144744   9.407   0.927   4.030
14834WAT     H244745   9.269   1.011   4.008
14835WAT      O44746   8.713   4.926   3.991
14835WAT     H144747   8.799   4.975   4.006
14835WAT     H244748   8.711   4.844   4.049
14836WAT      O44749   8.502   7.907   9.424
14836WAT     H144750   8.481   7.810   9.410
14836WAT     H244751   8.583   7.916   9.482
14837WAT      O44752   0.054   1.070   0.823
14837WAT     H144753   0.128   1.125   0.786
14837WAT     H244754  -0.030   1.088   0.772
14838WAT      O44755   9.556   4.832   2.493
14838WAT     H144756   9.632   4.768   2.478
14838WAT     H244757   9.584   4.902   2.558
14839WAT      O44758   4.661   1.789   8.270
14839WAT     H144759   4.716   1.709   8.293
14839WAT     H244760   4.697   1.870   8.315
14840WAT      O44761   4.768   2.083   7.158
14840WAT     H144762   4.850   2.027   7.173
14840WAT     H244763   4.789   2.156   7.093
14841WAT      O44764   8.647   5.850   4.457
14841WAT     H144765   8.693   5.774   4.411
14841WAT     H244766   8.569   5.880   4.403
14842WAT      O44767   4.335   1.652   5.061
14842WAT     H144768   4.274   1.721   5.099
14842WAT     H244769   4.293   1.612   4.979
14843WAT      O44770   7.618   4.790   5.232
14843WAT     H144771   7.629   4.738   5.147
14843WAT     H244772   7.532   4.764   5.276
14844WAT      O44773   3.372   7.494   9.682
14844WAT     H144774   3.342   7.418   9.625
14844WAT     H244775   3.419   7.561   9.626
14845WAT      O44776   5.298   5.542   6.926
14845WAT     H144777   5.392   5.537   6.891
14845WAT     H244778   5.285   5.471   6.995
14846WAT      O44779   7.791   8.732   3.169
14846WAT     H144780   7.740   8.773   3.094
14846WAT     H244781   7.889   8.733   3.148
14847WAT      O44782   8.689   1.963   8.879
14847WAT     H144783   8.591   1.975   8.896
14847WAT     H244784   8.717   2.023   8.804
14848WAT      O44785   7.783   2.493   3.459
14848WAT     H144786   7.705   2.528   3.510
14848WAT     H244787   7.839   2.570   3.427
14849WAT      O44788   1.778   4.723   5.735
14849WAT     H144789   1.768   4.713   5.636
14849WAT     H244790   1.703   4.676   5.782
14850WAT      O44791   6.686   6.313   2.142
14850WAT     H144792   6.590   6.338   2.154
14850WAT     H244793   6.727   6.292   2.231
14851WAT      O44794   8.507   9.642   7.865
14851WAT     H144795   8.410   9.649   7.888
14851WAT     H244796   8.517   9.620   7.768
14852WAT      O44797   6.680   7.220   6.379
14852WAT     H144798   6.632   7.267   6.453
14852WAT     H244799   6.623   7.146   6.344
14853WAT      O44800   4.130   6.551   9.896
14853WAT     H144801   4.068   6.621   9.929
14853WAT     H244802   4.111   6.531   9.800
14854WAT      O44803   0.544   3.085   8.162
14854WAT     H144804   0.571   3.055   8.070
14854WAT     H244805   0.624   3.088   8.221
14855WAT      O44806   8.982   6.446   2.399
14855WAT     H144807   9.006   6.468   2.305
14855WAT     H244808   9.050   6.383   2.437
14856WAT      O44809   4.674   0.556   7.510
14856WAT     H144810   4.664   0.580   7.607
14856WAT     H244811   4.667   0.640   7.455
14857WAT      O44812   4.280   6.802   1.966
14857WAT     H144813   4.347   6.877   1.966
14857WAT     H244814   4.207   6.824   1.901
14858WAT      O44815   7.218   8.903   2.791
14858WAT     H144816   7.162   8.820   2.797
14858WAT     H244817   7.275   8.898   2.708
14859WAT      O44818   0.320   5.804   7.995
14859WAT     H144819   0.373   5.732   8.040
14859WAT     H244820   0.245   5.762   7.943
14860WAT      O44821   4.036   7.415   8.862
14860WAT     H144822   4.011   7.451   8.772
14860WAT     H244823   4.108   7.346   8.851
14861WAT      O44824   9.457   6.590   6.611
14861WAT     H144825   9.463   6.492   6.595
14861WAT     H244826   9.400   6.608   6.691
14862WAT      O44827   0.032   2.499   4.146
14862WAT     H144828  -0.006   2.562   4.078
14862WAT     H244829   0.105   2.445   4.104
14863WAT      O44830   5.542   1.289   8.169
14863WAT     H144831   5.488   1.213   8.132
14863WAT     H244832   5.509   1.313   8.260
14864WAT      O44833   1.038   7.631   0.028
14864WAT     H144834   1.057   7.692  -0.048
14864WAT     H244835   1.013   7.686   0.109
14865WAT      O44836   9.516   0.547   6.534
14865WAT     H144837   9.613   0.524   6.549
14865WAT     H244838   9.492   0.627   6.589
14866WAT      O44839   4.157   2.630   9.712
14866WAT     H144840   4.202   2.719   9.723
14866WAT     H244841   4.227   2.559   9.702
14867WAT      O44842   8.059   5.262   1.289
14867WAT     H144843   8.125   5.311   1.345
14867WAT     H244844   8.025   5.323   1.217
14868WAT      O44845   4.886   0.726   8.971
14868WAT     H144846   4.919   0.632   8.981
14868WAT     H244847   4.925   0.783   9.043
14869WAT      O44848   9.396   6.923   7.971
14869WAT     H144849   9.413   6.903   8.067
14869WAT     H244850   9.484   6.933   7.923
14870WAT      O44851   2.294   5.278   4.795
14870WAT     H144852   2.214   5.337   4.798
14870WAT     H244853   2.333   5.271   4.887
14871WAT      O44854   4.205   2.248   3.125
14871WAT     H144855   4.139   2.308   3.170
14871WAT     H244856   4.275   2.304   3.080
14872WAT      O44857   5.677   0.761   6.386
14872WAT     H144858   5.693   0.677   6.334
14872WAT     H244859   5.581   0.768   6.410
14873WAT      O44860   4.589   7.929   3.824
14873WAT     H144861   4.517   7.987   3.861
14873WAT     H244862   4.678   7.961   3.857
14874WAT      O44863   0.541   9.345   3.926
14874WAT     H144864   0.567   9.384   3.837
14874WAT     H244865   0.476   9.407   3.971
14875WAT      O44866   5.294   2.689   9.139
14875WAT     H144867   5.212   2.680   9.083
14875WAT     H244868   5.367   2.732   9.085
14876WAT      O44869   6.079   7.932   5.838
14876WAT     H144870   6.077   7.836   5.865
14876WAT     H244871   6.043   7.941   5.745
14877WAT      O44872   2.268   4.298   5.643
14877WAT     H144873   2.288   4.390   5.676
14877WAT     H244874   2.175   4.294   5.608
14878WAT      O44875   7.110   8.051   0.015
14878WAT     H144876   7.065   8.066   0.102
14878WAT     H244877   7.063   7.979  -0.036
14879WAT      O44878   3.523   9.247   7.761
14879WAT     H144879   3.518   9.330   7.816
14879WAT     H244880   3.484   9.265   7.671
14880WAT      O44881   5.971   9.757   5.688
14880WAT     H144882   5.875   9.768   5.714
14880WAT     H244883   5.988   9.804   5.601
14881WAT      O44884   6.260   5.458   9.286
14881WAT     H144885   6.285   5.415   9.373
14881WAT     H244886   6.168   5.429   9.260
14882WAT      O44887   9.530   9.566   7.949
14882WAT     H144888   9.568   9.476   7.927
14882WAT     H244889   9.487   9.563   8.039
14883WAT      O44890   7.439   2.272   0.940
14883WAT     H144891   7.357   2.259   0.884
14883WAT     H244892   7.513   2.308   0.884
14884WAT      O44893   1.792   9.494   8.781
14884WAT     H144894   1.724   9.441   8.730
14884WAT     H244895   1.849   9.432   8.835
14885WAT      O44896   4.105   0.205   9.291
14885WAT     H144897   4.097   0.223   9.193
14885WAT     H244898   4.157   0.120   9.304
14886WAT      O44899   3.623   3.116   3.521
14886WAT     H144900   3.603   3.198   3.575
14886WAT     H244901   3.598   3.133   3.425
14887WAT      O44902   0.655   2.114   5.599
14887WAT     H144903   0.653   2.087   5.502
14887WAT     H244904   0.695   2.041   5.654
14888WAT      O44905   0.707   9.386   4.574
14888WAT     H144906   0.607   9.379   4.579
14888WAT     H244907   0.740   9.332   4.497
14889WAT      O44908   4.729   9.585   8.655
14889WAT     H144909   4.657   9.653   8.639
14889WAT     H244910   4.803   9.599   8.590
14890WAT      O44911   5.947   5.829   5.642
14890WAT     H144912   5.914   5.746   5.599
14890WAT     H244913   6.035   5.812   5.687
14891WAT      O44914   5.632   4.754   8.557
14891WAT     H144915   5.566   4.793   8.492
14891WAT     H244916   5.607   4.781   8.650
14892WAT      O44917   5.715   5.631   0.385
14892WAT     H144918   5.714   5.716   0.332
14892WAT     H244919   5.809   5.611   0.414
14893WAT      O44920   3.575   4.538   6.413
14893WAT     H144921   3.543   4.458   6.464
14893WAT     H244922   3.504   4.567   6.348
14894WAT      O44923   2.234   7.859   2.849
14894WAT     H144924   2.333   7.862   2.866
14894WAT     H244925   2.190   7.933   2.900
14895WAT      O44926   6.043   5.262   7.970
14895WAT     H144927   6.038   5.257   8.070
14895WAT     H244928   5.966   5.211   7.931
14896WAT      O44929   2.976   9.645   9.650
14896WAT     H144930   2.921   9.697   9.714
14896WAT     H244931   3.052   9.600   9.698
14897WAT      O44932   0.950   7.270   3.844
14897WAT     H144933   0.866   7.257   3.791
14897WAT     H244934   0.977   7.366   3.840
14898WAT      O44935   5.865   0.982   4.204
14898WAT     H144936   5.862   1.077   4.234
14898WAT     H244937   5.935   0.933   4.255
14899WAT      O44938   1.629   2.143   4.863
14899WAT     H144939   1.651   2.130   4.766
14899WAT     H244940   1.702   2.106   4.920
14900WAT      O44941   7.509   9.207   6.331
14900WAT     H144942   7.414   9.216   6.361
14900WAT     H244943   7.566   9.183   6.409
14901WAT      O44944   1.646   4.481   3.919
14901WAT     H144945   1.566   4.425   3.940
14901WAT     H244946   1.722   4.454   3.978
14902WAT      O44947   1.631   9.834   3.654
14902WAT     H144948   1.593   9.809   3.564
14902WAT     H244949   1.565   9.890   3.704
14903WAT      O44950   6.110   5.645   8.570
14903WAT     H144951   6.060   5.729   8.593
14903WAT     H244952   6.117   5.588   8.652
14904WAT      O44953   0.701   7.489   0.558
14904WAT     H144954   0.745   7.431   0.490
14904WAT     H244955   0.618   7.444   0.591
14905WAT      O44956   1.914   6.236   5.068
14905WAT     H144957   1.854   6.281   5.001
14905WAT     H244958   1.859   6.202   5.144
14906WAT      O44959   8.679   0.635   6.607
14906WAT     H144960   8.623   0.617   6.688
14906WAT     H244961   8.683   0.552   6.551
14907WAT      O44962   1.638   8.088   5.400
14907WAT     H144963   1.578   8.049   5.470
14907WAT     H244964   1.591   8.085   5.312
14908WAT      O44965   6.815   8.474   6.540
14908WAT     H144966   6.899   8.435   6.504
14908WAT     H244967   6.742   8.406   6.537
14909WAT      O44968   5.879   9.468   0.332
14909WAT     H144969   5.858   9.565   0.321
14909WAT     H244970   5.935   9.455   0.414
14910WAT      O44971   1.238   1.581   5.346
14910WAT     H144972   1.182   1.500   5.367
14910WAT     H244973   1.264   1.578   5.249
14911WAT      O44974   4.889   8.077   1.666
14911WAT     H144975   4.879   7.982   1.637
14911WAT     H244976   4.957   8.123   1.609
14912WAT      O44977   0.385   3.180   3.141
14912WAT     H144978   0.467   3.236   3.150
14912WAT     H244979   0.357   3.147   3.232
14913WAT      O44980   6.888   1.567   2.728
14913WAT     H144981   6.867   1.565   2.631
14913WAT     H244982   6.988   1.571   2.741
14914WAT      O44983   9.686   5.646   4.538
14914WAT     H144984   9.628   5.678   4.463
14914WAT     H244985   9.710   5.550   4.523
14915WAT      O44986   0.619   4.037   4.203
14915WAT     H144987   0.535   4.069   4.161
14915WAT     H244988   0.600   4.005   4.296
14916WAT      O44989   3.258   4.807   3.822
14916WAT     H144990   3.339   4.751   3.801
14916WAT     H244991   3.282   4.879   3.887
14917WAT      O44992   0.555   2.133   6.052
14917WAT     H144993   0.608   2.216   6.073
14917WAT     H244994   0.464   2.159   6.019
14918WAT      O44995   7.941   5.725   3.918
14918WAT     H144996   7.866   5.699   3.857
14918WAT     H244997   7.905   5.753   4.007
14919WAT      O44998   8.215   0.750   8.186
14919WAT     H144999   8.122   0.784   8.192
14919WAT     H245000   8.278   0.827   8.172
14920WAT      O45001   7.199   7.953   8.432
14920WAT     H145002   7.258   7.917   8.504
14920WAT     H245003   7.185   7.883   8.362
14921WAT      O45004   8.682   7.642   6.387
14921WAT     H145005   8.666   7.586   6.305
14921WAT     H245006   8.601   7.697   6.405
14922WAT      O45007   2.177   9.364   8.280
14922WAT     H145008   2.155   9.307   8.201
14922WAT     H245009   2.092   9.392   8.325
14923WAT      O45010   8.148   3.374   7.977
14923WAT     H145011   8.203   3.376   7.894
14923WAT     H245012   8.058   3.333   7.956
14924WAT      O45013   0.700   4.226   1.389
14924WAT     H145014   0.746   4.298   1.338
14924WAT     H245015   0.601   4.240   1.384
14925WAT      O45016   1.925   9.323   1.406
14925WAT     H145017   2.001   9.346   1.466
14925WAT     H245018   1.880   9.407   1.376
14926WAT      O45019   1.347   3.701   7.423
14926WAT     H145020   1.372   3.613   7.384
14926WAT     H245021   1.254   3.696   7.460
14927WAT      O45022   7.319   5.078   2.564
14927WAT     H145023   7.324   5.013   2.641
14927WAT     H245024   7.365   5.038   2.485
14928WAT      O45025   1.204   1.530   8.480
14928WAT     H145026   1.158   1.609   8.441
14928WAT     H245027   1.258   1.484   8.409
14929WAT      O45028   4.726   9.575   3.745
14929WAT     H145029   4.654   9.555   3.812
14929WAT     H245030   4.710   9.666   3.706
14930WAT      O45031   1.412   7.858   5.831
14930WAT     H145032   1.368   7.928   5.887
14930WAT     H245033   1.474   7.901   5.766
14931WAT      O45034   1.463   4.925   4.332
14931WAT     H145035   1.410   5.007   4.355
14931WAT     H245036   1.429   4.847   4.386
14932WAT      O45037   2.240   8.555   9.270
14932WAT     H145038   2.156   8.599   9.301
14932WAT     H245039   2.253   8.470   9.321
14933WAT      O45040   6.893   8.596   1.324
14933WAT     H145041   6.817   8.607   1.389
14933WAT     H245042   6.915   8.685   1.285
14934WAT      O45043   1.998   9.678   8.177
14934WAT     H145044   2.091   9.676   8.142
14934WAT     H245045   1.996   9.724   8.266
14935WAT      O45046   6.055   8.375   5.854
14935WAT     H145047   6.092   8.293   5.899
14935WAT     H245048   6.121   8.450   5.862
14936WAT      O45049   0.514   2.992   2.975
14936WAT     H145050   0.500   2.975   2.877
14936WAT     H245051   0.475   3.081   2.999
14937WAT      O45052   7.197   2.972   7.557
14937WAT     H145053   7.139   3.019   7.625
14937WAT     H245054   7.264   3.036   7.521
14938WAT      O45055   7.732   3.695   1.111
14938WAT     H145056   7.691   3.612   1.149
14938WAT     H245057   7.697   3.710   1.019
14939WAT      O45058   1.600   0.968   3.688
14939WAT     H145059   1.511   1.013   3.679
14939WAT     H245060   1.673   1.034   3.668
14940WAT      O45061   0.409   5.870   5.904
14940WAT     H145062   0.332   5.888   5.966
14940WAT     H245063   0.445   5.779   5.921
14941WAT      O45064   6.910   0.157   0.093
14941WAT     H145065   6.986   0.210   0.056
14941WAT     H245066   6.946   0.087   0.155
14942WAT      O45067   3.811   7.341   9.014
14942WAT     H145068   3.723   7.368   8.976
14942WAT     H245069   3.885   7.388   8.965
14943WAT      O45070   4.386   6.737   9.056
14943WAT     H145071   4.298   6.753   9.011
14943WAT     H245072   4.431   6.825   9.070
14944WAT      O45073   6.367   7.463   7.209
14944WAT     H145074   6.412   7.550   7.189
14944WAT     H245075   6.315   7.433   7.129
14945WAT      O45076   3.957   8.190   8.034
14945WAT     H145077   3.969   8.112   7.973
14945WAT     H245078   3.960   8.275   7.982
14946WAT      O45079   7.774   8.983   4.730
14946WAT     H145080   7.732   9.074   4.733
14946WAT     H245081   7.705   8.914   4.753
14947WAT      O45082   2.578   9.328   9.744
14947WAT     H145083   2.568   9.426   9.733
14947WAT     H245084   2.674   9.302   9.733
14948WAT      O45085   7.225   1.943   7.528
14948WAT     H145086   7.169   1.934   7.446
14948WAT     H245087   7.254   2.039   7.537
14949WAT      O45088   0.809   6.189   6.431
14949WAT     H145089   0.742   6.158   6.498
14949WAT     H245090   0.826   6.287   6.443
14950WAT      O45091   2.716   5.769   2.057
14950WAT     H145092   2.689   5.841   2.121
14950WAT     H245093   2.800   5.726   2.090
14951WAT      O45094   3.191   8.616   2.441
14951WAT     H145095   3.170   8.700   2.492
14951WAT     H245096   3.278   8.627   2.393
14952WAT      O45097   1.600   3.777   9.777
14952WAT     H145098   1.652   3.753   9.695
14952WAT     H245099   1.647   3.850   9.826
14953WAT      O45100   3.308   1.754   0.779
14953WAT     H145101   3.297   1.657   0.757
14953WAT     H245102   3.229   1.805   0.746
14954WAT      O45103   5.514   3.226   9.826
14954WAT     H145104   5.459   3.232   9.742
14954WAT     H245105   5.460   3.181   9.897
14955WAT      O45106   8.500   7.732   3.668
14955WAT     H145107   8.481   7.643   3.709
14955WAT     H245108   8.485   7.727   3.569
14956WAT      O45109   5.252   1.045   0.132
14956WAT     H145110   5.192   0.973   0.166
14956WAT     H245111   5.200   1.130   0.124
14957WAT      O45112   8.334   4.153   6.167
14957WAT     H145113   8.319   4.056   6.149
14957WAT     H245114   8.326   4.170   6.266
14958WAT      O45115   1.706   1.062   7.601
14958WAT     H145116   1.720   1.091   7.696
14958WAT     H245117   1.699   0.963   7.596
14959WAT      O45118   3.865   8.543   6.659
14959WAT     H145119   3.882   8.445   6.647
14959WAT     H245120   3.951   8.589   6.682
14960WAT      O45121   2.135   5.280   8.738
14960WAT     H145122   2.200   5.239   8.802
14960WAT     H245123   2.126   5.221   8.658
14961WAT      O45124   7.909   5.818   4.176
14961WAT     H145125   7.886   5.897   4.233
14961WAT     H245126   7.857   5.738   4.208
14962WAT      O45127   9.673   4.839   6.715
14962WAT     H145128   9.583   4.834   6.758
14962WAT     H245129   9.737   4.780   6.765
14963WAT      O45130   1.842   3.419   0.675
14963WAT     H145131   1.876   3.328   0.697
14963WAT     H245132   1.865   3.482   0.749
14964WAT      O45133   6.700   7.786   5.417
14964WAT     H145134   6.651   7.723   5.358
14964WAT     H245135   6.749   7.853   5.361
14965WAT      O45136   5.607   6.860   8.664
14965WAT     H145137   5.518   6.831   8.697
14965WAT     H245138   5.618   6.835   8.568
14966WAT      O45139   0.574   0.014   5.454
14966WAT     H145140   0.540   0.106   5.437
14966WAT     H245141   0.611  -0.024   5.369
14967WAT      O45142   4.883   7.743   9.409
14967WAT     H145143   4.814   7.793   9.357
14967WAT     H245144   4.855   7.647   9.416
14968WAT      O45145   9.814   0.057   3.514
14968WAT     H145146   9.871  -0.024   3.524
14968WAT     H245147   9.780   0.063   3.420
14969WAT      O45148   8.011   2.316   9.816
14969WAT     H145149   8.076   2.241   9.806
14969WAT     H245150   7.939   2.290   9.881
14970WAT      O45151   0.305   1.944   2.023
14970WAT     H145152   0.374   2.007   2.060
14970WAT     H245153   0.218   1.959   2.071
14971WAT      O45154   6.136   6.628   4.584
14971WAT     H145155   6.092   6.705   4.630
14971WAT     H245156   6.222   6.658   4.543
14972WAT      O45157   2.944   8.582   7.651
14972WAT     H145158   2.852   8.602   7.619
14972WAT     H245159   3.005   8.657   7.627
14973WAT      O45160   5.113   4.999   8.200
14973WAT     H145161   5.067   4.936   8.137
14973WAT     H245162   5.158   5.071   8.148
14974WAT      O45163   8.964   2.786   2.641
14974WAT     H145164   8.913   2.701   2.651
14974WAT     H245165   8.958   2.838   2.726
14975WAT      O45166   1.365   6.632   3.445
14975WAT     H145167   1.462   6.616   3.425
14975WAT     H245168   1.311   6.622   3.361
14976WAT      O45169   6.204   4.054   8.471
14976WAT     H145170   6.176   4.009   8.556
14976WAT     H245171   6.164   4.145   8.467
14977WAT      O45172   4.938   2.528   1.706
14977WAT     H145173   4.952   2.579   1.621
14977WAT     H245174   4.956   2.431   1.689
14978WAT      O45175   8.337   1.784   6.588
14978WAT     H145176   8.301   1.776   6.681
14978WAT     H245177   8.388   1.701   6.564
14979WAT      O45178   4.395   8.183   7.542
14979WAT     H145179   4.478   8.202   7.490
14979WAT     H245180   4.368   8.264   7.594
14980WAT      O45181   5.467   7.579   7.040
14980WAT     H145182   5.562   7.610   7.033
14980WAT     H245183   5.466   7.486   7.077
14981WAT      O45184   2.765   0.391   0.530
14981WAT     H145185   2.793   0.366   0.437
14981WAT     H245186   2.796   0.484   0.550
14982WAT      O45187   1.545   9.389   1.699
14982WAT     H145188   1.565   9.325   1.624
14982WAT     H245189   1.607   9.467   1.693
14983WAT      O45190   0.173   3.031   3.001
14983WAT     H145191   0.173   2.944   3.050
14983WAT     H245192   0.237   3.094   3.045
14984WAT      O45193   9.358   7.225   0.581
14984WAT     H145194   9.310   7.309   0.604
14984WAT     H245195   9.293   7.149   0.579
14985WAT      O45196   4.613   5.945   5.645
14985WAT     H145197   4.618   5.920   5.742
14985WAT     H245198   4.687   5.900   5.595
14986WAT      O45199   7.232   4.882   2.315
14986WAT     H145200   7.235   4.833   2.228
14986WAT     H245201   7.142   4.873   2.356
14987WAT      O45202   5.325   5.765   5.999
14987WAT     H145203   5.313   5.763   5.900
14987WAT     H245204   5.345   5.672   6.031
14988WAT      O45205   9.104   8.941   0.546
14988WAT     H145206   9.131   8.934   0.450
14988WAT     H245207   9.171   8.895   0.604
14989WAT      O45208   7.905   4.075   1.002
14989WAT     H145209   7.896   4.175   0.998
14989WAT     H245210   7.959   4.043   0.924
14990WAT      O45211   9.775   4.736   6.962
14990WAT     H145212   9.785   4.773   7.054
14990WAT     H245213   9.734   4.645   6.966
14991WAT      O45214   3.612   0.156   4.599
14991WAT     H145215   3.550   0.097   4.547
14991WAT     H245216   3.581   0.162   4.694
14992WAT      O45217   0.773   1.234   5.772
14992WAT     H145218   0.699   1.266   5.831
14992WAT     H245219   0.841   1.306   5.761
14993WAT      O45220   8.527   7.875   6.188
14993WAT     H145221   8.475   7.828   6.258
14993WAT     H245222   8.474   7.879   6.103
14994WAT      O45223   1.349   0.991   7.641
14994WAT     H145224   1.367   0.942   7.555
14994WAT     H245225   1.273   0.948   7.688
14995WAT      O45226   3.083   0.870   0.975
14995WAT     H145227   3.049   0.914   0.891
14995WAT     H245228   3.011   0.871   1.044
14996WAT      O45229   5.251   0.409   0.376
14996WAT     H145230   5.221   0.326   0.422
14996WAT     H245231   5.214   0.489   0.424
14997WAT      O45232   6.231   1.613   5.570
14997WAT     H145233   6.186   1.577   5.488
14997WAT     H245234   6.317   1.657   5.544
14998WAT      O45235   4.764   2.072   3.059
14998WAT     H145236   4.831   2.028   3.000
14998WAT     H245237   4.732   2.008   3.128
14999WAT      O45238   0.972   0.846   4.887
14999WAT     H145239   0.939   0.874   4.797
14999WAT     H245240   0.951   0.749   4.902
15000WAT      O45241   6.521   8.985   5.063
15000WAT     H145242   6.439   9.026   5.021
15000WAT     H245243   6.563   8.922   4.999
15001WAT      O45244   3.570   0.836   8.687
15001WAT     H145245   3.576   0.854   8.785
15001WAT     H245246   3.480   0.797   8.665
15002WAT      O45247   2.926   6.151   4.627
15002WAT     H145248   2.882   6.062   4.628
15002WAT     H245249   3.016   6.144   4.670
15003WAT      O45250   4.798   8.902   4.052
15003WAT     H145251   4.761   8.840   3.984
15003WAT     H245252   4.771   8.996   4.031
15004WAT      O45253   1.556   5.521   6.765
15004WAT     H145254   1.482   5.480   6.819
15004WAT     H245255   1.563   5.618   6.786
15005WAT      O45256   0.718   7.689   8.706
15005WAT     H145257   0.667   7.619   8.655
15005WAT     H245258   0.663   7.720   8.783
15006WAT      O45259   7.724   4.997   2.459
15006WAT     H145260   7.742   5.025   2.365
15006WAT     H245261   7.626   4.985   2.472
15007WAT      O45262   7.542   3.705   7.475
15007WAT     H145263   7.550   3.698   7.375
15007WAT     H245264   7.479   3.779   7.498
15008WAT      O45265   3.114   7.616   1.953
15008WAT     H145266   3.147   7.542   2.010
15008WAT     H245267   3.159   7.702   1.980
15009WAT      O45268   0.598   4.406   5.534
15009WAT     H145269   0.586   4.448   5.624
15009WAT     H245270   0.679   4.347   5.535
15010WAT      O45271   9.104   2.715   1.312
15010WAT     H145272   9.018   2.728   1.362
15010WAT     H245273   9.141   2.625   1.334
15011WAT      O45274   4.704   1.431   4.529
15011WAT     H145275   4.606   1.413   4.530
15011WAT     H245276   4.721   1.521   4.568
15012WAT      O45277   2.975   1.490   0.743
15012WAT     H145278   2.901   1.550   0.771
15012WAT     H245279   3.042   1.541   0.690
15013WAT      O45280   9.446   5.060   4.624
15013WAT     H145281   9.393   5.125   4.679
15013WAT     H245282   9.541   5.060   4.655
15014WAT      O45283   1.528   2.421   1.499
15014WAT     H145284   1.462   2.362   1.452
15014WAT     H245285   1.480   2.476   1.568
15015WAT      O45286   1.755   8.085   8.598
15015WAT     H145287   1.847   8.056   8.625
15015WAT     H245288   1.721   8.024   8.527
15016WAT      O45289   6.722   4.702   0.400
15016WAT     H145290   6.704   4.686   0.497
15016WAT     H245291   6.798   4.766   0.391
15017WAT      O45292   5.465   5.283   3.055
15017WAT     H145293   5.368   5.295   3.034
15017WAT     H245294   5.474   5.246   3.148
15018WAT      O45295   8.179   9.751   2.664
15018WAT     H145296   8.184   9.692   2.584
15018WAT     H245297   8.098   9.727   2.718
15019WAT      O45298   2.477   9.222   8.370
15019WAT     H145299   2.378   9.215   8.355
15019WAT     H245300   2.516   9.287   8.306
15020WAT      O45301   3.769   1.796   1.272
15020WAT     H145302   3.812   1.885   1.287
15020WAT     H245303   3.722   1.796   1.184
15021WAT      O45304   8.866   2.303   9.515
15021WAT     H145305   8.783   2.288   9.461
15021WAT     H245306   8.882   2.224   9.574
15022WAT      O45307   5.374   3.926   8.757
15022WAT     H145308   5.331   4.001   8.808
15022WAT     H245309   5.309   3.851   8.748
15023WAT      O45310   0.845   7.740   9.057
15023WAT     H145311   0.879   7.834   9.058
15023WAT     H245312   0.867   7.695   9.143
15024WAT      O45313   8.896   7.632   6.542
15024WAT     H145314   8.942   7.547   6.515
15024WAT     H245315   8.809   7.640   6.492
15025WAT      O45316   0.678   1.819   4.667
15025WAT     H145317   0.724   1.892   4.716
15025WAT     H245318   0.649   1.852   4.577
15026WAT      O45319   7.061   2.122   3.001
15026WAT     H145320   7.044   2.032   2.960
15026WAT     H245321   7.147   2.120   3.051
15027WAT      O45322   7.278   3.226   8.557
15027WAT     H145323   7.184   3.214   8.527
15027WAT     H245324   7.280   3.253   8.653
15028WAT      O45325   9.241   6.441   3.302
15028WAT     H145326   9.175   6.514   3.320
15028WAT     H245327   9.197   6.369   3.249
15029WAT      O45328   0.598   3.925   5.347
15029WAT     H145329   0.680   3.867   5.348
15029WAT     H245330   0.597   3.979   5.263
15030WAT      O45331   6.408   1.680   9.806
15030WAT     H145332   6.321   1.718   9.836
15030WAT     H245333   6.428   1.712   9.713
15031WAT      O45334   1.475   0.646   1.988
15031WAT     H145335   1.521   0.604   2.066
15031WAT     H245336   1.378   0.660   2.010
15032WAT      O45337   4.983   2.050   1.838
15032WAT     H145338   5.053   1.978   1.830
15032WAT     H245339   4.894   2.008   1.858
15033WAT      O45340   8.388   2.143   8.294
15033WAT     H145341   8.311   2.206   8.305
15033WAT     H245342   8.469   2.182   8.338
15034WAT      O45343   0.763   2.469   2.110
15034WAT     H145344   0.763   2.456   2.010
15034WAT     H245345   0.717   2.555   2.132
15035WAT      O45346   7.065   9.818   0.754
15035WAT     H145347   7.099   9.786   0.665
15035WAT     H245348   7.078   9.746   0.822
15036WAT      O45349   1.235   3.697   9.203
15036WAT     H145350   1.197   3.657   9.287
15036WAT     H245351   1.165   3.751   9.157
15037WAT      O45352   8.999   0.633   2.589
15037WAT     H145353   9.067   0.641   2.516
15037WAT     H245354   9.002   0.541   2.628
15038WAT      O45355   2.514   6.639   2.090
15038WAT     H145356   2.457   6.596   2.160
15038WAT     H245357   2.610   6.638   2.118
15039WAT      O45358   2.006   3.413   9.561
15039WAT     H145359   1.922   3.388   9.608
15039WAT     H245360   1.984   3.446   9.469
15040WAT      O45361   5.893   1.600   7.365
15040WAT     H145362   5.943   1.514   7.352
15040WAT     H245363   5.959   1.674   7.382
15041WAT      O45364   5.942   0.441   4.306
15041WAT     H145365   5.892   0.401   4.229
15041WAT     H245366   5.928   0.385   4.388
15042WAT      O45367   7.486   3.369   1.467
15042WAT     H145368   7.502   3.402   1.560
15042WAT     H245369   7.394   3.396   1.437
15043WAT      O45370   8.789   3.417   0.423
15043WAT     H145371   8.716   3.411   0.491
15043WAT     H245372   8.759   3.476   0.347
15044WAT      O45373   2.515   1.491   7.273
15044WAT     H145374   2.571   1.470   7.193
15044WAT     H245375   2.444   1.421   7.284
15045WAT      O45376   7.159   3.549   3.282
15045WAT     H145377   7.115   3.570   3.195
15045WAT     H245378   7.257   3.536   3.268
15046WAT      O45379   4.045   0.667   4.023
15046WAT     H145380   3.947   0.649   4.032
15046WAT     H245381   4.094   0.581   4.005
15047WAT      O45382   5.399   5.989   2.760
15047WAT     H145383   5.410   5.949   2.669
15047WAT     H245384   5.325   6.056   2.758
15048WAT      O45385   5.344   7.899   9.009
15048WAT     H145386   5.359   7.997   9.001
15048WAT     H245387   5.251   7.877   8.982
15049WAT      O45388   9.442   2.734   0.972
15049WAT     H145389   9.503   2.664   1.008
15049WAT     H245390   9.359   2.737   1.027
15050WAT      O45391   0.055   6.935   5.019
15050WAT     H145392   0.010   6.881   5.090
15050WAT     H245393   0.073   6.877   4.940
15051WAT      O45394   6.336   1.879   4.036
15051WAT     H145395   6.407   1.944   4.059
15051WAT     H245396   6.301   1.836   4.119
15052WAT      O45397   2.703   2.435   2.811
15052WAT     H145398   2.659   2.520   2.838
15052WAT     H245399   2.789   2.455   2.763
15053WAT      O45400   4.427   6.645   5.572
15053WAT     H145401   4.432   6.712   5.498
15053WAT     H245402   4.440   6.691   5.660
15054WAT      O45403   7.900   1.842   7.898
15054WAT     H145404   7.913   1.878   7.990
15054WAT     H245405   7.806   1.809   7.888
15055WAT      O45406   0.039   8.349   3.910
15055WAT     H145407   0.030   8.286   3.833
15055WAT     H245408   0.095   8.427   3.882
15056WAT      O45409   9.832   5.706   4.205
15056WAT     H145410   9.864   5.712   4.111
15056WAT     H245411   9.767   5.780   4.223
15057WAT      O45412   0.175   9.292   4.561
15057WAT     H145413   0.088   9.317   4.603
15057WAT     H245414   0.206   9.205   4.598
15058WAT      O45415   9.040   1.834   1.357
15058WAT     H145416   9.128   1.788   1.367
15058WAT     H245417   9.043   1.923   1.401
15059WAT      O45418   6.303   0.932   0.563
15059WAT     H145419   6.209   0.911   0.537
15059WAT     H245420   6.366   0.891   0.497
15060WAT      O45421   6.090   2.821   2.685
15060WAT     H145422   6.111   2.919   2.681
15060WAT     H245423   6.046   2.793   2.600
15061WAT      O45424   7.615   6.439   5.623
15061WAT     H145425   7.674   6.370   5.667
15061WAT     H245426   7.663   6.477   5.544
15062WAT      O45427   6.392   8.781   2.841
15062WAT     H145428   6.315   8.720   2.859
15062WAT     H245429   6.437   8.805   2.927
15063WAT      O45430   1.435   8.827   2.744
15063WAT     H145431   1.439   8.911   2.690
15063WAT     H245432   1.363   8.835   2.813
15064WAT      O45433   6.408   4.015   7.257
15064WAT     H145434   6.395   4.105   7.215
15064WAT     H245435   6.499   4.010   7.297
15065WAT      O45436   1.345   1.190   0.735
15065WAT     H145437   1.392   1.225   0.654
15065WAT     H245438   1.305   1.101   0.716
15066WAT      O45439   6.843   1.829   2.302
15066WAT     H145440   6.846   1.912   2.246
15066WAT     H245441   6.913   1.835   2.373
15067WAT      O45442   2.620   1.475   0.107
15067WAT     H145443   2.587   1.435   0.021
15067WAT     H245444   2.630   1.574   0.096
15068WAT      O45445   1.251   3.777   9.533
15068WAT     H145446   1.242   3.684   9.497
15068WAT     H245447   1.273   3.840   9.459
15069WAT      O45448   1.201   6.214   5.114
15069WAT     H145449   1.186   6.234   5.211
15069WAT     H245450   1.299   6.209   5.096
15070WAT      O45451   1.456   5.807   6.460
15070WAT     H145452   1.415   5.748   6.529
15070WAT     H245453   1.392   5.819   6.384
15071WAT      O45454   3.012   4.417   9.007
15071WAT     H145455   3.020   4.512   8.977
15071WAT     H245456   2.929   4.408   9.063
15072WAT      O45457   9.242   3.266   9.406
15072WAT     H145458   9.288   3.254   9.494
15072WAT     H245459   9.227   3.177   9.364
15073WAT      O45460   2.297   6.813   0.899
15073WAT     H145461   2.293   6.892   0.838
15073WAT     H245462   2.350   6.837   0.980
15074WAT      O45463   2.138   4.103   4.403
15074WAT     H145464   2.190   4.178   4.363
15074WAT     H245465   2.195   4.021   4.406
15075WAT      O45466   7.800   4.826   6.878
15075WAT     H145467   7.890   4.815   6.920
15075WAT     H245468   7.743   4.883   6.937
15076WAT      O45469   1.040   5.180   0.430
15076WAT     H145470   0.976   5.233   0.485
15076WAT     H245471   1.044   5.086   0.465
15077WAT      O45472   6.113   3.638   1.684
15077WAT     H145473   6.105   3.727   1.639
15077WAT     H245474   6.193   3.639   1.745
15078WAT      O45475   6.462   2.510   6.812
15078WAT     H145476   6.421   2.435   6.864
15078WAT     H245477   6.390   2.558   6.762
15079WAT      O45478   6.359   0.859   5.507
15079WAT     H145479   6.329   0.813   5.424
15079WAT     H245480   6.354   0.795   5.584
15080WAT      O45481   9.088   5.423   3.789
15080WAT     H145482   9.125   5.423   3.881
15080WAT     H245483   9.000   5.376   3.788
15081WAT      O45484   4.959   7.766   8.169
15081WAT     H145485   4.996   7.828   8.238
15081WAT     H245486   4.964   7.810   8.079
15082WAT      O45487   8.548   0.648   9.258
15082WAT     H145488   8.573   0.552   9.246
15082WAT     H245489   8.493   0.658   9.341
15083WAT      O45490   3.489   4.777   7.595
15083WAT     H145491   3.535   4.708   7.651
15083WAT     H245492   3.456   4.735   7.510
15084WAT      O45493   1.217   1.472   0.281
15084WAT     H145494   1.166   1.545   0.326
15084WAT     H245495   1.153   1.403   0.248
15085WAT      O45496   7.402   3.930   7.469
15085WAT     H145497   7.345   3.968   7.396
15085WAT     H245498   7.350   3.928   7.554
15086WAT      O45499   2.492   7.683   3.555
15086WAT     H145500   2.499   7.760   3.619
15086WAT     H245501   2.565   7.617   3.574
15087WAT      O45502   8.323   8.857   9.220
15087WAT     H145503   8.250   8.865   9.152
15087WAT     H245504   8.396   8.801   9.183
15088WAT      O45505   7.321   1.388   9.287
15088WAT     H145506   7.301   1.381   9.189
15088WAT     H245507   7.419   1.404   9.300
15089WAT      O45508   4.420   7.285   9.492
15089WAT     H145509   4.417   7.285   9.592
15089WAT     H245510   4.335   7.323   9.456
15090WAT      O45511   4.289   6.850   4.721
15090WAT     H145512   4.250   6.791   4.792
15090WAT     H245513   4.216   6.885   4.663
15091WAT      O45514   3.651   1.627   4.710
15091WAT     H145515   3.634   1.539   4.665
15091WAT     H245516   3.743   1.659   4.689
15092WAT      O45517   1.080   4.439   4.235
15092WAT     H145518   1.017   4.422   4.158
15092WAT     H245519   1.027   4.464   4.316
15093WAT      O45520   5.651   4.028   6.061
15093WAT     H145521   5.655   4.041   6.160
15093WAT     H245522   5.560   3.996   6.035
15094WAT      O45523   5.904   6.626   5.138
15094WAT     H145524   5.805   6.640   5.132
15094WAT     H245525   5.948   6.712   5.161
15095WAT      O45526   6.014   8.201   0.400
15095WAT     H145527   5.924   8.184   0.359
15095WAT     H245528   6.073   8.122   0.385
15096WAT      O45529   2.863   1.377   5.474
15096WAT     H145530   2.822   1.447   5.532
15096WAT     H245531   2.963   1.380   5.485
15097WAT      O45532   7.594   3.654   7.200
15097WAT     H145533   7.632   3.733   7.153
15097WAT     H245534   7.661   3.579   7.200
15098WAT      O45535   5.749   0.636   2.557
15098WAT     H145536   5.727   0.732   2.572
15098WAT     H245537   5.728   0.584   2.640
15099WAT      O45538   4.229   7.216   8.924
15099WAT     H145539   4.295   7.273   8.875
15099WAT     H245540   4.235   7.233   9.022
15100WAT      O45541   9.529   1.066   3.286
15100WAT     H145542   9.503   1.103   3.197
15100WAT     H245543   9.621   1.027   3.280
15101WAT      O45544   8.442   7.026   6.874
15101WAT     H145545   8.387   6.982   6.803
15101WAT     H245546   8.538   6.998   6.864
15102WAT      O45547   9.571   6.149   0.910
15102WAT     H145548   9.593   6.246   0.902
15102WAT     H245549   9.551   6.128   1.006
15103WAT      O45550   5.906   4.459   7.823
15103WAT     H145551   5.973   4.401   7.871
15103WAT     H245552   5.926   4.460   7.725
15104WAT      O45553   3.136   1.540   4.028
15104WAT     H145554   3.131   1.534   3.929
15104WAT     H245555   3.045   1.564   4.064
15105WAT      O45556   5.371   5.158   9.209
15105WAT     H145557   5.282   5.204   9.206
15105WAT     H245558   5.415   5.166   9.119
15106WAT      O45559   0.769   7.010   3.215
15106WAT     H145560   0.670   6.997   3.213
15106WAT     H245561   0.804   7.015   3.121
15107WAT      O45562   5.256   0.509   1.589
15107WAT     H145563   5.321   0.441   1.623
15107WAT     H245564   5.292   0.601   1.605
15108WAT      O45565   1.943   7.585   0.819
15108WAT     H145566   1.918   7.497   0.779
15108WAT     H245567   1.869   7.651   0.807
15109WAT      O45568   7.238   9.593   8.252
15109WAT     H145569   7.308   9.539   8.205
15109WAT     H245570   7.269   9.687   8.260
15110WAT      O45571   6.876   0.620   3.939
15110WAT     H145572   6.802   0.577   3.886
15110WAT     H245573   6.921   0.689   3.883
15111WAT      O45574   9.671   8.515   9.284
15111WAT     H145575   9.628   8.515   9.374
15111WAT     H245576   9.691   8.422   9.255
15112WAT      O45577   6.060   6.257   3.620
15112WAT     H145578   6.003   6.194   3.567
15112WAT     H245579   6.086   6.213   3.706
15113WAT      O45580   1.684   8.815   3.767
15113WAT     H145581   1.717   8.839   3.859
15113WAT     H245582   1.632   8.892   3.729
15114WAT      O45583   3.499   4.502   0.234
15114WAT     H145584   3.502   4.588   0.286
15114WAT     H245585   3.538   4.517   0.143
15115WAT      O45586   4.020   8.378   1.742
15115WAT     H145587   4.041   8.468   1.703
15115WAT     H245588   3.932   8.347   1.709
15116WAT      O45589   5.358   6.961   6.722
15116WAT     H145590   5.431   6.967   6.790
15116WAT     H245591   5.321   7.053   6.705
15117WAT      O45592   5.307   1.319   3.912
15117WAT     H145593   5.361   1.240   3.942
15117WAT     H245594   5.329   1.398   3.970
15118WAT      O45595   9.053   2.266   3.717
15118WAT     H145596   9.042   2.264   3.618
15118WAT     H245597   9.149   2.284   3.740
15119WAT      O45598   5.928   9.845   9.208
15119WAT     H145599   6.027   9.848   9.192
15119WAT     H245600   5.898   9.750   9.211
15120WAT      O45601   6.597   1.004   9.268
15120WAT     H145602   6.648   0.926   9.231
15120WAT     H245603   6.619   1.086   9.216
15121WAT      O45604   6.249   5.844   7.289
15121WAT     H145605   6.200   5.759   7.310
15121WAT     H245606   6.250   5.902   7.370
15122WAT      O45607   7.568   0.332   4.485
15122WAT     H145608   7.584   0.365   4.578
15122WAT     H245609   7.519   0.402   4.432
15123WAT      O45610   8.309   2.700   0.940
15123WAT     H145611   8.395   2.751   0.940
15123WAT     H245612   8.329   2.602   0.944
15124WAT      O45613   8.926   1.509   4.164
15124WAT     H145614   8.859   1.530   4.093
15124WAT     H245615   8.948   1.593   4.214
15125WAT      O45616   6.640   7.456   1.518
15125WAT     H145617   6.734   7.452   1.552
15125WAT     H245618   6.601   7.545   1.538
15126WAT      O45619   7.540   3.990   0.284
15126WAT     H145620   7.498   3.943   0.207
15126WAT     H245621   7.632   3.954   0.299
15127WAT      O45622   6.419   3.886   3.217
15127WAT     H145623   6.439   3.911   3.122
15127WAT     H245624   6.479   3.811   3.244
15128WAT      O45625   0.518   5.645   2.984
15128WAT     H145626   0.573   5.656   3.067
15128WAT     H245627   0.501   5.548   2.968
15129WAT      O45628   8.552   0.254   4.496
15129WAT     H145629   8.470   0.290   4.542
15129WAT     H245630   8.604   0.330   4.457
15130WAT      O45631   0.013   9.528   4.164
15130WAT     H145632  -0.008   9.494   4.073
15130WAT     H245633  -0.070   9.528   4.220
15131WAT      O45634   7.080   4.136   9.638
15131WAT     H145635   7.117   4.119   9.729
15131WAT     H245636   7.069   4.234   9.624
15132WAT      O45637   7.660   4.291   9.011
15132WAT     H145638   7.757   4.313   9.006
15132WAT     H245639   7.638   4.256   9.102
15133WAT      O45640   9.649   5.241   3.684
15133WAT     H145641   9.682   5.206   3.771
15133WAT     H245642   9.553   5.215   3.672
15134WAT      O45643   1.772   7.362   2.552
15134WAT     H145644   1.769   7.460   2.575
15134WAT     H245645   1.867   7.335   2.534
15135WAT      O45646   8.633   1.325   8.132
15135WAT     H145647   8.684   1.253   8.178
15135WAT     H245648   8.694   1.376   8.071
15136WAT      O45649   6.327   6.880   0.798
15136WAT     H145650   6.332   6.815   0.873
15136WAT     H245651   6.301   6.832   0.714
15137WAT      O45652   6.826   5.503   0.844
15137WAT     H145653   6.917   5.536   0.870
15137WAT     H245654   6.827   5.480   0.746
15138WAT      O45655   4.048   4.942   8.149
15138WAT     H145656   4.063   4.846   8.174
15138WAT     H245657   4.128   4.976   8.099
15139WAT      O45658   2.991   7.425   4.813
15139WAT     H145659   3.002   7.371   4.897
15139WAT     H245660   3.070   7.486   4.802
15140WAT      O45661   9.266   8.659   6.868
15140WAT     H145662   9.181   8.646   6.817
15140WAT     H245663   9.308   8.570   6.887
15141WAT      O45664   9.401   0.587   4.758
15141WAT     H145665   9.328   0.637   4.711
15141WAT     H245666   9.399   0.610   4.856
15142WAT      O45667   8.479   7.367   1.080
15142WAT     H145668   8.482   7.462   1.047
15142WAT     H245669   8.403   7.357   1.144
15143WAT      O45670   8.735   7.258   5.864
15143WAT     H145671   8.834   7.253   5.874
15143WAT     H245672   8.693   7.180   5.910
15144WAT      O45673   5.639   0.621   1.354
15144WAT     H145674   5.556   0.632   1.300
15144WAT     H245675   5.710   0.682   1.320
15145WAT      O45676   7.260   8.988   8.164
15145WAT     H145677   7.207   8.942   8.236
15145WAT     H245678   7.273   9.084   8.188
15146WAT      O45679   5.966   9.200   5.586
15146WAT     H145680   5.951   9.176   5.490
15146WAT     H245681   5.879   9.225   5.628
15147WAT      O45682   7.353   5.505   3.683
15147WAT     H145683   7.266   5.471   3.647
15147WAT     H245684   7.357   5.604   3.673
15148WAT      O45685   8.496   7.823   6.989
15148WAT     H145686   8.562   7.837   6.915
15148WAT     H245687   8.462   7.911   7.021
15149WAT      O45688   8.881   0.703   5.965
15149WAT     H145689   8.947   0.774   5.990
15149WAT     H245690   8.927   0.632   5.913
15150WAT      O45691   0.614   1.026   2.582
15150WAT     H145692   0.617   1.113   2.534
15150WAT     H245693   0.548   1.031   2.657
15151WAT      O45694   2.387   0.763   2.392
15151WAT     H145695   2.412   0.671   2.361
15151WAT     H245696   2.470   0.818   2.405
15152WAT      O45697   7.324   6.099   8.188
15152WAT     H145698   7.381   6.166   8.141
15152WAT     H245699   7.367   6.072   8.274
15153WAT      O45700   0.018   1.236   6.160
15153WAT     H145701   0.048   1.272   6.249
15153WAT     H245702   0.003   1.312   6.097
15154WAT      O45703   2.354   1.412   1.614
15154WAT     H145704   2.295   1.345   1.569
15154WAT     H245705   2.302   1.496   1.632
15155WAT      O45706   2.357   0.008   2.411
15155WAT     H145707   2.405   0.035   2.327
15155WAT     H245708   2.279   0.069   2.426
15156WAT      O45709   3.286   3.302   8.283
15156WAT     H145710   3.350   3.258   8.221
15156WAT     H245711   3.336   3.361   8.347
15157WAT      O45712   4.730   1.722   0.451
15157WAT     H145713   4.641   1.679   0.433
15157WAT     H245714   4.792   1.653   0.489
15158WAT      O45715   2.452   4.812   3.053
15158WAT     H145716   2.374   4.770   3.006
15158WAT     H245717   2.506   4.864   2.987
15159WAT      O45718   0.158   6.474   6.873
15159WAT     H145719   0.202   6.385   6.878
15159WAT     H245720   0.060   6.462   6.858
15160WAT      O45721   9.744   9.697   7.853
15160WAT     H145722   9.650   9.672   7.877
15160WAT     H245723   9.800   9.614   7.847
15161WAT      O45724   0.411   3.904   3.037
15161WAT     H145725   0.425   4.002   3.051
15161WAT     H245726   0.381   3.887   2.943
15162WAT      O45727   8.551   6.701   7.205
15162WAT     H145728   8.510   6.640   7.136
15162WAT     H245729   8.493   6.703   7.286
15163WAT      O45730   0.222   7.206   2.984
15163WAT     H145731   0.304   7.262   2.992
15163WAT     H245732   0.238   7.131   2.921
15164WAT      O45733   2.769   5.089   1.150
15164WAT     H145734   2.839   5.023   1.176
15164WAT     H245735   2.683   5.065   1.195
15165WAT      O45736   9.260   7.134   6.887
15165WAT     H145737   9.186   7.068   6.897
15165WAT     H245738   9.255   7.200   6.961
15166WAT      O45739   8.812   1.931   1.714
15166WAT     H145740   8.745   1.922   1.639
15166WAT     H245741   8.768   1.906   1.800
15167WAT      O45742   8.737   7.736   2.105
15167WAT     H145743   8.779   7.781   2.183
15167WAT     H245744   8.673   7.666   2.137
15168WAT      O45745   1.980   9.361   5.231
15168WAT     H145746   1.915   9.390   5.301
15168WAT     H245747   1.930   9.328   5.151
15169WAT      O45748   5.948   8.675   2.061
15169WAT     H145749   6.031   8.647   2.012
15169WAT     H245750   5.914   8.599   2.116
15170WAT      O45751   1.746   2.976   8.921
15170WAT     H145752   1.693   2.952   8.840
15170WAT     H245753   1.734   3.073   8.942
15171WAT      O45754   1.993   8.176   7.827
15171WAT     H145755   1.983   8.255   7.766
15171WAT     H245756   1.930   8.104   7.797
15172WAT      O45757   3.864   1.144   7.507
15172WAT     H145758   3.900   1.165   7.416
15172WAT     H245759   3.871   1.226   7.564
15173WAT      O45760   6.643   6.266   2.798
15173WAT     H145761   6.569   6.286   2.863
15173WAT     H245762   6.677   6.352   2.760
15174WAT      O45763   2.987   5.548   7.030
15174WAT     H145764   2.938   5.461   7.021
15174WAT     H245765   2.940   5.606   7.096
15175WAT      O45766   1.518   1.346   0.589
15175WAT     H145767   1.562   1.388   0.668
15175WAT     H245768   1.585   1.332   0.517
15176WAT      O45769   7.043   6.017   0.952
15176WAT     H145770   7.069   6.086   0.884
15176WAT     H245771   6.944   6.006   0.951
15177WAT      O45772   8.152   2.358   1.996
15177WAT     H145773   8.108   2.270   2.011
15177WAT     H245774   8.202   2.356   1.909
15178WAT      O45775   2.320   8.753   4.905
15178WAT     H145776   2.289   8.805   4.984
15178WAT     H245777   2.355   8.664   4.935
15179WAT      O45778   1.579   3.517   1.825
15179WAT     H145779   1.516   3.586   1.862
15179WAT     H245780   1.599   3.449   1.895
15180WAT      O45781   8.165   5.561   3.629
15180WAT     H145782   8.089   5.624   3.619
15180WAT     H245783   8.172   5.531   3.724
15181WAT      O45784   0.314   5.234   0.432
15181WAT     H145785   0.299   5.331   0.410
15181WAT     H245786   0.364   5.190   0.358
15182WAT      O45787   7.699   6.254   9.089
15182WAT     H145788   7.742   6.335   9.128
15182WAT     H245789   7.699   6.261   8.989
15183WAT      O45790   7.716   9.240   5.290
15183WAT     H145791   7.718   9.140   5.289
15183WAT     H245792   7.633   9.272   5.335
15184WAT      O45793   1.807   7.804   8.483
15184WAT     H145794   1.812   7.768   8.577
15184WAT     H245795   1.793   7.728   8.419
15185WAT      O45796   6.171   9.575   9.588
15185WAT     H145797   6.259   9.550   9.549
15185WAT     H245798   6.099   9.521   9.545
15186WAT      O45799   2.593   3.216   0.791
15186WAT     H145800   2.613   3.274   0.870
15186WAT     H245801   2.547   3.270   0.720
15187WAT      O45802   5.612   3.112   8.765
15187WAT     H145803   5.576   3.140   8.853
15187WAT     H245804   5.603   3.187   8.699
15188WAT      O45805   6.656   0.588   4.541
15188WAT     H145806   6.572   0.604   4.594
15188WAT     H245807   6.707   0.674   4.534
15189WAT      O45808   1.978   8.169   8.103
15189WAT     H145809   1.989   8.150   8.005
15189WAT     H245810   1.966   8.083   8.152
15190WAT      O45811   0.960   6.477   1.031
15190WAT     H145812   0.881   6.537   1.021
15190WAT     H245813   0.932   6.392   1.076
15191WAT      O45814   2.883   4.828   5.736
15191WAT     H145815   2.913   4.734   5.719
15191WAT     H245816   2.844   4.835   5.828
15192WAT      O45817   2.901   6.817   9.260
15192WAT     H145818   2.947   6.810   9.171
15192WAT     H245819   2.945   6.889   9.314
15193WAT      O45820   3.730   0.997   3.526
15193WAT     H145821   3.745   0.974   3.429
15193WAT     H245822   3.773   0.928   3.583
15194WAT      O45823   1.570   0.820   6.307
15194WAT     H145824   1.480   0.778   6.313
15194WAT     H245825   1.579   0.868   6.220
15195WAT      O45826   3.949   8.108   5.956
15195WAT     H145827   3.920   8.156   6.038
15195WAT     H245828   4.038   8.142   5.926
15196WAT      O45829   5.967   4.260   3.790
15196WAT     H145830   5.996   4.347   3.751
15196WAT     H245831   6.046   4.213   3.830
15197WAT      O45832   1.755   8.472   3.182
15197WAT     H145833   1.835   8.412   3.177
15197WAT     H245834   1.694   8.452   3.106
15198WAT      O45835   2.310   4.034   1.459
15198WAT     H145836   2.367   4.069   1.534
15198WAT     H245837   2.290   4.108   1.395
15199WAT      O45838   4.916   8.893   1.805
15199WAT     H145839   4.962   8.898   1.894
15199WAT     H245840   4.983   8.889   1.732
15200WAT      O45841   9.189   2.835   8.090
15200WAT     H145842   9.264   2.770   8.085
15200WAT     H245843   9.151   2.850   7.999
15201WAT      O45844   1.881   8.744   0.421
15201WAT     H145845   1.926   8.747   0.510
15201WAT     H245846   1.826   8.827   0.410
15202WAT      O45847   9.773   0.117   7.550
15202WAT     H145848   9.753   0.095   7.455
15202WAT     H245849   9.865   0.085   7.573
15203WAT      O45850   7.400   7.665   4.609
15203WAT     H145851   7.364   7.726   4.537
15203WAT     H245852   7.422   7.719   4.690
15204WAT      O45853   2.152   7.700   1.911
15204WAT     H145854   2.196   7.781   1.872
15204WAT     H245855   2.221   7.642   1.954
15205WAT      O45856   6.761   6.817   6.979
15205WAT     H145857   6.693   6.765   6.927
15205WAT     H245858   6.754   6.793   7.076
15206WAT      O45859   2.582   8.090   1.523
15206WAT     H145860   2.631   8.110   1.608
15206WAT     H245861   2.575   8.174   1.468
15207WAT      O45862   6.793   3.196   1.162
15207WAT     H145863   6.807   3.206   1.063
15207WAT     H245864   6.712   3.141   1.179
15208WAT      O45865   4.762   8.080   1.357
15208WAT     H145866   4.747   8.160   1.415
15208WAT     H245867   4.833   8.022   1.398
15209WAT      O45868   2.125   5.364   9.775
15209WAT     H145869   2.109   5.463   9.764
15209WAT     H245870   2.170   5.328   9.693
15210WAT      O45871   8.991   9.185   3.641
15210WAT     H145872   8.979   9.258   3.708
15210WAT     H245873   8.923   9.194   3.569
15211WAT      O45874   0.649   1.763   9.727
15211WAT     H145875   0.550   1.756   9.742
15211WAT     H245876   0.697   1.724   9.806
15212WAT      O45877   9.062   5.440   8.208
15212WAT     H145878   9.152   5.403   8.231
15212WAT     H245879   9.004   5.367   8.172
15213WAT      O45880   6.376   9.191   7.305
15213WAT     H145881   6.386   9.092   7.307
15213WAT     H245882   6.422   9.228   7.224
15214WAT      O45883   6.570   4.041   2.917
15214WAT     H145884   6.609   4.003   3.001
15214WAT     H245885   6.568   3.969   2.847
15215WAT      O45886   6.259   7.254   7.829
15215WAT     H145887   6.247   7.344   7.872
15215WAT     H245888   6.344   7.213   7.861
15216WAT      O45889   9.676   5.442   8.521
15216WAT     H145890   9.678   5.535   8.485
15216WAT     H245891   9.709   5.442   8.616
15217WAT      O45892   1.763   3.569   8.780
15217WAT     H145893   1.685   3.615   8.821
15217WAT     H245894   1.825   3.537   8.852
15218WAT      O45895   7.597   7.189   2.136
15218WAT     H145896   7.681   7.175   2.187
15218WAT     H245897   7.616   7.242   2.053
15219WAT      O45898   7.044   3.245   0.569
15219WAT     H145899   7.141   3.250   0.546
15219WAT     H245900   7.019   3.151   0.592
15220WAT      O45901   0.699   3.088   0.412
15220WAT     H145902   0.733   3.164   0.357
15220WAT     H245903   0.634   3.123   0.480
15221WAT      O45904   9.664   6.358   3.559
15221WAT     H145905   9.685   6.405   3.644
15221WAT     H245906   9.567   6.371   3.537
15222WAT      O45907   3.606   5.238   9.580
15222WAT     H145908   3.599   5.150   9.628
15222WAT     H245909   3.534   5.243   9.510
15223WAT      O45910   1.988   5.569   6.445
15223WAT     H145911   1.901   5.582   6.492
15223WAT     H245912   2.040   5.497   6.491
15224WAT      O45913   1.192   4.297   0.217
15224WAT     H145914   1.236   4.214   0.183
15224WAT     H245915   1.261   4.364   0.240
15225WAT      O45916   6.257   8.858   4.284
15225WAT     H145917   6.355   8.862   4.262
15225WAT     H245918   6.223   8.766   4.270
15226WAT      O45919   9.722   1.799   3.128
15226WAT     H145920   9.822   1.795   3.123
15226WAT     H245921   9.694   1.885   3.171
15227WAT      O45922   5.765   8.508   2.568
15227WAT     H145923   5.673   8.471   2.561
15227WAT     H245924   5.810   8.504   2.479
15228WAT      O45925   1.006   4.845   2.901
15228WAT     H145926   1.088   4.798   2.869
15228WAT     H245927   1.029   4.897   2.984
15229WAT      O45928   7.943   7.414   2.315
15229WAT     H145929   7.968   7.419   2.218
15229WAT     H245930   8.010   7.464   2.370
15230WAT      O45931   9.187   0.708   7.215
15230WAT     H145932   9.203   0.613   7.191
15230WAT     H245933   9.140   0.713   7.303
15231WAT      O45934   9.766   4.372   0.829
15231WAT     H145935   9.810   4.441   0.887
15231WAT     H245936   9.667   4.372   0.847
15232WAT      O45937   7.501   3.065   4.214
15232WAT     H145938   7.592   3.105   4.224
15232WAT     H245939   7.464   3.090   4.124
15233WAT      O45940   1.001   1.084   2.628
15233WAT     H145941   1.073   1.028   2.669
15233WAT     H245942   0.951   1.029   2.561
15234WAT      O45943   0.371   7.845   4.231
15234WAT     H145944   0.469   7.832   4.242
15234WAT     H245945   0.328   7.756   4.216
15235WAT      O45946   6.574   0.152   8.360
15235WAT     H145947   6.512   0.075   8.373
15235WAT     H245948   6.667   0.118   8.346
15236WAT      O45949   4.460   3.535   8.697
15236WAT     H145950   4.393   3.608   8.709
15236WAT     H245951   4.421   3.463   8.639
15237WAT      O45952   2.980   7.584   0.273
15237WAT     H145953   2.957   7.681   0.265
15237WAT     H245954   2.951   7.536   0.190
15238WAT      O45955   0.692   2.643   6.674
15238WAT     H145956   0.659   2.659   6.768
15238WAT     H245957   0.730   2.551   6.668
15239WAT      O45958   8.869   6.435   5.663
15239WAT     H145959   8.843   6.434   5.566
15239WAT     H245960   8.796   6.477   5.716
15240WAT      O45961   5.696   5.665   7.954
15240WAT     H145962   5.713   5.569   7.977
15240WAT     H245963   5.766   5.722   7.997
15241WAT      O45964   6.630   2.071   3.743
15241WAT     H145965   6.563   2.127   3.793
15241WAT     H245966   6.582   1.996   3.698
15242WAT      O45967   8.988   2.550   5.002
15242WAT     H145968   8.969   2.467   4.948
15242WAT     H245969   8.903   2.601   5.016
15243WAT      O45970   4.307   3.232   2.029
15243WAT     H145971   4.390   3.284   2.012
15243WAT     H245972   4.327   3.157   2.092
15244WAT      O45973   6.547   7.468   3.833
15244WAT     H145974   6.464   7.412   3.846
15244WAT     H245975   6.624   7.421   3.876
15245WAT      O45976   7.948   8.455   0.814
15245WAT     H145977   8.016   8.509   0.864
15245WAT     H245978   7.871   8.434   0.874
15246WAT      O45979   7.231   8.857   3.561
15246WAT     H145980   7.246   8.915   3.641
15246WAT     H245981   7.319   8.833   3.520
15247WAT      O45982   4.126   7.465   5.392
15247WAT     H145983   4.110   7.544   5.452
15247WAT     H245984   4.181   7.397   5.441
15248WAT      O45985   3.079   8.262   0.851
15248WAT     H145986   3.173   8.299   0.849
15248WAT     H245987   3.018   8.323   0.800
15249WAT      O45988   4.711   1.421   8.578
15249WAT     H145989   4.780   1.349   8.574
15249WAT     H245990   4.634   1.396   8.519
15250WAT      O45991   1.875   6.472   4.369
15250WAT     H145992   1.859   6.469   4.468
15250WAT     H245993   1.916   6.561   4.345
15251WAT      O45994   7.822   1.331   2.984
15251WAT     H145995   7.754   1.318   2.913
15251WAT     H245996   7.783   1.385   3.058
15252WAT      O45997   7.942   4.068   0.032
15252WAT     H145998   7.886   4.000  -0.014
15252WAT     H245999   8.026   4.084  -0.020
15253WAT      O46000   0.902   9.296   9.048
15253WAT     H146001   0.892   9.395   9.063
15253WAT     H246002   0.967   9.259   9.114
15254WAT      O46003   8.763   0.239   4.689
15254WAT     H146004   8.808   0.324   4.660
15254WAT     H246005   8.671   0.235   4.649
15255WAT      O46006   5.671   0.384   6.509
15255WAT     H146007   5.760   0.414   6.543
15255WAT     H246008   5.652   0.428   6.421
15256WAT      O46009   0.965   9.225   3.780
15256WAT     H146010   0.868   9.205   3.797
15256WAT     H246011   1.002   9.158   3.716
15257WAT      O46012   8.494   9.783   1.045
15257WAT     H146013   8.580   9.749   1.083
15257WAT     H246014   8.451   9.712   0.989
15258WAT      O46015   0.894   1.835   2.597
15258WAT     H146016   0.958   1.808   2.525
15258WAT     H246017   0.838   1.757   2.622
15259WAT      O46018   2.621   3.316   5.197
15259WAT     H146019   2.524   3.293   5.202
15259WAT     H246020   2.645   3.377   5.273
15260WAT      O46021   1.028   1.999   5.825
15260WAT     H146022   0.946   2.023   5.875
15260WAT     H246023   1.069   2.082   5.787
15261WAT      O46024   1.730   3.750   0.292
15261WAT     H146025   1.729   3.694   0.375
15261WAT     H246026   1.813   3.731   0.240
15262WAT      O46027   6.121   9.093   8.165
15262WAT     H146028   6.131   8.995   8.177
15262WAT     H246029   6.024   9.117   8.162
15263WAT      O46030   6.208   6.619   6.200
15263WAT     H146031   6.185   6.582   6.290
15263WAT     H246032   6.307   6.619   6.188
15264WAT      O46033   7.340   1.546   0.403
15264WAT     H146034   7.401   1.522   0.478
15264WAT     H246035   7.323   1.645   0.404
15265WAT      O46036   1.193   6.148   2.937
15265WAT     H146037   1.130   6.081   2.977
15265WAT     H246038   1.142   6.212   2.880
15266WAT      O46039   3.520   1.912   3.614
15266WAT     H146040   3.539   1.968   3.533
15266WAT     H246041   3.569   1.950   3.693
15267WAT      O46042   0.573   6.370   7.944
15267WAT     H146043   0.591   6.418   8.030
15267WAT     H246044   0.660   6.354   7.896
15268WAT      O46045   3.520   0.862   8.977
15268WAT     H146046   3.473   0.788   9.026
15268WAT     H246047   3.584   0.907   9.040
15269WAT      O46048   1.239   9.242   6.304
15269WAT     H146049   1.161   9.282   6.353
15269WAT     H246050   1.275   9.309   6.240
15270WAT      O46051   0.300   1.413   4.461
15270WAT     H146052   0.222   1.466   4.429
15270WAT     H246053   0.276   1.316   4.465
15271WAT      O46054   9.438   0.736   6.708
15271WAT     H146055   9.453   0.812   6.644
15271WAT     H246056   9.486   0.755   6.794
15272WAT      O46057   9.623   4.653   5.778
15272WAT     H146058   9.578   4.627   5.693
15272WAT     H246059   9.722   4.645   5.767
15273WAT      O46060   9.011   8.511   9.852
15273WAT     H146061   9.027   8.443   9.781
15273WAT     H246062   9.098   8.549   9.883
15274WAT      O46063   3.533   2.725   1.242
15274WAT     H146064   3.474   2.801   1.267
15274WAT     H246065   3.534   2.658   1.317
15275WAT      O46066   1.597   7.418   9.260
15275WAT     H146067   1.610   7.341   9.322
15275WAT     H246068   1.508   7.460   9.275
15276WAT      O46069   6.315   8.766   8.918
15276WAT     H146070   6.300   8.737   9.013
15276WAT     H246071   6.278   8.697   8.856
15277WAT      O46072   2.435   1.139   3.948
15277WAT     H146073   2.392   1.115   4.036
15277WAT     H246074   2.506   1.072   3.926
15278WAT      O46075   3.399   8.239   3.557
15278WAT     H146076   3.424   8.252   3.461
15278WAT     H246077   3.365   8.325   3.595
15279WAT      O46078   1.384   3.214   5.709
15279WAT     H146079   1.459   3.182   5.768
15279WAT     H246080   1.317   3.141   5.698
15280WAT      O46081   2.619   8.287   4.793
15280WAT     H146082   2.691   8.357   4.794
15280WAT     H246083   2.633   8.223   4.868
15281WAT      O46084   1.737   2.099   7.936
15281WAT     H146085   1.794   2.146   7.869
15281WAT     H246086   1.689   2.167   7.992
15282WAT      O46087   8.464   3.496   0.194
15282WAT     H146088   8.545   3.553   0.208
15282WAT     H246089   8.383   3.545   0.227
15283WAT      O46090   3.851   8.681   0.158
15283WAT     H146091   3.848   8.697   0.059
15283WAT     H246092   3.898   8.596   0.177
15284WAT      O46093   9.146   1.035   3.890
15284WAT     H146094   9.063   0.985   3.915
15284WAT     H246095   9.122   1.126   3.858
15285WAT      O46096   6.226   2.732   4.077
15285WAT     H146097   6.213   2.802   4.007
15285WAT     H246098   6.179   2.648   4.049
15286WAT      O46099   4.027   6.004   2.274
15286WAT     H146100   4.051   6.080   2.213
15286WAT     H246101   3.932   6.014   2.303
15287WAT      O46102   9.463   4.701   1.844
15287WAT     H146103   9.374   4.666   1.817
15287WAT     H246104   9.456   4.800   1.860
15288WAT      O46105   8.368   4.629   4.785
15288WAT     H146106   8.416   4.637   4.872
15288WAT     H246107   8.269   4.628   4.801
15289WAT      O46108   5.468   4.537   8.639
15289WAT     H146109   5.537   4.604   8.610
15289WAT     H246110   5.415   4.507   8.560
15290WAT      O46111   8.678   5.745   1.850
15290WAT     H146112   8.776   5.749   1.829
15290WAT     H246113   8.662   5.790   1.938
15291WAT      O46114   6.753   6.450   0.836
15291WAT     H146115   6.826   6.483   0.896
15291WAT     H246116   6.709   6.529   0.793
15292WAT      O46117   8.855   2.480   6.696
15292WAT     H146118   8.797   2.438   6.766
15292WAT     H246119   8.832   2.442   6.607
15293WAT      O46120   2.118   1.191   4.345
15293WAT     H146121   2.145   1.259   4.413
15293WAT     H246122   2.059   1.123   4.387
15294WAT      O46123   1.667   8.482   3.906
15294WAT     H146124   1.585   8.524   3.867
15294WAT     H246125   1.744   8.496   3.844
15295WAT      O46126   9.571   0.195   0.261
15295WAT     H146127   9.597   0.107   0.221
15295WAT     H246128   9.594   0.269   0.197
15296WAT      O46129   5.294   7.983   1.465
15296WAT     H146130   5.341   7.911   1.413
15296WAT     H246131   5.221   7.943   1.520
15297WAT      O46132   7.813   6.763   5.765
15297WAT     H146133   7.771   6.764   5.674
15297WAT     H246134   7.841   6.855   5.790
15298WAT      O46135   9.527   3.137   3.796
15298WAT     H146136   9.597   3.181   3.739
15298WAT     H246137   9.547   3.155   3.892
15299WAT      O46138   8.680   7.418   4.975
15299WAT     H146139   8.585   7.444   4.963
15299WAT     H246140   8.738   7.474   4.917
15300WAT      O46141   1.667   7.439   2.893
15300WAT     H146142   1.691   7.491   2.810
15300WAT     H246143   1.627   7.352   2.867
15301WAT      O46144   3.975   2.821   5.429
15301WAT     H146145   3.980   2.921   5.426
15301WAT     H246146   4.052   2.786   5.483
15302WAT      O46147   2.350   4.430   6.457
15302WAT     H146148   2.360   4.358   6.526
15302WAT     H246149   2.437   4.445   6.411
15303WAT      O46150   8.378   5.381   1.172
15303WAT     H146151   8.413   5.442   1.243
15303WAT     H246152   8.415   5.290   1.185
15304WAT      O46153   9.541   4.484   3.911
15304WAT     H146154   9.598   4.549   3.960
15304WAT     H246155   9.598   4.429   3.850
15305WAT      O46156   2.813   1.687   0.960
15305WAT     H146157   2.824   1.738   1.045
15305WAT     H246158   2.716   1.671   0.943
15306WAT      O46159   7.676   2.904   0.293
15306WAT     H146160   7.759   2.848   0.291
15306WAT     H246161   7.651   2.931   0.200
15307WAT      O46162   4.576   3.332   4.352
15307WAT     H146163   4.642   3.383   4.297
15307WAT     H246164   4.483   3.360   4.325
15308WAT      O46165   5.891   3.818   1.842
15308WAT     H146166   5.811   3.871   1.870
15308WAT     H246167   5.934   3.861   1.763
15309WAT      O46168   5.963   1.926   5.877
15309WAT     H146169   6.015   1.863   5.820
15309WAT     H246170   5.974   2.019   5.842
15310WAT      O46171   1.309   1.448   8.238
15310WAT     H146172   1.397   1.413   8.268
15310WAT     H246173   1.281   1.400   8.155
15311WAT      O46174   7.954   1.954   5.491
15311WAT     H146175   7.918   1.914   5.575
15311WAT     H246176   7.991   1.881   5.433
15312WAT      O46177   8.105   4.306   0.782
15312WAT     H146178   8.023   4.305   0.840
15312WAT     H246179   8.116   4.397   0.742
15313WAT      O46180   2.813   1.252   6.272
15313WAT     H146181   2.910   1.266   6.289
15313WAT     H246182   2.768   1.340   6.263
15314WAT      O46183   3.312   4.862   0.046
15314WAT     H146184   3.409   4.850   0.023
15314WAT     H246185   3.302   4.943   0.104
15315WAT      O46186   0.385   8.481   2.456
15315WAT     H146187   0.341   8.392   2.444
15315WAT     H246188   0.316   8.553   2.455
15316WAT      O46189   5.562   6.395   9.892
15316WAT     H146190   5.514   6.309   9.876
15316WAT     H246191   5.660   6.378   9.904
15317WAT      O46192   7.219   3.485   1.352
15317WAT     H146193   7.242   3.493   1.255
15317WAT     H246194   7.207   3.388   1.375
15318WAT      O46195   2.968   2.996   2.345
15318WAT     H146196   2.870   3.004   2.366
15318WAT     H246197   3.016   3.075   2.384
15319WAT      O46198   9.846   7.668   7.916
15319WAT     H146199   9.768   7.653   7.855
15319WAT     H246200   9.928   7.628   7.876
15320WAT      O46201   1.810   7.119   6.973
15320WAT     H146202   1.857   7.181   6.910
15320WAT     H246203   1.735   7.074   6.925
15321WAT      O46204   0.991   9.307   8.495
15321WAT     H146205   1.011   9.248   8.417
15321WAT     H246206   1.008   9.258   8.580
15322WAT      O46207   9.449   4.922   3.072
15322WAT     H146208   9.496   4.865   3.004
15322WAT     H246209   9.351   4.921   3.054
15323WAT      O46210   2.983   8.653   1.546
15323WAT     H146211   2.997   8.731   1.485
15323WAT     H246212   2.983   8.568   1.493
15324WAT      O46213   5.495   2.979   0.788
15324WAT     H146214   5.430   2.904   0.773
15324WAT     H246215   5.504   2.996   0.886
15325WAT      O46216   1.099   6.219   0.700
15325WAT     H146217   1.158   6.143   0.673
15325WAT     H246218   1.142   6.269   0.776
15326WAT      O46219   5.087   4.089   0.094
15326WAT     H146220   5.037   4.055   0.174
15326WAT     H246221   5.040   4.059   0.011
15327WAT      O46222   3.158   7.112   8.995
15327WAT     H146223   3.070   7.155   8.976
15327WAT     H246224   3.156   7.017   8.964
15328WAT      O46225   0.254   1.531   6.739
15328WAT     H146226   0.294   1.440   6.736
15328WAT     H246227   0.168   1.528   6.791
15329WAT      O46228   6.834   3.596   1.316
15329WAT     H146229   6.848   3.625   1.411
15329WAT     H246230   6.853   3.498   1.308
15330WAT      O46231   5.582   8.580   9.094
15330WAT     H146232   5.552   8.491   9.126
15330WAT     H246233   5.553   8.593   8.998
15331WAT      O46234   5.635   1.904   0.248
15331WAT     H146235   5.582   1.985   0.273
15331WAT     H246236   5.699   1.882   0.322
15332WAT      O46237   2.189   7.380   1.594
15332WAT     H146238   2.102   7.338   1.570
15332WAT     H246239   2.173   7.467   1.640
15333WAT      O46240   5.841   7.027   2.339
15333WAT     H146241   5.821   6.935   2.371
15333WAT     H246242   5.938   7.047   2.352
15334WAT      O46243   6.429   6.057   1.042
15334WAT     H146244   6.356   6.092   1.100
15334WAT     H246245   6.501   6.018   1.100
15335WAT      O46246   1.236   5.797   0.012
15335WAT     H146247   1.181   5.834  -0.062
15335WAT     H246248   1.276   5.872   0.065
15336WAT      O46249   4.642   8.870   1.123
15336WAT     H146250   4.735   8.849   1.092
15336WAT     H246251   4.581   8.875   1.045
15337WAT      O46252   9.856   5.576   6.760
15337WAT     H146253   9.767   5.545   6.795
15337WAT     H246254   9.916   5.599   6.836
15338WAT      O46255   3.486   2.446   6.376
15338WAT     H146256   3.457   2.514   6.308
15338WAT     H246257   3.523   2.493   6.456
15339WAT      O46258   9.567   0.919   6.004
15339WAT     H146259   9.517   0.891   5.922
15339WAT     H246260   9.665   0.918   5.985
15340WAT      O46261   4.461   2.106   1.496
15340WAT     H146262   4.501   2.028   1.449
15340WAT     H246263   4.404   2.074   1.572
15341WAT      O46264   3.105   6.674   1.562
15341WAT     H146265   3.180   6.612   1.537
15341WAT     H246266   3.087   6.666   1.660
15342WAT      O46267   5.015   1.560   3.610
15342WAT     H146268   4.923   1.600   3.615
15342WAT     H246269   5.073   1.619   3.553
15343WAT      O46270   1.901   1.632   8.113
15343WAT     H146271   1.830   1.702   8.112
15343WAT     H246272   1.990   1.674   8.130
15344WAT      O46273   8.301   6.567   2.532
15344WAT     H146274   8.306   6.650   2.478
15344WAT     H246275   8.309   6.487   2.472
15345WAT      O46276   3.376   6.650   8.098
15345WAT     H146277   3.366   6.748   8.116
15345WAT     H246278   3.472   6.630   8.079
15346WAT      O46279   1.528   8.540   1.929
15346WAT     H146280   1.467   8.579   1.860
15346WAT     H246281   1.601   8.604   1.949
15347WAT      O46282   4.130   8.990   4.621
15347WAT     H146283   4.228   8.998   4.636
15347WAT     H246284   4.085   9.076   4.647
15348WAT      O46285   9.104   3.247   2.412
15348WAT     H146286   9.131   3.165   2.361
15348WAT     H246287   9.162   3.323   2.384
15349WAT      O46288   4.618   1.431   9.225
15349WAT     H146289   4.617   1.370   9.146
15349WAT     H246290   4.680   1.507   9.207
15350WAT      O46291   5.240   6.179   0.413
15350WAT     H146292   5.211   6.085   0.397
15350WAT     H246293   5.312   6.204   0.348
15351WAT      O46294   4.394   9.621   6.371
15351WAT     H146295   4.456   9.697   6.350
15351WAT     H246296   4.432   9.536   6.336
15352WAT      O46297   6.735   4.531   2.189
15352WAT     H146298   6.727   4.573   2.279
15352WAT     H246299   6.831   4.515   2.168
15353WAT      O46300   1.962   6.650   7.453
15353WAT     H146301   1.988   6.591   7.530
15353WAT     H246302   1.961   6.596   7.369
15354WAT      O46303   0.317   9.703   3.798
15354WAT     H146304   0.364   9.723   3.884
15354WAT     H246305   0.370   9.742   3.722
15355WAT      O46306   3.684   4.727   8.205
15355WAT     H146307   3.757   4.663   8.228
15355WAT     H246308   3.604   4.707   8.262
15356WAT      O46309   8.164   9.298   8.781
15356WAT     H146310   8.199   9.229   8.843
15356WAT     H246311   8.239   9.352   8.743
15357WAT      O46312   6.878   6.502   8.878
15357WAT     H146313   6.838   6.558   8.806
15357WAT     H246314   6.975   6.522   8.886
15358WAT      O46315   6.162   9.259   2.403
15358WAT     H146316   6.066   9.245   2.383
15358WAT     H246317   6.171   9.313   2.487
15359WAT      O46318   2.863   9.245   0.357
15359WAT     H146319   2.908   9.266   0.444
15359WAT     H246320   2.855   9.146   0.348
15360WAT      O46321   9.006   6.684   4.490
15360WAT     H146322   9.046   6.598   4.522
15360WAT     H246323   9.071   6.731   4.431
15361WAT      O46324   3.769   4.676   7.914
15361WAT     H146325   3.864   4.695   7.889
15361WAT     H246326   3.756   4.692   8.012
15362WAT      O46327   5.359   9.245   9.835
15362WAT     H146328   5.421   9.300   9.891
15362WAT     H246329   5.411   9.176   9.785
15363WAT      O46330   5.593   6.324   5.608
15363WAT     H146331   5.529   6.247   5.605
15363WAT     H246332   5.686   6.290   5.594
15364WAT      O46333   7.687   6.992   1.764
15364WAT     H146334   7.772   7.041   1.784
15364WAT     H246335   7.656   7.015   1.671
15365WAT      O46336   7.426   5.874   6.162
15365WAT     H146337   7.377   5.961   6.159
15365WAT     H246338   7.522   5.890   6.187
15366WAT      O46339   2.197   3.234   9.634
15366WAT     H146340   2.164   3.204   9.723
15366WAT     H246341   2.126   3.286   9.587
15367WAT      O46342   3.013   3.376   3.290
15367WAT     H146343   3.096   3.428   3.309
15367WAT     H246344   3.038   3.282   3.264
15368WAT      O46345   3.994   1.471   0.475
15368WAT     H146346   4.061   1.397   0.481
15368WAT     H246347   3.937   1.458   0.393
15369WAT      O46348   6.281   9.499   4.541
15369WAT     H146349   6.329   9.438   4.603
15369WAT     H246350   6.228   9.566   4.593
15370WAT      O46351   4.797   3.703   6.186
15370WAT     H146352   4.858   3.782   6.181
15370WAT     H246353   4.763   3.681   6.095
15371WAT      O46354   4.053   3.922   8.559
15371WAT     H146355   3.993   3.979   8.615
15371WAT     H246356   4.045   3.949   8.463
15372WAT      O46357   4.417   9.443   0.815
15372WAT     H146358   4.372   9.418   0.730
15372WAT     H246359   4.378   9.528   0.850
15373WAT      O46360   7.294   1.301   8.391
15373WAT     H146361   7.321   1.263   8.302
15373WAT     H246362   7.267   1.396   8.380
15374WAT      O46363   4.802   0.156   1.364
15374WAT     H146364   4.890   0.201   1.349
15374WAT     H246365   4.739   0.183   1.291
15375WAT      O46366   4.509   7.697   2.776
15375WAT     H146367   4.410   7.699   2.759
15375WAT     H246368   4.555   7.751   2.705
15376WAT      O46369   7.177   8.603   3.069
15376WAT     H146370   7.217   8.584   3.159
15376WAT     H246371   7.214   8.690   3.035
15377WAT      O46372   7.184   8.686   0.515
15377WAT     H146373   7.090   8.716   0.494
15377WAT     H246374   7.236   8.678   0.431
15378WAT      O46375   0.450   4.970   4.804
15378WAT     H146376   0.415   4.989   4.713
15378WAT     H246377   0.516   4.894   4.800
15379WAT      O46378   2.195   4.902   5.830
15379WAT     H146379   2.187   4.803   5.820
15379WAT     H246380   2.292   4.927   5.832
15380WAT      O46381   4.897   1.870   9.778
15380WAT     H146382   4.816   1.910   9.819
15380WAT     H246383   4.926   1.791   9.832
15381WAT      O46384   1.665   1.462   5.096
15381WAT     H146385   1.743   1.497   5.148
15381WAT     H246386   1.669   1.362   5.094
15382WAT      O46387   9.708   4.654   4.068
15382WAT     H146388   9.797   4.611   4.081
15382WAT     H246389   9.662   4.663   4.156
15383WAT      O46390   5.730   0.682   2.107
15383WAT     H146391   5.665   0.606   2.114
15383WAT     H246392   5.772   0.683   2.016
15384WAT      O46393   1.171   9.774   1.523
15384WAT     H146394   1.159   9.681   1.489
15384WAT     H246395   1.081   9.818   1.532
15385WAT      O46396   6.499   2.977   4.219
15385WAT     H146397   6.427   2.909   4.202
15385WAT     H246398   6.475   3.062   4.173
15386WAT      O46399   5.394   7.764   0.832
15386WAT     H146400   5.329   7.774   0.907
15386WAT     H246401   5.471   7.826   0.846
15387WAT      O46402   2.174   1.105   6.901
15387WAT     H146403   2.153   1.103   6.998
15387WAT     H246404   2.176   1.200   6.869
15388WAT      O46405   1.315   2.395   8.337
15388WAT     H146406   1.390   2.355   8.391
15388WAT     H246407   1.293   2.485   8.374
15389WAT      O46408   2.769   2.684   1.439
15389WAT     H146409   2.819   2.680   1.526
15389WAT     H246410   2.835   2.680   1.363
15390WAT      O46411   3.505   1.115   3.463
15390WAT     H146412   3.496   1.092   3.367
15390WAT     H246413   3.596   1.089   3.496
15391WAT      O46414   8.830   1.829   6.213
15391WAT     H146415   8.906   1.813   6.150
15391WAT     H246416   8.783   1.743   6.231
15392WAT      O46417   5.244   8.307   9.396
15392WAT     H146418   5.199   8.218   9.402
15392WAT     H246419   5.188   8.369   9.342
15393WAT      O46420   9.706   6.586   8.729
15393WAT     H146421   9.746   6.587   8.820
15393WAT     H246422   9.676   6.679   8.705
15394WAT      O46423   5.759   2.320   7.504
15394WAT     H146424   5.688   2.377   7.465
15394WAT     H246425   5.720   2.231   7.530
15395WAT      O46426   0.312   6.312   8.886
15395WAT     H146427   0.344   6.393   8.837
15395WAT     H246428   0.218   6.327   8.918
15396WAT      O46429   9.762   6.581   6.112
15396WAT     H146430   9.812   6.495   6.128
15396WAT     H246431   9.718   6.577   6.022
15397WAT      O46432   1.379   6.926   1.608
15397WAT     H146433   1.305   6.895   1.668
15397WAT     H246434   1.385   6.866   1.528
15398WAT      O46435   3.158   2.505   5.852
15398WAT     H146436   3.172   2.604   5.858
15398WAT     H246437   3.246   2.458   5.855
15399WAT      O46438   7.805   5.600   3.120
15399WAT     H146439   7.773   5.511   3.087
15399WAT     H246440   7.769   5.617   3.212
15400WAT      O46441   3.432   6.169   7.720
15400WAT     H146442   3.487   6.141   7.798
15400WAT     H246443   3.336   6.172   7.746
15401WAT      O46444   4.095   0.956   0.690
15401WAT     H146445   4.086   0.856   0.686
15401WAT     H246446   4.182   0.983   0.647
15402WAT      O46447   6.458   0.702   4.675
15402WAT     H146448   6.477   0.726   4.770
15402WAT     H246449   6.361   0.681   4.665
15403WAT      O46450   5.879   8.950   0.895
15403WAT     H146451   5.879   9.048   0.914
15403WAT     H246452   5.866   8.900   0.980
15404WAT      O46453   7.557   5.971   0.695
15404WAT     H146454   7.636   5.934   0.744
15404WAT     H246455   7.541   6.065   0.724
15405WAT      O46456   1.888   5.113   7.857
15405WAT     H146457   1.977   5.156   7.847
15405WAT     H246458   1.817   5.184   7.860
15406WAT      O46459   5.694   3.746   6.871
15406WAT     H146460   5.792   3.740   6.889
15406WAT     H246461   5.664   3.664   6.822
15407WAT      O46462   6.902   0.859   1.849
15407WAT     H146463   6.929   0.873   1.944
15407WAT     H246464   6.957   0.785   1.810
15408WAT      O46465   3.234   1.077   9.545
15408WAT     H146466   3.227   1.114   9.638
15408WAT     H246467   3.310   1.119   9.497
15409WAT      O46468   2.264   9.612   0.713
15409WAT     H146469   2.281   9.710   0.723
15409WAT     H246470   2.316   9.563   0.783
15410WAT      O46471   1.677   5.742   3.052
15410WAT     H146472   1.648   5.755   3.147
15410WAT     H246473   1.657   5.649   3.023
15411WAT      O46474   2.792   1.786   0.375
15411WAT     H146475   2.776   1.715   0.443
15411WAT     H246476   2.850   1.858   0.415
15412WAT      O46477   7.553   9.449   2.222
15412WAT     H146478   7.627   9.384   2.240
15412WAT     H246479   7.468   9.399   2.204
15413WAT      O46480   8.658   3.711   1.149
15413WAT     H146481   8.669   3.746   1.056
15413WAT     H246482   8.747   3.711   1.195
15414WAT      O46483   1.800   9.430   9.244
15414WAT     H146484   1.869   9.434   9.316
15414WAT     H246485   1.813   9.347   9.189
15415WAT      O46486   6.415   9.616   0.567
15415WAT     H146487   6.467   9.692   0.529
15415WAT     H246488   6.341   9.652   0.624
15416WAT      O46489   3.728   3.153   1.059
15416WAT     H146490   3.761   3.213   0.986
15416WAT     H246491   3.801   3.090   1.086
15417WAT      O46492   0.994   3.310   4.972
15417WAT     H146493   1.025   3.378   4.906
15417WAT     H246494   0.897   3.292   4.958
15418WAT      O46495   8.054   0.672   2.842
15418WAT     H146496   8.085   0.697   2.935
15418WAT     H246497   8.085   0.580   2.820
15419WAT      O46498   4.964   1.898   9.518
15419WAT     H146499   4.942   1.890   9.615
15419WAT     H246500   4.896   1.958   9.474
15420WAT      O46501   8.769   5.815   8.971
15420WAT     H146502   8.768   5.716   8.985
15420WAT     H246503   8.704   5.839   8.899
15421WAT      O46504   2.903   7.833   3.720
15421WAT     H146505   2.839   7.767   3.682
15421WAT     H246506   2.991   7.788   3.738
15422WAT      O46507   4.325   9.363   4.550
15422WAT     H146508   4.389   9.298   4.591
15422WAT     H246509   4.232   9.325   4.553
15423WAT      O46510   0.487   7.260   2.201
15423WAT     H146511   0.495   7.221   2.109
15423WAT     H246512   0.465   7.357   2.195
15424WAT      O46513   2.169   3.920   3.805
15424WAT     H146514   2.232   3.942   3.731
15424WAT     H246515   2.099   3.857   3.772
15425WAT      O46516   2.755   0.840   7.419
15425WAT     H146517   2.726   0.749   7.389
15425WAT     H246518   2.852   0.852   7.399
15426WAT      O46519   0.076   7.116   8.440
15426WAT     H146520   0.069   7.215   8.452
15426WAT     H246521   0.016   7.086   8.366
15427WAT      O46522   1.257   4.006   9.379
15427WAT     H146523   1.299   3.993   9.289
15427WAT     H246524   1.157   4.005   9.370
15428WAT      O46525   7.527   7.338   1.507
15428WAT     H146526   7.501   7.378   1.595
15428WAT     H246527   7.462   7.367   1.437
15429WAT      O46528   5.395   4.297   8.415
15429WAT     H146529   5.467   4.322   8.350
15429WAT     H246530   5.328   4.371   8.422
15430WAT      O46531   5.033   5.495   9.161
15430WAT     H146532   4.946   5.492   9.210
15430WAT     H246533   5.069   5.588   9.161
15431WAT      O46534   2.237   7.111   1.673
15431WAT     H146535   2.229   7.198   1.624
15431WAT     H246536   2.151   7.062   1.667
15432WAT      O46537   4.631   5.341   0.068
15432WAT     H146538   4.578   5.426   0.070
15432WAT     H246539   4.663   5.324  -0.025
15433WAT      O46540   0.818   2.408   6.602
15433WAT     H146541   0.737   2.352   6.588
15433WAT     H246542   0.899   2.350   6.604
15434WAT      O46543   3.879   5.684   1.568
15434WAT     H146544   3.971   5.657   1.597
15434WAT     H246545   3.882   5.775   1.527
15435WAT      O46546   8.838   1.803   5.335
15435WAT     H146547   8.763   1.785   5.399
15435WAT     H246548   8.878   1.716   5.305
15436WAT      O46549   9.312   9.520   2.659
15436WAT     H146550   9.224   9.538   2.616
15436WAT     H246551   9.299   9.510   2.758
15437WAT      O46552   0.213   8.711   2.076
15437WAT     H146553   0.257   8.799   2.062
15437WAT     H246554   0.246   8.669   2.160
15438WAT      O46555   5.492   9.377   2.854
15438WAT     H146556   5.414   9.421   2.808
15438WAT     H246557   5.518   9.430   2.934
15439WAT      O46558   1.929   4.119   1.248
15439WAT     H146559   1.886   4.165   1.170
15439WAT     H246560   1.960   4.028   1.219
15440WAT      O46561   4.413   8.824   7.403
15440WAT     H146562   4.314   8.829   7.413
15440WAT     H246563   4.439   8.857   7.313
15441WAT      O46564   5.094   1.408   4.774
15441WAT     H146565   5.069   1.368   4.862
15441WAT     H246566   5.030   1.378   4.704
15442WAT      O46567   3.030   8.354   9.619
15442WAT     H146568   2.987   8.408   9.692
15442WAT     H246569   3.025   8.257   9.643
15443WAT      O46570   4.696   6.189   9.392
15443WAT     H146571   4.744   6.163   9.308
15443WAT     H246572   4.620   6.250   9.370
15444WAT      O46573   7.486   9.164   8.702
15444WAT     H146574   7.511   9.260   8.687
15444WAT     H246575   7.468   9.120   8.615
15445WAT      O46576   0.099   6.719   8.375
15445WAT     H146577   0.008   6.760   8.375
15445WAT     H246578   0.099   6.638   8.434
15446WAT      O46579   0.991   3.423   2.862
15446WAT     H146580   0.976   3.324   2.859
15446WAT     H246581   0.950   3.460   2.945
15447WAT      O46582   1.573   3.848   1.349
15447WAT     H146583   1.565   3.907   1.268
15447WAT     H246584   1.655   3.873   1.400
15448WAT      O46585   4.232   6.716   8.032
15448WAT     H146586   4.167   6.769   7.978
15448WAT     H246587   4.283   6.654   7.973
15449WAT      O46588   8.795   5.379   4.725
15449WAT     H146589   8.772   5.470   4.759
15449WAT     H246590   8.829   5.323   4.801
15450WAT      O46591   2.676   8.986   5.949
15450WAT     H146592   2.721   8.934   6.022
15450WAT     H246593   2.713   8.958   5.861
15451WAT      O46594   6.258   6.733   7.499
15451WAT     H146595   6.224   6.674   7.426
15451WAT     H246596   6.357   6.743   7.490
15452WAT      O46597   4.011   2.210   9.385
15452WAT     H146598   3.931   2.151   9.371
15452WAT     H246599   4.067   2.172   9.459
15453WAT      O46600   7.332   1.429   0.152
15453WAT     H146601   7.342   1.485   0.234
15453WAT     H246602   7.271   1.351   0.172
15454WAT      O46603   2.597   5.488   5.398
15454WAT     H146604   2.578   5.538   5.483
15454WAT     H246605   2.525   5.420   5.383
15455WAT      O46606   5.460   6.424   4.483
15455WAT     H146607   5.403   6.344   4.463
15455WAT     H246608   5.555   6.404   4.460
15456WAT      O46609   1.019   4.288   6.315
15456WAT     H146610   0.997   4.222   6.388
15456WAT     H246611   1.101   4.258   6.267
15457WAT      O46612   9.389   3.805   0.642
15457WAT     H146613   9.349   3.893   0.665
15457WAT     H246614   9.334   3.760   0.572
15458WAT      O46615   4.349   1.035   7.092
15458WAT     H146616   4.418   1.048   7.021
15458WAT     H246617   4.389   0.982   7.167
15459WAT      O46618   5.609   3.768   0.200
15459WAT     H146619   5.556   3.703   0.145
15459WAT     H246620   5.644   3.722   0.281
15460WAT      O46621   9.448   2.695   8.092
15460WAT     H146622   9.435   2.633   8.168
15460WAT     H246623   9.540   2.684   8.054
15461WAT      O46624   4.874   9.475   5.960
15461WAT     H146625   4.807   9.414   5.918
15461WAT     H246626   4.851   9.491   6.056
15462WAT      O46627   3.617   3.190   7.886
15462WAT     H146628   3.715   3.174   7.896
15462WAT     H246629   3.602   3.277   7.838
15463WAT      O46630   5.608   7.961   4.817
15463WAT     H146631   5.635   8.054   4.845
15463WAT     H246632   5.602   7.903   4.899
15464WAT      O46633   7.734   3.290   5.999
15464WAT     H146634   7.754   3.370   6.056
15464WAT     H246635   7.727   3.318   5.904
15465WAT      O46636   2.891   0.203   6.482
15465WAT     H146637   2.841   0.136   6.427
15465WAT     H246638   2.885   0.178   6.579
15466WAT      O46639   6.158   2.240   8.793
15466WAT     H146640   6.192   2.178   8.865
15466WAT     H246641   6.109   2.316   8.835
15467WAT      O46642   7.873   6.119   5.453
15467WAT     H146643   7.848   6.026   5.427
15467WAT     H246644   7.972   6.127   5.460
15468WAT      O46645   2.467   7.029   1.775
15468WAT     H146646   2.374   7.047   1.741
15468WAT     H246647   2.524   7.110   1.763
15469WAT      O46648   5.044   9.401   3.992
15469WAT     H146649   5.011   9.437   3.905
15469WAT     H246650   5.056   9.302   3.985
15470WAT      O46651   4.116   0.429   2.960
15470WAT     H146652   4.071   0.354   3.009
15470WAT     H246653   4.104   0.416   2.861
15471WAT      O46654   5.162   7.041   0.480
15471WAT     H146655   5.185   6.985   0.559
15471WAT     H246656   5.075   7.011   0.441
15472WAT      O46657   3.080   8.877   1.434
15472WAT     H146658   3.066   8.976   1.441
15472WAT     H246659   3.126   8.857   1.347
15473WAT      O46660   4.456   4.155   0.132
15473WAT     H146661   4.455   4.085   0.060
15473WAT     H246662   4.375   4.144   0.190
15474WAT      O46663   9.024   4.978   3.721
15474WAT     H146664   9.032   4.990   3.622
15474WAT     H246665   9.116   4.975   3.762
15475WAT      O46666   4.198   1.144   1.449
15475WAT     H146667   4.131   1.218   1.440
15475WAT     H246668   4.273   1.159   1.386
15476WAT      O46669   3.236   4.630   6.381
15476WAT     H146670   3.184   4.714   6.361
15476WAT     H246671   3.183   4.572   6.442
15477WAT      O46672   5.918   4.166   0.421
15477WAT     H146673   5.880   4.080   0.388
15477WAT     H246674   5.856   4.241   0.399
15478WAT      O46675   8.822   2.421   4.448
15478WAT     H146676   8.791   2.507   4.488
15478WAT     H246677   8.896   2.439   4.383
15479WAT      O46678   0.978   6.412   5.439
15479WAT     H146679   0.892   6.398   5.391
15479WAT     H246680   1.053   6.420   5.373
15480WAT      O46681   5.063   2.371   0.835
15480WAT     H146682   5.009   2.445   0.875
15480WAT     H246683   5.147   2.409   0.796
15481WAT      O46684   8.935   3.751   3.210
15481WAT     H146685   8.840   3.736   3.180
15481WAT     H246686   8.994   3.682   3.169
15482WAT      O46687   2.666   6.460   2.224
15482WAT     H146688   2.740   6.473   2.290
15482WAT     H246689   2.597   6.398   2.263
15483WAT      O46690   3.647   0.808   5.652
15483WAT     H146691   3.551   0.837   5.650
15483WAT     H246692   3.682   0.803   5.559
15484WAT      O46693   4.063   8.244   3.776
15484WAT     H146694   4.137   8.178   3.761
15484WAT     H246695   4.097   8.319   3.833
15485WAT      O46696   4.999   2.095   8.637
15485WAT     H146697   4.998   2.142   8.725
15485WAT     H246698   5.085   2.046   8.625
15486WAT      O46699   3.216   5.066   6.447
15486WAT     H146700   3.205   5.032   6.540
15486WAT     H246701   3.279   5.144   6.447
15487WAT      O46702   7.680   1.057   4.703
15487WAT     H146703   7.596   1.002   4.702
15487WAT     H246704   7.715   1.061   4.797
15488WAT      O46705   4.777   2.498   4.089
15488WAT     H146706   4.852   2.534   4.145
15488WAT     H246707   4.696   2.485   4.146
15489WAT      O46708   6.541   5.778   0.383
15489WAT     H146709   6.536   5.691   0.333
15489WAT     H246710   6.474   5.777   0.457
15490WAT      O46711   7.842   6.478   9.173
15490WAT     H146712   7.782   6.556   9.156
15490WAT     H246713   7.915   6.478   9.104
15491WAT      O46714   5.405   9.010   3.481
15491WAT     H146715   5.329   9.032   3.542
15491WAT     H246716   5.370   8.962   3.400
15492WAT      O46717   3.957   5.617   0.578
15492WAT     H146718   3.951   5.690   0.509
15492WAT     H246719   3.891   5.546   0.556
15493WAT      O46720   5.356   8.606   3.151
15493WAT     H146721   5.358   8.509   3.174
15493WAT     H246722   5.433   8.627   3.091
15494WAT      O46723   3.220   9.017   4.998
15494WAT     H146724   3.159   8.973   5.064
15494WAT     H246725   3.192   8.993   4.906
15495WAT      O46726   0.464   3.523   7.649
15495WAT     H146727   0.484   3.464   7.727
15495WAT     H246728   0.513   3.610   7.659
15496WAT      O46729   1.804   6.763   0.292
15496WAT     H146730   1.757   6.730   0.374
15496WAT     H246731   1.833   6.685   0.237
15497WAT      O46732   7.037   8.663   2.489
15497WAT     H146733   7.050   8.668   2.588
15497WAT     H246734   6.980   8.739   2.459
15498WAT      O46735   1.416   6.453   2.547
15498WAT     H146736   1.393   6.539   2.501
15498WAT     H246737   1.512   6.432   2.531
15499WAT      O46738   1.091   6.635   2.467
15499WAT     H146739   1.022   6.675   2.406
15499WAT     H246740   1.049   6.612   2.554
15500WAT      O46741   4.615   3.584   3.435
15500WAT     H146742   4.536   3.604   3.493
15500WAT     H246743   4.615   3.487   3.412
15501WAT      O46744   6.497   1.378   0.669
15501WAT     H146745   6.464   1.313   0.601
15501WAT     H246746   6.558   1.444   0.625
15502WAT      O46747   4.488   5.978   3.661
15502WAT     H146748   4.517   5.928   3.742
15502WAT     H246749   4.568   6.011   3.611
15503WAT      O46750   4.182   1.624   7.760
15503WAT     H146751   4.205   1.675   7.843
15503WAT     H246752   4.104   1.564   7.778
15504WAT      O46753   4.148   7.187   7.683
15504WAT     H146754   4.167   7.163   7.778
15504WAT     H246755   4.175   7.282   7.666
15505WAT      O46756   8.283   7.434   7.785
15505WAT     H146757   8.213   7.412   7.853
15505WAT     H246758   8.263   7.385   7.700
15506WAT      O46759   9.436   4.027   2.426
15506WAT     H146760   9.449   4.123   2.451
15506WAT     H246761   9.371   4.020   2.350
15507WAT      O46762   7.552   4.187   1.386
15507WAT     H146763   7.536   4.201   1.289
15507WAT     H246764   7.635   4.134   1.399
15508WAT      O46765   5.509   5.603   5.680
15508WAT     H146766   5.565   5.627   5.759
15508WAT     H246767   5.545   5.520   5.636
15509WAT      O46768   3.767   2.955   0.712
15509WAT     H146769   3.713   3.005   0.780
15509WAT     H246770   3.782   2.861   0.743
15510WAT      O46771   1.982   5.969   5.416
15510WAT     H146772   2.025   5.909   5.349
15510WAT     H246773   2.052   6.026   5.459
15511WAT      O46774   1.386   6.252   3.143
15511WAT     H146775   1.331   6.224   3.064
15511WAT     H246776   1.413   6.347   3.133
15512WAT      O46777   6.598   2.918   4.728
15512WAT     H146778   6.610   2.908   4.630
15512WAT     H246779   6.607   2.828   4.772
15513WAT      O46780   9.287   6.254   9.199
15513WAT     H146781   9.368   6.226   9.147
15513WAT     H246782   9.282   6.354   9.201
15514WAT      O46783   8.625   0.225   3.572
15514WAT     H146784   8.664   0.212   3.481
15514WAT     H246785   8.601   0.136   3.612
15515WAT      O46786   2.385   5.201   7.200
15515WAT     H146787   2.325   5.243   7.132
15515WAT     H246788   2.386   5.102   7.186
15516WAT      O46789   8.131   6.996   0.530
15516WAT     H146790   8.158   6.917   0.475
15516WAT     H246791   8.105   6.966   0.621
15517WAT      O46792   2.064   1.776   5.034
15517WAT     H146793   2.032   1.819   5.118
15517WAT     H246794   2.066   1.677   5.047
15518WAT      O46795   7.787   9.568   2.327
15518WAT     H146796   7.795   9.586   2.425
15518WAT     H246797   7.691   9.553   2.304
15519WAT      O46798   1.908   3.292   1.940
15519WAT     H146799   1.970   3.260   2.011
15519WAT     H246800   1.939   3.381   1.907
15520WAT      O46801   5.060   0.658   5.988
15520WAT     H146802   4.978   0.709   6.016
15520WAT     H246803   5.036   0.563   5.969
15521WAT      O46804   4.958   9.702   4.437
15521WAT     H146805   4.874   9.654   4.464
15521WAT     H246806   4.998   9.656   4.358
15522WAT      O46807   4.059   2.827   2.539
15522WAT     H146808   4.127   2.868   2.600
15522WAT     H246809   4.105   2.780   2.463
15523WAT      O46810   2.372   6.327   9.328
15523WAT     H146811   2.374   6.420   9.365
15523WAT     H246812   2.291   6.316   9.270
15524WAT      O46813   5.943   2.029   2.267
15524WAT     H146814   5.855   2.075   2.265
15524WAT     H246815   5.969   2.009   2.361
15525WAT      O46816   0.755   2.496   4.887
15525WAT     H146817   0.687   2.444   4.835
15525WAT     H246818   0.771   2.450   4.975
15526WAT      O46819   8.297   8.168   4.215
15526WAT     H146820   8.357   8.154   4.137
15526WAT     H246821   8.344   8.143   4.299
15527WAT      O46822   1.947   4.717   4.774
15527WAT     H146823   1.926   4.639   4.834
15527WAT     H246824   1.934   4.802   4.825
15528WAT      O46825   2.991   6.666   7.989
15528WAT     H146826   2.891   6.674   7.994
15528WAT     H246827   3.029   6.748   7.945
15529WAT      O46828   2.463   2.131   0.798
15529WAT     H146829   2.364   2.129   0.813
15529WAT     H246830   2.482   2.158   0.703
15530WAT      O46831   0.097   1.416   7.641
15530WAT     H146832   0.079   1.515   7.635
15530WAT     H246833   0.101   1.378   7.549
15531WAT      O46834   2.164   2.166   9.286
15531WAT     H146835   2.074   2.128   9.308
15531WAT     H246836   2.224   2.157   9.365
15532WAT      O46837   3.249   6.984   0.497
15532WAT     H146838   3.153   7.000   0.474
15532WAT     H246839   3.267   6.886   0.502
15533WAT      O46840   7.151   1.188   1.365
15533WAT     H146841   7.075   1.218   1.422
15533WAT     H246842   7.198   1.112   1.411
15534WAT      O46843   7.614   4.036   5.396
15534WAT     H146844   7.591   3.957   5.453
15534WAT     H246845   7.711   4.057   5.406
15535WAT      O46846   8.756   8.980   2.194
15535WAT     H146847   8.829   8.936   2.247
15535WAT     H246848   8.682   9.008   2.254
15536WAT      O46849   1.331   2.734   4.581
15536WAT     H146850   1.335   2.707   4.677
15536WAT     H246851   1.369   2.826   4.571
15537WAT      O46852   7.091   8.142   8.599
15537WAT     H146853   7.031   8.211   8.560
15537WAT     H246854   7.125   8.082   8.527
15538WAT      O46855   2.487   5.856   1.830
15538WAT     H146856   2.434   5.867   1.914
15538WAT     H246857   2.583   5.838   1.852
15539WAT      O46858   1.726   9.061   2.252
15539WAT     H146859   1.753   9.126   2.323
15539WAT     H246860   1.777   8.976   2.263
15540WAT      O46861   1.638   3.054   3.781
15540WAT     H146862   1.598   2.999   3.709
15540WAT     H246863   1.688   2.996   3.845
15541WAT      O46864   1.289   1.701   2.828
15541WAT     H146865   1.195   1.733   2.824
15541WAT     H246866   1.293   1.605   2.799
15542WAT      O46867   3.843   9.527   6.344
15542WAT     H146868   3.875   9.435   6.362
15542WAT     H246869   3.765   9.548   6.403
15543WAT      O46870   3.294   1.498   8.738
15543WAT     H146871   3.263   1.411   8.699
15543WAT     H246872   3.269   1.501   8.835
15544WAT      O46873   3.632   1.102   2.669
15544WAT     H146874   3.646   1.031   2.738
15544WAT     H246875   3.537   1.099   2.636
15545WAT      O46876   3.354   1.931   2.142
15545WAT     H146877   3.385   2.025   2.153
15545WAT     H246878   3.416   1.882   2.081
15546WAT      O46879   8.658   9.760   5.225
15546WAT     H146880   8.568   9.801   5.238
15546WAT     H246881   8.673   9.742   5.128
15547WAT      O46882   2.029   0.561   8.974
15547WAT     H146883   2.106   0.558   9.037
15547WAT     H246884   2.034   0.482   8.913
15548WAT      O46885   3.524   4.762   0.382
15548WAT     H146886   3.515   4.861   0.369
15548WAT     H246887   3.619   4.739   0.402
15549WAT      O46888   6.849   8.403   9.587
15549WAT     H146889   6.862   8.502   9.585
15549WAT     H246890   6.928   8.360   9.631
15550WAT      O46891   9.415   2.995   0.908
15550WAT     H146892   9.407   2.908   0.957
15550WAT     H246893   9.376   3.068   0.963
15551WAT      O46894   4.602   4.313   8.418
15551WAT     H146895   4.531   4.382   8.403
15551WAT     H246896   4.692   4.357   8.417
15552WAT      O46897   4.805   0.902   4.564
15552WAT     H146898   4.807   0.887   4.663
15552WAT     H246899   4.898   0.914   4.530
15553WAT      O46900   1.453   9.474   9.761
15553WAT     H146901   1.370   9.450   9.711
15553WAT     H246902   1.441   9.450   9.858
15554WAT      O46903   8.244   2.726   2.897
15554WAT     H146904   8.319   2.786   2.869
15554WAT     H246905   8.173   2.726   2.826
15555WAT      O46906   9.739   4.667   0.618
15555WAT     H146907   9.740   4.708   0.527
15555WAT     H246908   9.651   4.621   0.633
15556WAT      O46909   8.742   4.231   6.767
15556WAT     H146910   8.739   4.133   6.791
15556WAT     H246911   8.767   4.283   6.848
15557WAT      O46912   9.106   0.414   7.210
15557WAT     H146913   9.038   0.413   7.137
15557WAT     H246914   9.065   0.383   7.296
15558WAT      O46915   4.048   9.629   0.997
15558WAT     H146916   3.975   9.684   0.957
15558WAT     H246917   4.041   9.535   0.963
15559WAT      O46918   7.427   3.564   9.356
15559WAT     H146919   7.426   3.481   9.411
15559WAT     H246920   7.339   3.611   9.364
15560WAT      O46921   2.282   7.563   2.904
15560WAT     H146922   2.221   7.642   2.894
15560WAT     H246923   2.295   7.519   2.815
15561WAT      O46924   4.110   8.098   6.970
15561WAT     H146925   4.165   8.146   6.902
15561WAT     H246926   4.141   8.121   7.062
15562WAT      O46927   4.230   9.391   8.122
15562WAT     H146928   4.268   9.483   8.137
15562WAT     H246929   4.305   9.325   8.121
15563WAT      O46930   5.323   9.229   3.884
15563WAT     H146931   5.251   9.179   3.933
15563WAT     H246932   5.327   9.323   3.919
15564WAT      O46933   8.126   3.110   4.178
15564WAT     H146934   8.039   3.150   4.207
15564WAT     H246935   8.126   3.099   4.078
15565WAT      O46936   4.725   6.869   5.420
15565WAT     H146937   4.632   6.880   5.454
15565WAT     H246938   4.726   6.877   5.321
15566WAT      O46939   7.551   0.829   3.496
15566WAT     H146940   7.603   0.747   3.521
15566WAT     H246941   7.612   0.893   3.448
15567WAT      O46942   1.825   9.369   9.888
15567WAT     H146943   1.839   9.451   9.833
15567WAT     H246944   1.800   9.293   9.827
15568WAT      O46945   9.056   8.535   6.749
15568WAT     H146946   8.998   8.523   6.830
15568WAT     H246947   9.101   8.449   6.728
15569WAT      O46948   5.190   8.303   2.047
15569WAT     H146949   5.248   8.245   2.105
15569WAT     H246950   5.140   8.368   2.104
15570WAT      O46951   0.965   3.832   4.123
15570WAT     H146952   1.014   3.800   4.042
15570WAT     H246953   0.913   3.914   4.100
15571WAT      O46954   0.104   3.536   5.618
15571WAT     H146955   0.122   3.484   5.534
15571WAT     H246956   0.114   3.634   5.599
15572WAT      O46957   7.439   9.236   0.449
15572WAT     H146958   7.363   9.186   0.407
15572WAT     H246959   7.520   9.228   0.391
15573WAT      O46960   7.632   1.299   4.607
15573WAT     H146961   7.631   1.200   4.620
15573WAT     H246962   7.726   1.332   4.610
15574WAT      O46963   2.863   6.518   4.941
15574WAT     H146964   2.843   6.589   4.873
15574WAT     H246965   2.783   6.506   5.000
15575WAT      O46966   8.102   1.920   1.121
15575WAT     H146967   8.112   1.832   1.076
15575WAT     H246968   8.044   1.910   1.202
15576WAT      O46969   2.674   3.521   3.532
15576WAT     H146970   2.703   3.427   3.547
15576WAT     H246971   2.640   3.531   3.438
15577WAT      O46972   1.706   3.333   6.144
15577WAT     H146973   1.692   3.422   6.188
15577WAT     H246974   1.763   3.344   6.063
15578WAT      O46975   9.151   7.383   0.666
15578WAT     H146976   9.065   7.341   0.640
15578WAT     H246977   9.173   7.457   0.603
15579WAT      O46978   0.161   4.700   9.812
15579WAT     H146979   0.197   4.613   9.776
15579WAT     H246980   0.105   4.681   9.893
15580WAT      O46981   9.132   4.960   8.750
15580WAT     H146982   9.127   5.017   8.669
15580WAT     H246983   9.160   5.016   8.829
15581WAT      O46984   7.500   8.694   0.604
15581WAT     H146985   7.543   8.676   0.516
15581WAT     H246986   7.487   8.792   0.616
15582WAT      O46987   0.160   5.557   7.558
15582WAT     H146988   0.232   5.614   7.598
15582WAT     H246989   0.188   5.527   7.467
15583WAT      O46990   3.457   1.209   0.932
15583WAT     H146991   3.372   1.197   0.983
15583WAT     H246992   3.498   1.297   0.953
15584WAT      O46993   9.230   5.310   6.287
15584WAT     H146994   9.317   5.346   6.320
15584WAT     H246995   9.237   5.289   6.189
15585WAT      O46996   4.319   0.575   6.540
15585WAT     H146997   4.394   0.581   6.605
15585WAT     H246998   4.238   0.620   6.578
15586WAT      O46999   1.152   3.829   0.657
15586WAT     H147000   1.081   3.897   0.673
15586WAT     H247001   1.227   3.870   0.605
15587WAT      O47002   1.407   1.215   1.198
15587WAT     H147003   1.483   1.195   1.259
15587WAT     H247004   1.440   1.270   1.121
15588WAT      O47005   1.929   8.245   0.041
15588WAT     H147006   1.900   8.335   0.071
15588WAT     H247007   1.996   8.254  -0.032
15589WAT      O47008   8.184   4.395   1.117
15589WAT     H147009   8.090   4.425   1.102
15589WAT     H247010   8.185   4.313   1.175
15590WAT      O47011   3.588   0.349   2.363
15590WAT     H147012   3.641   0.303   2.292
15590WAT     H247013   3.499   0.303   2.372
15591WAT      O47014   5.570   1.326   7.085
15591WAT     H147015   5.523   1.264   7.148
15591WAT     H247016   5.571   1.286   6.993
15592WAT      O47017   3.929   4.621   1.238
15592WAT     H147018   3.970   4.682   1.170
15592WAT     H247019   3.832   4.642   1.248
15593WAT      O47020   3.749   7.104   8.338
15593WAT     H147021   3.665   7.136   8.383
15593WAT     H247022   3.742   7.007   8.318
15594WAT      O47023   2.024   0.352   5.227
15594WAT     H147024   1.951   0.378   5.164
15594WAT     H247025   1.985   0.308   5.307
15595WAT      O47026   4.217   3.910   4.560
15595WAT     H147027   4.230   3.891   4.462
15595WAT     H247028   4.306   3.907   4.607
15596WAT      O47029   3.171   5.956   7.875
15596WAT     H147030   3.173   5.989   7.781
15596WAT     H247031   3.240   5.884   7.886
15597WAT      O47032   5.139   8.707   0.538
15597WAT     H147033   5.182   8.617   0.530
15597WAT     H247034   5.202   8.771   0.582
15598WAT      O47035   7.086   8.055   3.332
15598WAT     H147036   7.084   8.154   3.336
15598WAT     H247037   7.017   8.022   3.268
15599WAT      O47038   4.033   2.146   4.122
15599WAT     H147039   4.059   2.150   4.218
15599WAT     H247040   4.107   2.106   4.068
15600WAT      O47041   7.396   4.752   5.454
15600WAT     H147042   7.447   4.666   5.459
15600WAT     H247043   7.299   4.733   5.443
15601WAT      O47044   3.959   5.194   6.127
15601WAT     H147045   3.879   5.249   6.150
15601WAT     H247046   4.039   5.228   6.178
15602WAT      O47047   4.389   7.688   3.800
15602WAT     H147048   4.462   7.756   3.807
15602WAT     H247049   4.310   7.719   3.853
15603WAT      O47050   2.706   1.863   3.318
15603WAT     H147051   2.773   1.902   3.254
15603WAT     H247052   2.754   1.811   3.388
15604WAT      O47053   8.821   4.034   0.876
15604WAT     H147054   8.834   4.010   0.972
15604WAT     H247055   8.741   3.985   0.840
15605WAT      O47056   4.104   8.386   2.788
15605WAT     H147057   4.027   8.328   2.762
15605WAT     H247058   4.082   8.435   2.873
15606WAT      O47059   6.343   7.516   7.939
15606WAT     H147060   6.278   7.572   7.887
15606WAT     H247061   6.353   7.554   8.030
15607WAT      O47062   2.929   3.043   4.201
15607WAT     H147063   2.964   3.036   4.107
15607WAT     H247064   2.870   3.123   4.209
15608WAT      O47065   8.936   1.933   6.474
15608WAT     H147066   8.856   1.985   6.443
15608WAT     H247067   9.018   1.969   6.430
15609WAT      O47068   9.823   6.232   5.849
15609WAT     H147069   9.770   6.243   5.764
15609WAT     H247070   9.770   6.179   5.915
15610WAT      O47071   0.629   6.464   8.203
15610WAT     H147072   0.691   6.542   8.208
15610WAT     H247073   0.678   6.381   8.228
15611WAT      O47074   3.347   7.137   4.597
15611WAT     H147075   3.398   7.069   4.544
15611WAT     H247076   3.398   7.160   4.680
15612WAT      O47077   0.675   7.554   0.882
15612WAT     H147078   0.766   7.560   0.922
15612WAT     H247079   0.656   7.636   0.828
15613WAT      O47080   4.241   1.733   2.992
15613WAT     H147081   4.327   1.780   3.012
15613WAT     H247082   4.250   1.685   2.904
15614WAT      O47083   9.471   1.294   6.841
15614WAT     H147084   9.426   1.349   6.771
15614WAT     H247085   9.562   1.267   6.809
15615WAT      O47086   2.581   0.047   6.975
15615WAT     H147087   2.488   0.076   6.952
15615WAT     H247088   2.629   0.022   6.892
15616WAT      O47089   3.427   7.347   8.174
15616WAT     H147090   3.356   7.414   8.195
15616WAT     H247091   3.517   7.389   8.182
15617WAT      O47092   0.215   4.832   0.504
15617WAT     H147093   0.121   4.831   0.471
15617WAT     H247094   0.277   4.852   0.428
15618WAT      O47095   8.692   6.504   2.862
15618WAT     H147096   8.706   6.436   2.790
15618WAT     H247097   8.646   6.461   2.940
15619WAT      O47098   9.433   9.024   1.100
15619WAT     H147099   9.451   9.088   1.025
15619WAT     H247100   9.451   9.070   1.188
15620WAT      O47101   2.280   2.805   5.554
15620WAT     H147102   2.239   2.835   5.468
15620WAT     H247103   2.336   2.724   5.537
15621WAT      O47104   7.783   4.693   3.168
15621WAT     H147105   7.686   4.698   3.146
15621WAT     H247106   7.835   4.752   3.105
15622WAT      O47107   5.182   6.006   9.526
15622WAT     H147108   5.165   6.073   9.598
15622WAT     H247109   5.274   6.018   9.490
15623WAT      O47110   1.295   8.365   2.855
15623WAT     H147111   1.295   8.316   2.942
15623WAT     H247112   1.336   8.307   2.785
15624WAT      O47113   1.913   4.835   1.960
15624WAT     H147114   1.958   4.896   2.026
15624WAT     H247115   1.975   4.816   1.885
15625WAT      O47116   0.781   7.105   5.760
15625WAT     H147117   0.778   7.204   5.744
15625WAT     H247118   0.731   7.058   5.687
15626WAT      O47119   4.258   6.591   2.633
15626WAT     H147120   4.279   6.608   2.537
15626WAT     H247121   4.343   6.578   2.684
15627WAT      O47122   8.132   4.807   3.940
15627WAT     H147123   8.222   4.779   3.907
15627WAT     H247124   8.071   4.728   3.940
15628WAT      O47125   9.315   3.241   3.455
15628WAT     H147126   9.398   3.297   3.458
15628WAT     H247127   9.275   3.235   3.546
15629WAT      O47128   4.740   3.632   6.782
15629WAT     H147129   4.744   3.537   6.815
15629WAT     H247130   4.725   3.633   6.684
15630WAT      O47131   4.290   9.800   0.388
15630WAT     H147132   4.263   9.894   0.364
15630WAT     H247133   4.363   9.803   0.456
15631WAT      O47134   9.830   0.058   2.003
15631WAT     H147135   9.761   0.086   2.071
15631WAT     H247136   9.824   0.119   1.924
15632WAT      O47137   2.801   0.943   8.177
15632WAT     H147138   2.860   0.958   8.257
15632WAT     H247139   2.799   0.846   8.154
15633WAT      O47140   4.691   0.367   7.037
15633WAT     H147141   4.737   0.422   7.107
15633WAT     H247142   4.594   0.361   7.057
15634WAT      O47143   6.325   9.617   2.457
15634WAT     H147144   6.318   9.705   2.504
15634WAT     H247145   6.330   9.543   2.524
15635WAT      O47146   2.779   8.361   6.221
15635WAT     H147147   2.807   8.288   6.158
15635WAT     H247148   2.789   8.330   6.315
15636WAT      O47149   0.875   5.190   6.179
15636WAT     H147150   0.885   5.186   6.080
15636WAT     H247151   0.795   5.136   6.206
15637WAT      O47152   4.648   4.107   4.565
15637WAT     H147153   4.595   4.184   4.530
15637WAT     H247154   4.746   4.128   4.560
15638WAT      O47155   5.366   7.159   3.907
15638WAT     H147156   5.444   7.097   3.913
15638WAT     H247157   5.281   7.109   3.924
15639WAT      O47158   5.074   6.380   3.196
15639WAT     H147159   4.987   6.337   3.219
15639WAT     H247160   5.071   6.411   3.101
15640WAT      O47161   0.281   6.063   5.767
15640WAT     H147162   0.365   6.010   5.781
15640WAT     H247163   0.202   6.004   5.782
15641WAT      O47164   7.035   0.539   0.653
15641WAT     H147165   6.939   0.552   0.630
15641WAT     H247166   7.052   0.570   0.747
15642WAT      O47167   9.439   1.961   1.205
15642WAT     H147168   9.434   1.931   1.300
15642WAT     H247169   9.355   2.010   1.180
15643WAT      O47170   3.296   9.505   9.229
15643WAT     H147171   3.333   9.460   9.148
15643WAT     H247172   3.333   9.598   9.235
15644WAT      O47173   6.071   6.466   7.347
15644WAT     H147174   6.153   6.490   7.294
15644WAT     H247175   5.990   6.487   7.292
15645WAT      O47176   3.588   8.714   8.960
15645WAT     H147177   3.546   8.802   8.983
15645WAT     H247178   3.594   8.657   9.042
15646WAT      O47179   4.950   2.787   9.406
15646WAT     H147180   5.049   2.772   9.396
15646WAT     H247181   4.901   2.722   9.348
15647WAT      O47182   3.429   3.253   1.460
15647WAT     H147183   3.345   3.228   1.411
15647WAT     H247184   3.504   3.263   1.394
15648WAT      O47185   1.479   6.328   9.642
15648WAT     H147186   1.434   6.357   9.726
15648WAT     H247187   1.554   6.391   9.620
15649WAT      O47188   2.449   3.752   2.112
15649WAT     H147189   2.476   3.817   2.183
15649WAT     H247190   2.386   3.796   2.048
15650WAT      O47191   9.455   5.454   7.833
15650WAT     H147192   9.363   5.463   7.871
15650WAT     H247193   9.499   5.372   7.871
15651WAT      O47194   5.839   1.178   4.023
15651WAT     H147195   5.830   1.091   4.072
15651WAT     H247196   5.810   1.165   3.928
15652WAT      O47197   5.419   5.725   2.104
15652WAT     H147198   5.345   5.665   2.075
15652WAT     H247199   5.463   5.687   2.186
15653WAT      O47200   0.601   2.894   4.000
15653WAT     H147201   0.512   2.909   4.043
15653WAT     H247202   0.598   2.927   3.905
15654WAT      O47203   6.531   2.376   8.785
15654WAT     H147204   6.449   2.328   8.752
15654WAT     H247205   6.522   2.474   8.767
15655WAT      O47206   2.086   6.288   0.744
15655WAT     H147207   2.075   6.189   0.741
15655WAT     H247208   2.178   6.312   0.714
15656WAT      O47209   0.838   0.611   7.366
15656WAT     H147210   0.823   0.709   7.351
15656WAT     H247211   0.932   0.596   7.399
15657WAT      O47212   6.946   4.632   9.471
15657WAT     H147213   6.857   4.647   9.515
15657WAT     H247214   7.011   4.700   9.503
15658WAT      O47215   9.308   1.858   5.410
15658WAT     H147216   9.377   1.875   5.480
15658WAT     H247217   9.243   1.934   5.407
15659WAT      O47218   5.760   8.205   1.674
15659WAT     H147219   5.764   8.207   1.574
15659WAT     H247220   5.686   8.145   1.703
15660WAT      O47221   3.850   1.367   7.643
15660WAT     H147222   3.886   1.405   7.728
15660WAT     H247223   3.821   1.442   7.583
15661WAT      O47224   9.767   8.619   0.541
15661WAT     H147225   9.804   8.527   0.552
15661WAT     H247226   9.780   8.671   0.625
15662WAT      O47227   2.490   2.172   7.403
15662WAT     H147228   2.575   2.128   7.431
15662WAT     H247229   2.449   2.217   7.483
15663WAT      O47230   7.108   3.733   1.284
15663WAT     H147231   7.098   3.804   1.354
15663WAT     H247232   7.122   3.644   1.328
15664WAT      O47233   5.993   6.856   5.242
15664WAT     H147234   5.964   6.842   5.337
15664WAT     H247235   6.090   6.876   5.239
15665WAT      O47236   0.026   6.237   9.599
15665WAT     H147237   0.079   6.199   9.675
15665WAT     H247238   0.032   6.337   9.600
15666WAT      O47239   6.940   4.128   8.250
15666WAT     H147240   6.855   4.082   8.228
15666WAT     H247241   6.992   4.074   8.317
15667WAT      O47242   1.861   1.556   3.159
15667WAT     H147243   1.776   1.607   3.158
15667WAT     H247244   1.853   1.479   3.223
15668WAT      O47245   3.790   0.137   5.531
15668WAT     H147246   3.823   0.183   5.614
15668WAT     H247247   3.855   0.153   5.456
15669WAT      O47248   0.854   5.601   6.674
15669WAT     H147249   0.920   5.675   6.685
15669WAT     H247250   0.842   5.580   6.577
15670WAT      O47251   6.656   6.944   9.262
15670WAT     H147252   6.699   7.026   9.224
15670WAT     H247253   6.582   6.915   9.202
15671WAT      O47254   6.558   8.769   7.456
15671WAT     H147255   6.528   8.810   7.542
15671WAT     H247256   6.532   8.673   7.453
15672WAT      O47257   8.201   7.737   1.051
15672WAT     H147258   8.141   7.701   1.121
15672WAT     H247259   8.159   7.725   0.961
15673WAT      O47260   5.916   1.988   9.552
15673WAT     H147261   5.962   1.918   9.606
15673WAT     H247262   5.829   1.952   9.518
15674WAT      O47263   0.709   7.178   8.878
15674WAT     H147264   0.688   7.274   8.858
15674WAT     H247265   0.778   7.173   8.950
15675WAT      O47266   5.547   8.328   0.875
15675WAT     H147267   5.601   8.365   0.800
15675WAT     H247268   5.607   8.303   0.950
15676WAT      O47269   6.059   8.945   6.745
15676WAT     H147270   6.091   9.034   6.712
15676WAT     H247271   6.083   8.874   6.678
15677WAT      O47272   9.280   9.591   7.518
15677WAT     H147273   9.350   9.575   7.587
15677WAT     H247274   9.249   9.503   7.481
15678WAT      O47275   3.812   8.336   2.741
15678WAT     H147276   3.731   8.280   2.753
15678WAT     H247277   3.875   8.291   2.678
15679WAT      O47278   9.018   8.104   5.884
15679WAT     H147279   9.030   8.048   5.966
15679WAT     H247280   9.073   8.187   5.891
15680WAT      O47281   5.851   7.167   7.379
15680WAT     H147282   5.762   7.179   7.421
15680WAT     H247283   5.913   7.239   7.410
15681WAT      O47284   4.679   6.201   1.546
15681WAT     H147285   4.710   6.240   1.633
15681WAT     H247286   4.584   6.226   1.530
15682WAT      O47287   2.183   3.868   9.186
15682WAT     H147288   2.280   3.842   9.184
15682WAT     H247289   2.165   3.934   9.113
15683WAT      O47290   6.078   9.458   2.810
15683WAT     H147291   6.026   9.543   2.798
15683WAT     H247292   6.139   9.467   2.888
15684WAT      O47293   4.920   7.322   9.143
15684WAT     H147294   4.954   7.367   9.060
15684WAT     H247295   4.982   7.250   9.171
15685WAT      O47296   0.382   2.555   2.495
15685WAT     H147297   0.394   2.618   2.418
15685WAT     H247298   0.347   2.468   2.460
15686WAT      O47299   9.741   3.343   9.412
15686WAT     H147300   9.643   3.336   9.395
15686WAT     H247301   9.791   3.327   9.327
15687WAT      O47302   4.437   7.992   6.755
15687WAT     H147303   4.470   8.071   6.702
15687WAT     H247304   4.485   7.910   6.724
15688WAT      O47305   8.495   2.533   8.635
15688WAT     H147306   8.411   2.499   8.678
15688WAT     H247307   8.574   2.506   8.689
15689WAT      O47308   2.560   9.333   7.832
15689WAT     H147309   2.504   9.307   7.911
15689WAT     H247310   2.575   9.253   7.774
15690WAT      O47311   1.962   9.569   6.296
15690WAT     H147312   1.922   9.490   6.342
15690WAT     H247313   1.982   9.641   6.363
15691WAT      O47314   4.956   8.194   5.920
15691WAT     H147315   5.038   8.247   5.895
15691WAT     H247316   4.893   8.252   5.970
15692WAT      O47317   6.440   6.273   6.261
15692WAT     H147318   6.537   6.253   6.273
15692WAT     H247319   6.387   6.188   6.257
15693WAT      O47320   8.373   1.358   7.847
15693WAT     H147321   8.340   1.278   7.897
15693WAT     H247322   8.297   1.422   7.833
15694WAT      O47323   0.207   7.369   6.184
15694WAT     H147324   0.280   7.434   6.206
15694WAT     H247325   0.234   7.278   6.213
15695WAT      O47326   6.272   1.592   7.140
15695WAT     H147327   6.243   1.520   7.076
15695WAT     H247328   6.309   1.550   7.223
15696WAT      O47329   3.267   9.430   9.511
15696WAT     H147330   3.261   9.336   9.545
15696WAT     H247331   3.245   9.432   9.413
15697WAT      O47332   2.942   7.532   8.891
15697WAT     H147333   2.843   7.544   8.894
15697WAT     H247334   2.964   7.438   8.864
15698WAT      O47335   9.059   6.078   4.006
15698WAT     H147336   9.154   6.097   4.032
15698WAT     H247337   9.031   6.140   3.932
15699WAT      O47338   7.985   1.618   4.568
15699WAT     H147339   7.982   1.623   4.668
15699WAT     H247340   8.079   1.635   4.537
15700WAT      O47341   7.025   9.718   9.551
15700WAT     H147342   7.015   9.691   9.647
15700WAT     H247343   6.966   9.797   9.533
15701WAT      O47344   1.423   5.220   3.261
15701WAT     H147345   1.337   5.238   3.213
15701WAT     H247346   1.410   5.235   3.359
15702WAT      O47347   3.521   1.805   8.363
15702WAT     H147348   3.445   1.847   8.314
15702WAT     H247349   3.496   1.790   8.458
15703WAT      O47350   1.785   8.102   9.348
15703WAT     H147351   1.688   8.123   9.361
15703WAT     H247352   1.794   8.020   9.292
15704WAT      O47353   2.243   2.094   0.084
15704WAT     H147354   2.294   2.140   0.011
15704WAT     H247355   2.290   2.009   0.109
15705WAT      O47356   7.298   3.501   6.618
15705WAT     H147357   7.204   3.480   6.641
15705WAT     H247358   7.306   3.598   6.593
15706WAT      O47359   5.839   3.464   6.933
15706WAT     H147360   5.811   3.444   6.839
15706WAT     H247361   5.935   3.491   6.934
15707WAT      O47362   5.364   5.581   2.513
15707WAT     H147363   5.391   5.534   2.597
15707WAT     H247364   5.273   5.551   2.486
15708WAT      O47365   6.750   3.949   0.444
15708WAT     H147366   6.811   4.029   0.449
15708WAT     H247367   6.796   3.870   0.483
15709WAT      O47368   7.308   9.120   1.396
15709WAT     H147369   7.279   9.177   1.473
15709WAT     H247370   7.401   9.144   1.369
15710WAT      O47371   0.971   0.556   4.997
15710WAT     H147372   1.016   0.473   4.962
15710WAT     H247373   1.029   0.596   5.069
15711WAT      O47374   9.384   0.538   6.251
15711WAT     H147375   9.301   0.483   6.257
15711WAT     H247376   9.436   0.530   6.336
15712WAT      O47377   2.326   0.018   0.660
15712WAT     H147378   2.419  -0.001   0.629
15712WAT     H247379   2.264   0.017   0.582
15713WAT      O47380   1.267   9.749   8.462
15713WAT     H147381   1.227   9.698   8.386
15713WAT     H247382   1.241   9.706   8.549
15714WAT      O47383   6.883   5.633   1.870
15714WAT     H147384   6.928   5.676   1.791
15714WAT     H247385   6.888   5.694   1.949
15715WAT      O47386   5.341   0.387   9.641
15715WAT     H147387   5.379   0.295   9.634
15715WAT     H247388   5.411   0.449   9.676
15716WAT      O47389   0.609   5.436   2.379
15716WAT     H147390   0.612   5.520   2.324
15716WAT     H247391   0.568   5.457   2.468
15717WAT      O47392   4.612   8.379   3.386
15717WAT     H147393   4.622   8.327   3.470
15717WAT     H247394   4.702   8.395   3.346
15718WAT      O47395   3.502   6.769   9.722
15718WAT     H147396   3.416   6.730   9.755
15718WAT     H247397   3.551   6.700   9.669
15719WAT      O47398   6.591   5.999   8.858
15719WAT     H147399   6.510   5.998   8.917
15719WAT     H247400   6.620   6.093   8.843
15720WAT      O47401   0.353   3.254   6.305
15720WAT     H147402   0.392   3.191   6.238
15720WAT     H247403   0.368   3.218   6.398
15721WAT      O47404   5.445   7.876   4.200
15721WAT     H147405   5.472   7.904   4.293
15721WAT     H247406   5.386   7.796   4.206
15722WAT      O47407   3.102   6.214   6.581
15722WAT     H147408   3.102   6.116   6.558
15722WAT     H247409   3.143   6.266   6.506
15723WAT      O47410   6.318   1.264   5.361
15723WAT     H147411   6.320   1.164   5.358
15723WAT     H247412   6.323   1.295   5.456
15724WAT      O47413   6.290   7.034   9.658
15724WAT     H147414   6.295   6.999   9.564
15724WAT     H247415   6.315   6.961   9.721
15725WAT      O47416   1.053   7.817   7.227
15725WAT     H147417   0.960   7.779   7.233
15725WAT     H247418   1.090   7.800   7.136
15726WAT      O47419   3.667   8.926   3.510
15726WAT     H147420   3.662   8.874   3.596
15726WAT     H247421   3.730   9.003   3.522
15727WAT      O47422   1.341   7.175   9.005
15727WAT     H147423   1.275   7.247   9.027
15727WAT     H247424   1.421   7.215   8.960
15728WAT      O47425   8.276   3.882   6.028
15728WAT     H147426   8.189   3.837   6.013
15728WAT     H247427   8.340   3.818   6.072
15729WAT      O47428   6.771   0.206   3.272
15729WAT     H147429   6.683   0.251   3.259
15729WAT     H247430   6.792   0.152   3.190
15730WAT      O47431   6.293   6.956   7.235
15730WAT     H147432   6.300   6.905   7.149
15730WAT     H247433   6.226   7.030   7.225
15731WAT      O47434   6.318   0.858   8.379
15731WAT     H147435   6.250   0.813   8.321
15731WAT     H247436   6.288   0.855   8.474
15732WAT      O47437   3.386   6.897   4.038
15732WAT     H147438   3.452   6.948   4.092
15732WAT     H247439   3.414   6.897   3.942
15733WAT      O47440   4.227   0.679   0.198
15733WAT     H147441   4.167   0.730   0.137
15733WAT     H247442   4.200   0.583   0.199
15734WAT      O47443   8.587   9.598   1.375
15734WAT     H147444   8.526   9.576   1.299
15734WAT     H247445   8.536   9.649   1.445
15735WAT      O47446   2.193   5.279   3.521
15735WAT     H147447   2.252   5.359   3.514
15735WAT     H247448   2.207   5.235   3.610
15736WAT      O47449   6.067   2.212   1.531
15736WAT     H147450   5.968   2.208   1.545
15736WAT     H247451   6.113   2.227   1.619
15737WAT      O47452   3.151   3.613   3.838
15737WAT     H147453   3.245   3.635   3.812
15737WAT     H247454   3.103   3.697   3.865
15738WAT      O47455   2.504   8.787   7.478
15738WAT     H147456   2.576   8.809   7.412
15738WAT     H247457   2.546   8.748   7.560
15739WAT      O47458   1.955   2.051   9.056
15739WAT     H147459   1.994   2.018   8.969
15739WAT     H247460   1.900   1.979   9.097
15740WAT      O47461   6.800   4.392   9.155
15740WAT     H147462   6.838   4.482   9.175
15740WAT     H247463   6.749   4.359   9.234
15741WAT      O47464   2.291   5.424   2.163
15741WAT     H147465   2.335   5.504   2.123
15741WAT     H247466   2.326   5.409   2.256
15742WAT      O47467   7.982   3.489   7.350
15742WAT     H147468   7.966   3.580   7.387
15742WAT     H247469   8.080   3.469   7.351
15743WAT      O47470   6.722   5.126   5.531
15743WAT     H147471   6.734   5.224   5.547
15743WAT     H247472   6.660   5.089   5.600
15744WAT      O47473   8.010   0.237   7.494
15744WAT     H147474   8.031   0.295   7.573
15744WAT     H247475   8.086   0.241   7.429
15745WAT      O47476   0.862   2.228   0.154
15745WAT     H147477   0.765   2.229   0.180
15745WAT     H247478   0.876   2.161   0.081
15746WAT      O47479   6.917   6.828   8.857
15746WAT     H147480   6.862   6.898   8.811
15746WAT     H247481   7.010   6.863   8.870
15747WAT      O47482   2.108   4.053   8.668
15747WAT     H147483   2.146   4.139   8.702
15747WAT     H247484   2.180   4.000   8.624
15748WAT      O47485   3.864   3.667   4.114
15748WAT     H147486   3.866   3.693   4.210
15748WAT     H247487   3.811   3.583   4.103
15749WAT      O47488   4.076   2.368   7.028
15749WAT     H147489   4.128   2.283   7.020
15749WAT     H247490   4.085   2.420   6.943
15750WAT      O47491   8.646   5.289   6.758
15750WAT     H147492   8.676   5.254   6.669
15750WAT     H247493   8.708   5.362   6.787
15751WAT      O47494   8.604   7.065   7.623
15751WAT     H147495   8.526   7.011   7.654
15751WAT     H247496   8.584   7.162   7.637
15752WAT      O47497   4.475   5.545   7.505
15752WAT     H147498   4.498   5.624   7.562
15752WAT     H247499   4.378   5.546   7.483
15753WAT      O47500   6.147   5.316   6.435
15753WAT     H147501   6.111   5.252   6.367
15753WAT     H247502   6.237   5.348   6.405
15754WAT      O47503   1.234   7.826   2.242
15754WAT     H147504   1.151   7.848   2.190
15754WAT     H247505   1.247   7.726   2.242
15755WAT      O47506   5.706   7.799   1.592
15755WAT     H147507   5.739   7.837   1.506
15755WAT     H247508   5.606   7.798   1.593
15756WAT      O47509   7.472   2.539   4.817
15756WAT     H147510   7.504   2.448   4.790
15756WAT     H247511   7.420   2.580   4.742
15757WAT      O47512   6.889   0.165   0.677
15757WAT     H147513   6.966   0.107   0.703
15757WAT     H247514   6.880   0.240   0.743
15758WAT      O47515   1.561   3.923   2.862
15758WAT     H147516   1.620   3.854   2.820
15758WAT     H247517   1.563   3.913   2.961
15759WAT      O47518   7.881   2.924   8.550
15759WAT     H147519   7.966   2.976   8.555
15759WAT     H247520   7.834   2.929   8.639
15760WAT      O47521   8.564   4.964   2.128
15760WAT     H147522   8.656   4.929   2.141
15760WAT     H247523   8.558   5.010   2.039
15761WAT      O47524   6.212   0.708   4.929
15761WAT     H147525   6.261   0.622   4.944
15761WAT     H247526   6.208   0.727   4.831
15762WAT      O47527   9.095   8.071   4.187
15762WAT     H147528   9.028   8.134   4.226
15762WAT     H247529   9.072   7.977   4.214
15763WAT      O47530   0.236   9.810   6.263
15763WAT     H147531   0.221   9.835   6.167
15763WAT     H247532   0.152   9.827   6.315
15764WAT      O47533   2.266   9.786   8.017
15764WAT     H147534   2.320   9.746   8.091
15764WAT     H247535   2.219   9.868   8.050
15765WAT      O47536   8.554   7.534   2.131
15765WAT     H147537   8.463   7.496   2.149
15765WAT     H247538   8.577   7.521   2.034
15766WAT      O47539   5.716   5.866   0.232
15766WAT     H147540   5.802   5.885   0.185
15766WAT     H247541   5.709   5.921   0.315
15767WAT      O47542   9.275   3.225   0.023
15767WAT     H147543   9.353   3.175   0.060
15767WAT     H247544   9.309   3.301  -0.033
15768WAT      O47545   9.761   2.997   7.239
15768WAT     H147546   9.742   3.034   7.330
15768WAT     H247547   9.712   2.910   7.228
15769WAT      O47548   7.355   0.087   5.903
15769WAT     H147549   7.423   0.068   5.975
15769WAT     H247550   7.275   0.131   5.944
15770WAT      O47551   4.876   5.175   5.058
15770WAT     H147552   4.811   5.107   5.093
15770WAT     H247553   4.874   5.256   5.117
15771WAT      O47554   5.050   9.038   3.185
15771WAT     H147555   5.101   9.071   3.265
15771WAT     H247556   4.990   8.963   3.214
15772WAT      O47557   6.115   7.792   1.291
15772WAT     H147558   6.137   7.755   1.381
15772WAT     H247559   6.036   7.743   1.254
15773WAT      O47560   4.953   3.549   6.385
15773WAT     H147561   4.968   3.616   6.458
15773WAT     H247562   4.912   3.593   6.306
15774WAT      O47563   7.508   4.734   4.283
15774WAT     H147564   7.573   4.801   4.246
15774WAT     H247565   7.417   4.753   4.247
15775WAT      O47566   4.926   1.571   1.850
15775WAT     H147567   4.962   1.478   1.859
15775WAT     H247568   4.852   1.571   1.782
15776WAT      O47569   6.680   8.407   7.884
15776WAT     H147570   6.663   8.440   7.977
15776WAT     H247571   6.741   8.328   7.888
15777WAT      O47572   7.589   7.353   5.039
15777WAT     H147573   7.560   7.429   4.981
15777WAT     H247574   7.519   7.335   5.108
15778WAT      O47575   0.733   9.433   7.101
15778WAT     H147576   0.818   9.456   7.149
15778WAT     H247577   0.727   9.334   7.088
15779WAT      O47578   6.891   3.857   5.023
15779WAT     H147579   6.828   3.836   4.948
15779WAT     H247580   6.886   3.955   5.043
15780WAT      O47581   8.621   5.156   9.304
15780WAT     H147582   8.581   5.217   9.237
15780WAT     H247583   8.717   5.137   9.280
15781WAT      O47584   5.536   9.050   5.431
15781WAT     H147585   5.529   8.976   5.365
15781WAT     H247586   5.485   9.027   5.514
15782WAT      O47587   3.100   7.473   5.250
15782WAT     H147588   3.149   7.428   5.324
15782WAT     H247589   3.066   7.404   5.186
15783WAT      O47590   2.987   9.650   2.169
15783WAT     H147591   2.935   9.734   2.150
15783WAT     H247592   2.925   9.572   2.175
15784WAT      O47593   8.989   1.545   2.569
15784WAT     H147594   9.026   1.580   2.655
15784WAT     H247595   8.931   1.466   2.587
15785WAT      O47596   5.792   5.060   0.442
15785WAT     H147597   5.882   5.063   0.485
15785WAT     H247598   5.722   5.088   0.508
15786WAT      O47599   5.197   8.090   3.378
15786WAT     H147600   5.201   8.071   3.280
15786WAT     H247601   5.241   8.177   3.398
15787WAT      O47602   9.729   2.090   6.086
15787WAT     H147603   9.691   2.083   5.994
15787WAT     H247604   9.712   2.006   6.136
15788WAT      O47605   7.276   2.118   3.166
15788WAT     H147606   7.370   2.152   3.167
15788WAT     H247607   7.215   2.187   3.205
15789WAT      O47608   7.815   8.905   3.864
15789WAT     H147609   7.805   8.985   3.924
15789WAT     H247610   7.912   8.887   3.848
15790WAT      O47611   4.538   2.209   9.523
15790WAT     H147612   4.508   2.118   9.552
15790WAT     H247613   4.496   2.278   9.582
15791WAT      O47614   6.301   4.990   2.182
15791WAT     H147615   6.351   4.921   2.235
15791WAT     H247616   6.235   4.945   2.123
15792WAT      O47617   7.070   3.250   0.167
15792WAT     H147618   7.050   3.342   0.200
15792WAT     H247619   7.054   3.246   0.068
15793WAT      O47620   7.733   2.632   4.835
15793WAT     H147621   7.752   2.691   4.913
15793WAT     H247622   7.636   2.607   4.835
15794WAT      O47623   4.846   7.130   0.153
15794WAT     H147624   4.809   7.222   0.141
15794WAT     H247625   4.929   7.120   0.098
15795WAT      O47626   1.397   5.561   6.549
15795WAT     H147627   1.481   5.549   6.603
15795WAT     H247628   1.322   5.512   6.593
15796WAT      O47629   0.321   2.857   0.143
15796WAT     H147630   0.269   2.825   0.223
15796WAT     H247631   0.355   2.779   0.092
15797WAT      O47632   1.769   3.987   8.003
15797WAT     H147633   1.796   4.016   7.911
15797WAT     H247634   1.819   4.041   8.071
15798WAT      O47635   5.796   0.225   2.964
15798WAT     H147636   5.748   0.185   2.887
15798WAT     H247637   5.895   0.214   2.951
15799WAT      O47638   9.617   3.601   4.894
15799WAT     H147639   9.639   3.528   4.958
15799WAT     H247640   9.532   3.646   4.922
15800WAT      O47641   1.853   2.191   0.277
15800WAT     H147642   1.862   2.175   0.178
15800WAT     H247643   1.758   2.213   0.298
15801WAT      O47644   4.163   5.327   6.347
15801WAT     H147645   4.159   5.421   6.314
15801WAT     H247646   4.255   5.292   6.336
15802WAT      O47647   3.247   5.682   3.908
15802WAT     H147648   3.341   5.710   3.890
15802WAT     H247649   3.224   5.603   3.850
15803WAT      O47650   1.539   7.571   2.258
15803WAT     H147651   1.569   7.666   2.266
15803WAT     H247652   1.508   7.538   2.347
15804WAT      O47653   9.524   6.876   4.877
15804WAT     H147654   9.594   6.936   4.917
15804WAT     H247655   9.500   6.804   4.943
15805WAT      O47656   9.230   1.930   0.410
15805WAT     H147657   9.326   1.945   0.436
15805WAT     H247658   9.173   1.932   0.492
15806WAT      O47659   2.365   7.700   1.628
15806WAT     H147660   2.321   7.782   1.667
15806WAT     H247661   2.356   7.625   1.693
15807WAT      O47662   9.475   9.054   4.951
15807WAT     H147663   9.412   9.050   4.875
15807WAT     H247664   9.467   9.144   4.996
15808WAT      O47665   2.326   5.450   3.307
15808WAT     H147666   2.404   5.484   3.255
15808WAT     H247667   2.251   5.517   3.302
15809WAT      O47668   3.743   4.912   6.745
15809WAT     H147669   3.716   4.823   6.710
15809WAT     H247670   3.842   4.922   6.737
15810WAT      O47671   1.803   3.791   9.117
15810WAT     H147672   1.792   3.890   9.104
15810WAT     H247673   1.882   3.773   9.175
15811WAT      O47674   4.591   1.914   1.374
15811WAT     H147675   4.622   1.867   1.457
15811WAT     H247676   4.599   1.852   1.296
15812WAT      O47677   8.686   3.080   0.073
15812WAT     H147678   8.645   3.007   0.127
15812WAT     H247679   8.785   3.072   0.076
15813WAT      O47680   8.020   6.984   4.925
15813WAT     H147681   7.974   6.953   4.841
15813WAT     H247682   8.105   7.032   4.901
15814WAT      O47683   6.457   1.172   0.901
15814WAT     H147684   6.508   1.183   0.987
15814WAT     H247685   6.490   1.238   0.834
15815WAT      O47686   9.159   4.139   5.639
15815WAT     H147687   9.223   4.212   5.613
15815WAT     H247688   9.066   4.174   5.635
15816WAT      O47689   3.232   4.043   3.490
15816WAT     H147690   3.142   4.022   3.452
15816WAT     H247691   3.232   4.028   3.588
15817WAT      O47692   7.186   7.146   6.835
15817WAT     H147693   7.174   7.121   6.739
15817WAT     H247694   7.148   7.074   6.893
15818WAT      O47695   6.085   2.190   6.838
15818WAT     H147696   6.078   2.103   6.790
15818WAT     H247697   6.002   2.244   6.822
15819WAT      O47698   0.917   9.032   8.019
15819WAT     H147699   0.844   8.966   8.037
15819WAT     H247700   0.882   9.106   7.962
15820WAT      O47701   3.411   7.048   9.767
15820WAT     H147702   3.454   6.962   9.739
15820WAT     H247703   3.483   7.115   9.787
15821WAT      O47704   8.644   4.344   9.564
15821WAT     H147705   8.651   4.317   9.660
15821WAT     H247706   8.602   4.271   9.511
15822WAT      O47707   5.174   6.047   8.787
15822WAT     H147708   5.210   5.954   8.798
15822WAT     H247709   5.250   6.113   8.791
15823WAT      O47710   7.395   1.473   8.038
15823WAT     H147711   7.435   1.531   8.109
15823WAT     H247712   7.384   1.380   8.073
15824WAT      O47713   6.385   2.629   5.659
15824WAT     H147714   6.423   2.720   5.669
15824WAT     H247715   6.372   2.609   5.562
15825WAT      O47716   5.811   2.345   1.067
15825WAT     H147717   5.783   2.409   1.139
15825WAT     H247718   5.909   2.356   1.049
15826WAT      O47719   3.145   4.572   8.572
15826WAT     H147720   3.076   4.513   8.615
15826WAT     H247721   3.164   4.539   8.480
15827WAT      O47722   1.879   5.372   8.904
15827WAT     H147723   1.956   5.427   8.935
15827WAT     H247724   1.793   5.418   8.927
15828WAT      O47725   1.997   5.550   7.970
15828WAT     H147726   2.093   5.555   7.944
15828WAT     H247727   1.976   5.625   8.033
15829WAT      O47728   8.882   7.616   0.167
15829WAT     H147729   8.807   7.679   0.186
15829WAT     H247730   8.873   7.581   0.073
15830WAT      O47731   2.478   8.041   8.021
15830WAT     H147732   2.385   8.076   8.031
15830WAT     H247733   2.518   8.076   7.936
15831WAT      O47734   3.777   2.419   7.659
15831WAT     H147735   3.743   2.459   7.574
15831WAT     H247736   3.837   2.342   7.639
15832WAT      O47737   9.760   5.923   1.181
15832WAT     H147738   9.858   5.944   1.182
15832WAT     H247739   9.734   5.883   1.268
15833WAT      O47740   3.331   4.100   6.820
15833WAT     H147741   3.388   4.039   6.876
15833WAT     H247742   3.328   4.190   6.862
15834WAT      O47743   8.704   7.106   8.330
15834WAT     H147744   8.709   7.203   8.307
15834WAT     H247745   8.615   7.070   8.303
15835WAT      O47746   3.701   9.170   2.974
15835WAT     H147747   3.761   9.240   2.934
15835WAT     H247748   3.684   9.191   3.070
15836WAT      O47749   9.284   9.246   8.062
15836WAT     H147750   9.334   9.326   8.094
15836WAT     H247751   9.347   9.171   8.045
15837WAT      O47752   3.011   5.190   7.525
15837WAT     H147753   2.990   5.095   7.502
15837WAT     H247754   2.929   5.234   7.562
15838WAT      O47755   7.436   8.043   3.882
15838WAT     H147756   7.350   8.009   3.920
15838WAT     H247757   7.505   7.971   3.887
15839WAT      O47758   9.703   8.617   1.010
15839WAT     H147759   9.694   8.526   1.050
15839WAT     H247760   9.631   8.677   1.045
15840WAT      O47761   9.813   3.232   6.726
15840WAT     H147762   9.836   3.135   6.726
15840WAT     H247763   9.885   3.283   6.679
15841WAT      O47764   7.832   5.672   0.101
15841WAT     H147765   7.779   5.619   0.168
15841WAT     H247766   7.920   5.699   0.141
15842WAT      O47767   0.831   4.343   8.397
15842WAT     H147768   0.779   4.350   8.482
15842WAT     H247769   0.773   4.371   8.320
15843WAT      O47770   9.426   4.483   2.737
15843WAT     H147771   9.409   4.498   2.834
15843WAT     H247772   9.369   4.546   2.683
15844WAT      O47773   7.515   3.380   1.011
15844WAT     H147774   7.453   3.302   1.011
15844WAT     H247775   7.610   3.348   1.007
15845WAT      O47776   9.564   9.403   2.120
15845WAT     H147777   9.657   9.386   2.087
15845WAT     H247778   9.531   9.489   2.082
15846WAT      O47779   9.637   0.332   1.331
15846WAT     H147780   9.719   0.330   1.389
15846WAT     H247781   9.586   0.416   1.349
15847WAT      O47782   3.242   4.659   9.291
15847WAT     H147783   3.172   4.700   9.350
15847WAT     H247784   3.321   4.720   9.285
15848WAT      O47785   0.763   0.653   7.866
15848WAT     H147786   0.680   0.612   7.827
15848WAT     H247787   0.838   0.643   7.802
15849WAT      O47788   3.072   9.545   6.202
15849WAT     H147789   3.092   9.523   6.106
15849WAT     H247790   3.133   9.494   6.262
15850WAT      O47791   9.362   3.082   5.222
15850WAT     H147792   9.342   2.994   5.264
15850WAT     H247793   9.301   3.152   5.260
15851WAT      O47794   8.203   0.165   3.222
15851WAT     H147795   8.116   0.141   3.180
15851WAT     H247796   8.278   0.119   3.174
15852WAT      O47797   4.121   7.532   7.736
15852WAT     H147798   4.032   7.537   7.691
15852WAT     H247799   4.107   7.537   7.835
15853WAT      O47800   2.131   5.255   7.831
15853WAT     H147801   2.112   5.321   7.759
15853WAT     H247802   2.205   5.195   7.803
15854WAT      O47803   9.465   8.869   5.137
15854WAT     H147804   9.437   8.938   5.071
15854WAT     H247805   9.554   8.893   5.175
15855WAT      O47806   5.396   4.999   7.647
15855WAT     H147807   5.436   4.919   7.691
15855WAT     H247808   5.304   5.015   7.683
15856WAT      O47809   1.690   7.635   4.932
15856WAT     H147810   1.601   7.596   4.955
15856WAT     H247811   1.751   7.627   5.011
15857WAT      O47812   8.666   2.374   6.878
15857WAT     H147813   8.691   2.370   6.975
15857WAT     H247814   8.648   2.282   6.844
15858WAT      O47815   0.646   8.340   1.555
15858WAT     H147816   0.675   8.344   1.651
15858WAT     H247817   0.576   8.270   1.544
15859WAT      O47818   1.996   5.809   4.237
15859WAT     H147819   2.032   5.839   4.149
15859WAT     H247820   2.002   5.884   4.303
15860WAT      O47821   7.455   9.122   7.866
15860WAT     H147822   7.532   9.067   7.896
15860WAT     H247823   7.445   9.202   7.926
15861WAT      O47824   2.767   3.279   2.586
15861WAT     H147825   2.723   3.320   2.665
15861WAT     H247826   2.816   3.349   2.534
15862WAT      O47827   9.500   6.808   4.085
15862WAT     H147828   9.590   6.793   4.127
15862WAT     H247829   9.429   6.775   4.146
15863WAT      O47830   2.705   1.701   1.521
15863WAT     H147831   2.679   1.793   1.491
15863WAT     H247832   2.739   1.649   1.443
15864WAT      O47833   8.554   8.490   4.306
15864WAT     H147834   8.499   8.545   4.369
15864WAT     H247835   8.529   8.514   4.212
15865WAT      O47836   4.910   4.359   5.019
15865WAT     H147837   4.970   4.294   5.066
15865WAT     H247838   4.831   4.310   4.981
15866WAT      O47839   9.816   2.806   1.753
15866WAT     H147840   9.759   2.807   1.671
15866WAT     H247841   9.794   2.886   1.809
15867WAT      O47842   3.303   5.752   8.534
15867WAT     H147843   3.375   5.740   8.602
15867WAT     H247844   3.338   5.806   8.457
15868WAT      O47845   7.784   2.278   2.651
15868WAT     H147846   7.833   2.234   2.576
15868WAT     H247847   7.756   2.370   2.623
15869WAT      O47848   8.032   7.732   9.541
15869WAT     H147849   8.073   7.782   9.618
15869WAT     H247850   8.097   7.665   9.507
15870WAT      O47851   6.302   8.547   7.364
15870WAT     H147852   6.284   8.631   7.415
15870WAT     H247853   6.252   8.549   7.277
15871WAT      O47854   2.942   6.564   8.786
15871WAT     H147855   2.895   6.477   8.799
15871WAT     H247856   2.973   6.572   8.691
15872WAT      O47857   3.781   4.703   9.001
15872WAT     H147858   3.836   4.673   9.079
15872WAT     H247859   3.825   4.673   8.916
15873WAT      O47860   8.648   5.870   2.091
15873WAT     H147861   8.662   5.966   2.115
15873WAT     H247862   8.667   5.813   2.171
15874WAT      O47863   6.757   0.499   9.713
15874WAT     H147864   6.730   0.594   9.694
15874WAT     H247865   6.742   0.478   9.809
15875WAT      O47866   8.592   9.160   1.899
15875WAT     H147867   8.672   9.167   1.838
15875WAT     H247868   8.582   9.065   1.929
15876WAT      O47869   7.676   2.749   1.816
15876WAT     H147870   7.710   2.821   1.875
15876WAT     H247871   7.718   2.756   1.725
15877WAT      O47872   0.171   5.473   4.964
15877WAT     H147873   0.189   5.570   4.950
15877WAT     H247874   0.072   5.457   4.961
15878WAT      O47875   0.498   6.567   9.024
15878WAT     H147876   0.554   6.644   8.993
15878WAT     H247877   0.403   6.597   9.035
15879WAT      O47878   9.862   0.046   6.378
15879WAT     H147879   9.847   0.044   6.477
15879WAT     H247880   9.878   0.140   6.349
15880WAT      O47881   3.541   7.919   8.831
15880WAT     H147882   3.545   8.007   8.784
15880WAT     H247883   3.535   7.934   8.930
15881WAT      O47884   1.877   3.614   4.633
15881WAT     H147885   1.917   3.548   4.696
15881WAT     H247886   1.799   3.572   4.586
15882WAT      O47887   5.466   1.166   2.381
15882WAT     H147888   5.398   1.176   2.454
15882WAT     H247889   5.544   1.115   2.417
15883WAT      O47890   4.052   6.505   1.565
15883WAT     H147891   4.029   6.599   1.537
15883WAT     H247892   4.064   6.449   1.483
15884WAT      O47893   7.866   0.725   2.179
15884WAT     H147894   7.914   0.770   2.103
15884WAT     H247895   7.928   0.660   2.223
15885WAT      O47896   8.268   2.569   4.422
15885WAT     H147897   8.257   2.623   4.506
15885WAT     H247898   8.305   2.479   4.446
15886WAT      O47899   3.717   2.956   0.382
15886WAT     H147900   3.654   2.933   0.456
15886WAT     H247901   3.695   2.901   0.301
15887WAT      O47902   3.726   1.898   4.470
15887WAT     H147903   3.627   1.912   4.474
15887WAT     H247904   3.752   1.874   4.376
15888WAT      O47905   8.491   8.535   2.518
15888WAT     H147906   8.534   8.621   2.491
15888WAT     H247907   8.498   8.523   2.617
15889WAT      O47908   9.576   6.654   1.537
15889WAT     H147909   9.544   6.681   1.628
15889WAT     H247910   9.566   6.555   1.526
15890WAT      O47911   5.531   1.882   5.423
15890WAT     H147912   5.610   1.841   5.469
15890WAT     H247913   5.474   1.810   5.383
15891WAT      O47914   4.987   0.902   0.796
15891WAT     H147915   5.069   0.882   0.849
15891WAT     H247916   5.011   0.904   0.698
15892WAT      O47917   1.256   4.410   1.438
15892WAT     H147918   1.242   4.342   1.510
15892WAT     H247919   1.167   4.449   1.412
15893WAT      O47920   4.425   2.159   8.498
15893WAT     H147921   4.372   2.159   8.413
15893WAT     H247922   4.373   2.205   8.570
15894WAT      O47923   4.176   0.143   6.108
15894WAT     H147924   4.175   0.076   6.183
15894WAT     H247925   4.141   0.230   6.140
15895WAT      O47926   1.331   7.396   2.748
15895WAT     H147927   1.391   7.329   2.792
15895WAT     H247928   1.347   7.486   2.786
15896WAT      O47929   5.955   1.719   8.578
15896WAT     H147930   6.001   1.713   8.489
15896WAT     H247931   5.885   1.648   8.584
15897WAT      O47932   8.562   5.603   8.635
15897WAT     H147933   8.531   5.566   8.547
15897WAT     H247934   8.651   5.647   8.624
15898WAT      O47935   3.014   6.611   0.521
15898WAT     H147936   3.091   6.561   0.559
15898WAT     H247937   2.976   6.673   0.589
15899WAT      O47938   3.666   1.768   0.463
15899WAT     H147939   3.688   1.823   0.544
15899WAT     H247940   3.744   1.768   0.400
15900WAT      O47941   0.812   7.295   1.622
15900WAT     H147942   0.878   7.368   1.638
15900WAT     H247943   0.861   7.211   1.596
15901WAT      O47944   4.887   6.986   4.034
15901WAT     H147945   4.943   7.040   3.972
15901WAT     H247946   4.947   6.929   4.092
15902WAT      O47947   4.614   4.780   1.427
15902WAT     H147948   4.575   4.796   1.518
15902WAT     H247949   4.603   4.684   1.403
15903WAT      O47950   7.124   9.149   6.646
15903WAT     H147951   7.182   9.127   6.725
15903WAT     H247952   7.088   9.242   6.656
15904WAT      O47953   2.326   3.533   5.208
15904WAT     H147954   2.364   3.552   5.117
15904WAT     H247955   2.256   3.600   5.229
15905WAT      O47956   3.123   2.606   4.093
15905WAT     H147957   3.139   2.519   4.139
15905WAT     H247958   3.208   2.636   4.048
15906WAT      O47959   3.249   8.371   9.125
15906WAT     H147960   3.211   8.279   9.114
15906WAT     H247961   3.320   8.370   9.195
15907WAT      O47962   7.954   7.513   0.784
15907WAT     H147963   7.861   7.507   0.821
15907WAT     H247964   8.010   7.440   0.823
15908WAT      O47965   5.130   4.895   0.689
15908WAT     H147966   5.207   4.897   0.753
15908WAT     H247967   5.146   4.960   0.615
15909WAT      O47968   8.172   1.189   5.418
15909WAT     H147969   8.131   1.194   5.509
15909WAT     H247970   8.205   1.279   5.390
15910WAT      O47971   5.159   6.258   0.667
15910WAT     H147972   5.069   6.215   0.664
15910WAT     H247973   5.207   6.243   0.581
15911WAT      O47974   5.530   1.019   6.026
15911WAT     H147975   5.555   1.060   6.114
15911WAT     H247976   5.549   0.921   6.029
15912WAT      O47977   2.889   0.780   9.109
15912WAT     H147978   2.872   0.879   9.103
15912WAT     H247979   2.824   0.732   9.051
15913WAT      O47980   6.414   0.994   9.603
15913WAT     H147981   6.510   1.022   9.607
15913WAT     H247982   6.409   0.894   9.601
15914WAT      O47983   5.860   4.081   1.037
15914WAT     H147984   5.812   4.160   1.075
15914WAT     H247985   5.959   4.094   1.048
15915WAT      O47986   2.316   8.580   0.577
15915WAT     H147987   2.281   8.516   0.645
15915WAT     H247988   2.291   8.673   0.603
15916WAT      O47989   6.247   5.401   7.415
15916WAT     H147990   6.317   5.399   7.486
15916WAT     H247991   6.212   5.494   7.406
15917WAT      O47992   5.760   2.346   7.084
15917WAT     H147993   5.855   2.315   7.088
15917WAT     H247994   5.699   2.270   7.108
15918WAT      O47995   8.162   0.268   3.472
15918WAT     H147996   8.085   0.327   3.449
15918WAT     H247997   8.209   0.240   3.389
15919WAT      O47998   7.705   8.802   8.249
15919WAT     H147999   7.749   8.717   8.220
15919WAT     H248000   7.628   8.822   8.188
15920WAT      O48001   4.153   0.417   8.697
15920WAT     H148002   4.188   0.495   8.645
15920WAT     H248003   4.073   0.446   8.749
15921WAT      O48004   8.517   7.674   0.622
15921WAT     H148005   8.535   7.581   0.656
15921WAT     H248006   8.550   7.682   0.529
15922WAT      O48007   1.070   7.491   0.510
15922WAT     H148008   1.011   7.416   0.479
15922WAT     H248009   1.164   7.458   0.516
15923WAT      O48010   3.686   3.245   1.319
15923WAT     H148011   3.739   3.329   1.330
15923WAT     H248012   3.681   3.221   1.222
15924WAT      O48013   1.656   4.793   9.206
15924WAT     H148014   1.701   4.832   9.287
15924WAT     H248015   1.691   4.837   9.124
15925WAT      O48016   9.345   6.066   0.787
15925WAT     H148017   9.440   6.065   0.819
15925WAT     H248018   9.344   6.082   0.688
15926WAT      O48019   5.119   7.677   8.783
15926WAT     H148020   5.089   7.588   8.750
15926WAT     H248021   5.187   7.664   8.855
15927WAT      O48022   4.751   0.498   1.373
15927WAT     H148023   4.755   0.455   1.282
15927WAT     H248024   4.656   0.497   1.406
15928WAT      O48025   6.991   7.138   4.511
15928WAT     H148026   6.932   7.112   4.435
15928WAT     H248027   7.053   7.210   4.481
15929WAT      O48028   5.386   9.591   8.920
15929WAT     H148029   5.422   9.681   8.899
15929WAT     H248030   5.301   9.576   8.871
15930WAT      O48031   9.864   9.602   2.285
15930WAT     H148032   9.917   9.684   2.263
15930WAT     H248033   9.860   9.591   2.384
15931WAT      O48034   9.590   8.481   7.199
15931WAT     H148035   9.648   8.512   7.274
15931WAT     H248036   9.643   8.421   7.139
15932WAT      O48037   9.104   7.917   3.121
15932WAT     H148038   9.193   7.872   3.134
15932WAT     H248039   9.031   7.850   3.135
15933WAT      O48040   0.521   4.998   2.245
15933WAT     H148041   0.500   4.998   2.343
15933WAT     H248042   0.583   5.073   2.224
15934WAT      O48043   8.202   5.021   2.736
15934WAT     H148044   8.112   5.017   2.695
15934WAT     H248045   8.272   5.003   2.667
15935WAT      O48046   7.714   7.845   0.918
15935WAT     H148047   7.735   7.922   0.977
15935WAT     H248048   7.767   7.852   0.833
15936WAT      O48049   1.023   8.698   1.618
15936WAT     H148050   0.978   8.617   1.656
15936WAT     H248051   1.103   8.671   1.566
15937WAT      O48052   2.878   7.626   5.543
15937WAT     H148053   2.894   7.616   5.641
15937WAT     H248054   2.958   7.666   5.500
15938WAT      O48055   2.543   1.042   8.769
15938WAT     H148056   2.460   0.988   8.757
15938WAT     H248057   2.592   1.047   8.681
15939WAT      O48058   9.081   7.726   9.814
15939WAT     H148059   9.121   7.699   9.902
15939WAT     H248060   9.149   7.712   9.742
15940WAT      O48061   6.343   6.808   6.974
15940WAT     H148062   6.438   6.802   6.943
15940WAT     H248063   6.322   6.729   7.031
15941WAT      O48064   4.551   7.457   7.320
15941WAT     H148065   4.536   7.364   7.353
15941WAT     H248066   4.646   7.466   7.290
15942WAT      O48067   6.738   3.696   2.137
15942WAT     H148068   6.690   3.621   2.185
15942WAT     H248069   6.671   3.764   2.107
15943WAT      O48070  -0.000   9.700   8.932
15943WAT     H148071   0.066   9.659   8.995
15943WAT     H248072  -0.017   9.795   8.959
15944WAT      O48073   2.980   9.807   0.524
15944WAT     H148074   2.983   9.887   0.584
15944WAT     H248075   2.901   9.814   0.462
15945WAT      O48076   7.624   0.009   0.304
15945WAT     H148077   7.645   0.027   0.208
15945WAT     H248078   7.707   0.017   0.359
15946WAT      O48079   0.475   1.530   8.237
15946WAT     H148080   0.462   1.462   8.309
15946WAT     H248081   0.440   1.494   8.151
15947WAT      O48082   0.865   1.339   3.965
15947WAT     H148083   0.937   1.298   3.908
15947WAT     H248084   0.843   1.277   4.040
15948WAT      O48085   3.273   9.772   7.841
15948WAT     H148086   3.296   9.833   7.917
15948WAT     H248087   3.357   9.744   7.794
15949WAT      O48088   1.664   0.785   9.434
15949WAT     H148089   1.633   0.878   9.452
15949WAT     H248090   1.609   0.745   9.361
15950WAT      O48091   3.185   7.993   0.418
15950WAT     H148092   3.103   7.997   0.476
15950WAT     H248093   3.158   8.005   0.322
15951WAT      O48094   8.995   0.354   7.455
15951WAT     H148095   8.942   0.437   7.473
15951WAT     H248096   8.986   0.291   7.533
15952WAT      O48097   9.589   5.168   2.960
15952WAT     H148098   9.562   5.074   2.942
15952WAT     H248099   9.662   5.170   3.028
15953WAT      O48100   9.108   4.103   0.940
15953WAT     H148101   9.174   4.096   1.015
15953WAT     H248102   9.046   4.024   0.943
15954WAT      O48103   2.316   8.131   6.598
15954WAT     H148104   2.416   8.123   6.610
15954WAT     H248105   2.276   8.040   6.598
15955WAT      O48106   6.145   2.175   3.175
15955WAT     H148107   6.047   2.156   3.172
15955WAT     H248108   6.163   2.267   3.138
15956WAT      O48109   0.642   5.544   9.783
15956WAT     H148110   0.646   5.643   9.766
15956WAT     H248111   0.585   5.527   9.864
15957WAT      O48112   7.869   6.131   2.689
15957WAT     H148113   7.950   6.188   2.700
15957WAT     H248114   7.873   6.082   2.602
15958WAT      O48115   8.140   2.196   2.642
15958WAT     H148116   8.175   2.163   2.554
15958WAT     H248117   8.132   2.295   2.640
15959WAT      O48118   3.068   8.372   7.294
15959WAT     H148119   3.127   8.303   7.252
15959WAT     H248120   3.106   8.463   7.276
15960WAT      O48121   0.206   7.654   9.695
15960WAT     H148122   0.169   7.744   9.718
15960WAT     H248123   0.202   7.595   9.775
15961WAT      O48124   0.144   8.995   0.330
15961WAT     H148125   0.178   8.929   0.397
15961WAT     H248126   0.053   9.027   0.358
15962WAT      O48127   5.415   8.674   7.285
15962WAT     H148128   5.503   8.629   7.303
15962WAT     H248129   5.350   8.608   7.248
15963WAT      O48130   6.145   8.994   6.334
15963WAT     H148131   6.074   9.019   6.269
15963WAT     H248132   6.107   8.933   6.404
15964WAT      O48133   1.431   3.040   6.803
15964WAT     H148134   1.417   2.942   6.786
15964WAT     H248135   1.518   3.068   6.765
15965WAT      O48136   0.719   8.427   7.332
15965WAT     H148137   0.694   8.428   7.429
15965WAT     H248138   0.638   8.445   7.277
15966WAT      O48139   2.202   6.620   3.593
15966WAT     H148140   2.262   6.547   3.626
15966WAT     H248141   2.257   6.693   3.554
15967WAT      O48142   5.714   3.529   2.526
15967WAT     H148143   5.658   3.527   2.609
15967WAT     H248144   5.664   3.576   2.453
15968WAT      O48145   4.561   5.842   4.255
15968WAT     H148146   4.560   5.919   4.191
15968WAT     H248147   4.494   5.858   4.328
15969WAT      O48148   4.453   1.879   3.069
15969WAT     H148149   4.482   1.946   3.001
15969WAT     H248150   4.406   1.925   3.144
15970WAT      O48151   7.044   5.529   0.460
15970WAT     H148152   7.138   5.548   0.488
15970WAT     H248153   7.031   5.560   0.366
15971WAT      O48154   9.604   9.742   2.858
15971WAT     H148155   9.687   9.689   2.842
15971WAT     H248156   9.544   9.692   2.920
15972WAT      O48157   9.081   2.882   1.735
15972WAT     H148158   9.078   2.868   1.834
15972WAT     H248159   9.160   2.834   1.697
15973WAT      O48160   4.204   5.803   5.896
15973WAT     H148161   4.201   5.822   5.798
15973WAT     H248162   4.233   5.885   5.945
15974WAT      O48163   1.312   9.451   2.080
15974WAT     H148164   1.379   9.379   2.061
15974WAT     H248165   1.324   9.484   2.173
15975WAT      O48166   9.838   0.940   0.373
15975WAT     H148167   9.748   0.946   0.328
15975WAT     H248168   9.908   0.919   0.304
15976WAT      O48169   7.705   9.072   5.627
15976WAT     H148170   7.659   9.011   5.561
15976WAT     H248171   7.717   9.024   5.714
15977WAT      O48172   6.485   7.459   8.277
15977WAT     H148173   6.475   7.473   8.375
15977WAT     H248174   6.462   7.364   8.254
15978WAT      O48175   5.932   4.285   6.455
15978WAT     H148176   5.835   4.291   6.480
15978WAT     H248177   5.969   4.197   6.485
15979WAT      O48178   0.116   5.439   2.607
15979WAT     H148179   0.070   5.507   2.549
15979WAT     H248180   0.086   5.450   2.702
15980WAT      O48181   6.464   7.424   6.422
15980WAT     H148182   6.373   7.465   6.430
15980WAT     H248183   6.501   7.408   6.513
15981WAT      O48184   9.510   2.102   1.831
15981WAT     H148185   9.521   2.029   1.899
15981WAT     H248186   9.421   2.144   1.841
15982WAT      O48187   9.699   1.148   5.664
15982WAT     H148188   9.721   1.051   5.673
15982WAT     H248189   9.783   1.199   5.642
15983WAT      O48190   4.678   8.249   7.505
15983WAT     H148191   4.733   8.185   7.559
15983WAT     H248192   4.737   8.323   7.471
15984WAT      O48193   8.770   9.236   4.517
15984WAT     H148194   8.856   9.285   4.528
15984WAT     H248195   8.701   9.275   4.578
15985WAT      O48196   1.559   9.556   4.104
15985WAT     H148197   1.647   9.600   4.126
15985WAT     H248198   1.535   9.575   4.009
15986WAT      O48199   8.124   8.280   9.721
15986WAT     H148200   8.069   8.301   9.640
15986WAT     H248201   8.069   8.228   9.787
15987WAT      O48202   3.496   5.999   5.777
15987WAT     H148203   3.498   6.093   5.744
15987WAT     H248204   3.535   5.994   5.869
15988WAT      O48205   7.608   2.568   2.852
15988WAT     H148206   7.679   2.530   2.911
15988WAT     H248207   7.521   2.523   2.872
15989WAT      O48208   4.140   3.924   7.605
15989WAT     H148209   4.147   3.995   7.675
15989WAT     H248210   4.232   3.893   7.580
15990WAT      O48211   4.378   0.984   1.039
15990WAT     H148212   4.384   0.909   1.105
15990WAT     H248213   4.287   0.983   0.997
15991WAT      O48214   9.119   9.142   5.040
15991WAT     H148215   9.038   9.178   4.994
15991WAT     H248216   9.129   9.045   5.019
15992WAT      O48217   2.391   9.501   4.535
15992WAT     H148218   2.323   9.434   4.504
15992WAT     H248219   2.393   9.502   4.635
15993WAT      O48220   9.593   8.793   3.516
15993WAT     H148221   9.601   8.846   3.600
15993WAT     H248222   9.623   8.848   3.438
15994WAT      O48223   1.932   1.122   6.507
15994WAT     H148224   1.982   1.206   6.527
15994WAT     H248225   1.837   1.145   6.482
15995WAT      O48226   4.722   7.606   5.645
15995WAT     H148227   4.631   7.568   5.660
15995WAT     H248228   4.788   7.531   5.635
15996WAT      O48229   7.821   5.901   7.955
15996WAT     H148230   7.814   5.984   8.010
15996WAT     H248231   7.748   5.901   7.886
15997WAT      O48232   1.343   5.970   2.146
15997WAT     H148233   1.426   5.940   2.099
15997WAT     H248234   1.265   5.917   2.113
15998WAT      O48235   1.997   9.402   9.445
15998WAT     H148236   2.041   9.331   9.499
15998WAT     H248237   2.019   9.492   9.483
15999WAT      O48238   6.377   5.764   4.521
15999WAT     H148239   6.397   5.823   4.443
15999WAT     H248240   6.293   5.794   4.565
16000WAT      O48241   6.717   2.279   3.592
16000WAT     H148242   6.762   2.270   3.503
16000WAT     H248243   6.708   2.189   3.634
16001WAT      O48244   6.850   4.848   5.148
16001WAT     H148245   6.802   4.834   5.061
16001WAT     H248246   6.842   4.766   5.205
16002WAT      O48247   8.783   7.286   4.137
16002WAT     H148248   8.764   7.342   4.057
16002WAT     H248249   8.882   7.287   4.156
16003WAT      O48250   0.708   9.125   3.783
16003WAT     H148251   0.709   9.086   3.690
16003WAT     H248252   0.616   9.118   3.820
16004WAT      O48253   3.099   6.198   6.175
16004WAT     H148254   3.013   6.183   6.224
16004WAT     H248255   3.140   6.109   6.153
16005WAT      O48256   3.862   1.325   6.094
16005WAT     H148257   3.827   1.237   6.126
16005WAT     H248258   3.955   1.314   6.060
16006WAT      O48259   8.628   4.206   1.416
16006WAT     H148260   8.711   4.153   1.434
16006WAT     H248261   8.569   4.206   1.498
16007WAT      O48262   3.628   5.277   0.679
16007WAT     H148263   3.531   5.293   0.662
16007WAT     H248264   3.681   5.312   0.602
16008WAT      O48265   4.875   1.072   0.953
16008WAT     H148266   4.914   1.047   1.042
16008WAT     H248267   4.900   1.002   0.886
16009WAT      O48268   4.118   0.657   6.704
16009WAT     H148269   4.060   0.615   6.774
16009WAT     H248270   4.071   0.736   6.664
16010WAT      O48271   8.525   5.111   7.451
16010WAT     H148272   8.612   5.116   7.402
16010WAT     H248273   8.466   5.186   7.421
16011WAT      O48274   2.380   3.033   2.909
16011WAT     H148275   2.287   3.032   2.873
16011WAT     H248276   2.441   2.988   2.844
16012WAT      O48277   4.472   4.332   0.670
16012WAT     H148278   4.422   4.414   0.645
16012WAT     H248279   4.481   4.328   0.770
16013WAT      O48280   0.746   1.591   8.067
16013WAT     H148281   0.820   1.598   8.134
16013WAT     H248282   0.688   1.513   8.091
16014WAT      O48283   4.972   8.185   5.292
16014WAT     H148284   4.984   8.284   5.281
16014WAT     H248285   4.939   8.146   5.206
16015WAT      O48286   9.449   6.638   1.002
16015WAT     H148287   9.381   6.639   1.075
16015WAT     H248288   9.535   6.675   1.037
16016WAT      O48289   9.865   5.288   8.438
16016WAT     H148290   9.788   5.343   8.471
16016WAT     H248291   9.951   5.335   8.458
16017WAT      O48292   0.552   8.503   0.747
16017WAT     H148293   0.613   8.483   0.671
16017WAT     H248294   0.603   8.495   0.833
16018WAT      O48295   9.309   0.325   3.384
16018WAT     H148296   9.393   0.294   3.430
16018WAT     H248297   9.276   0.408   3.429
16019WAT      O48298   6.458   4.108   6.393
16019WAT     H148299   6.462   4.014   6.429
16019WAT     H248300   6.392   4.161   6.446
16020WAT      O48301   2.244   0.224   9.360
16020WAT     H148302   2.287   0.306   9.398
16020WAT     H248303   2.225   0.238   9.263
16021WAT      O48304   7.004   4.258   1.183
16021WAT     H148305   7.044   4.218   1.101
16021WAT     H248306   6.953   4.189   1.233
16022WAT      O48307   9.059   2.417   2.862
16022WAT     H148308   9.092   2.364   2.940
16022WAT     H248309   9.071   2.364   2.778
16023WAT      O48310   4.173   3.762   4.953
16023WAT     H148311   4.117   3.742   5.033
16023WAT     H248312   4.116   3.798   4.880
16024WAT      O48313   9.423   0.049   5.357
16024WAT     H148314   9.516   0.081   5.339
16024WAT     H248315   9.426  -0.040   5.403
16025WAT      O48316   7.604   8.063   3.257
16025WAT     H148317   7.689   8.011   3.268
16025WAT     H248318   7.626   8.158   3.234
16026WAT      O48319   2.392   1.545   5.131
16026WAT     H148320   2.471   1.602   5.110
16026WAT     H248321   2.389   1.527   5.230
16027WAT      O48322   3.389   4.951   8.948
16027WAT     H148323   3.445   5.033   8.943
16027WAT     H248324   3.445   4.874   8.980
16028WAT      O48325   3.135   2.099   3.598
16028WAT     H148326   3.230   2.098   3.568
16028WAT     H248327   3.084   2.167   3.544
16029WAT      O48328   1.887   5.631   8.427
16029WAT     H148329   1.919   5.544   8.389
16029WAT     H248330   1.939   5.652   8.510
16030WAT      O48331   6.359   2.567   2.076
16030WAT     H148332   6.381   2.656   2.036
16030WAT     H248333   6.398   2.562   2.168
16031WAT      O48334   2.992   6.936   0.405
16031WAT     H148335   2.915   6.873   0.410
16031WAT     H248336   3.016   6.953   0.310
16032WAT      O48337   3.532   1.350   7.405
16032WAT     H148338   3.516   1.279   7.473
16032WAT     H248339   3.625   1.385   7.416
16033WAT      O48340   0.966   4.603   7.230
16033WAT     H148341   1.021   4.549   7.165
16033WAT     H248342   0.872   4.606   7.198
16034WAT      O48343   8.731   1.854   0.724
16034WAT     H148344   8.700   1.823   0.634
16034WAT     H248345   8.810   1.800   0.753
16035WAT      O48346   1.644   4.149   9.523
16035WAT     H148347   1.646   4.096   9.438
16035WAT     H248348   1.618   4.243   9.503
16036WAT      O48349   0.851   1.885   3.729
16036WAT     H148350   0.765   1.918   3.767
16036WAT     H248351   0.859   1.787   3.746
16037WAT      O48352   8.379   6.692   8.434
16037WAT     H148353   8.397   6.763   8.502
16037WAT     H248354   8.399   6.602   8.474
16038WAT      O48355   4.841   8.112   0.656
16038WAT     H148356   4.818   8.150   0.567
16038WAT     H248357   4.869   8.185   0.719
16039WAT      O48358   6.854   5.481   3.673
16039WAT     H148359   6.825   5.558   3.730
16039WAT     H248360   6.774   5.441   3.627
16040WAT      O48361   6.217   9.694   0.742
16040WAT     H148362   6.190   9.790   0.747
16040WAT     H248363   6.229   9.657   0.834
16041WAT      O48364   0.286   4.077   4.422
16041WAT     H148365   0.363   4.052   4.480
16041WAT     H248366   0.264   4.000   4.361
16042WAT      O48367   4.433   7.025   0.902
16042WAT     H148368   4.484   6.941   0.886
16042WAT     H248369   4.417   7.036   1.000
16043WAT      O48370   5.857   0.563   2.324
16043WAT     H148371   5.833   0.587   2.418
16043WAT     H248372   5.828   0.636   2.263
16044WAT      O48373   2.293   7.722   8.431
16044WAT     H148374   2.209   7.681   8.466
16044WAT     H248375   2.293   7.820   8.451
16045WAT      O48376   4.645   4.533   8.190
16045WAT     H148377   4.582   4.491   8.125
16045WAT     H248378   4.737   4.497   8.175
16046WAT      O48379   2.541   1.014   4.651
16046WAT     H148380   2.448   1.017   4.617
16046WAT     H248381   2.605   1.002   4.575
16047WAT      O48382   9.172   6.724   3.430
16047WAT     H148383   9.164   6.816   3.468
16047WAT     H248384   9.204   6.730   3.336
16048WAT      O48385   5.956   8.299   1.861
16048WAT     H148386   5.988   8.225   1.920
16048WAT     H248387   5.893   8.263   1.793
16049WAT      O48388   5.728   1.847   9.350
16049WAT     H148389   5.631   1.870   9.350
16049WAT     H248390   5.782   1.929   9.328
16050WAT      O48391   6.324   7.671   3.188
16050WAT     H148392   6.395   7.665   3.257
16050WAT     H248393   6.279   7.581   3.179
16051WAT      O48394   4.063   2.704   4.473
16051WAT     H148395   4.144   2.763   4.471
16051WAT     H248396   4.063   2.653   4.559
16052WAT      O48397   6.853   0.500   6.805
16052WAT     H148398   6.893   0.585   6.840
16052WAT     H248399   6.863   0.496   6.706
16053WAT      O48400   5.404   6.410   3.907
16053WAT     H148401   5.398   6.506   3.880
16053WAT     H248402   5.315   6.380   3.942
16054WAT      O48403   3.390   0.402   4.878
16054WAT     H148404   3.376   0.425   4.974
16054WAT     H248405   3.453   0.467   4.837
16055WAT      O48406   6.322   5.593   2.335
16055WAT     H148407   6.327   5.513   2.396
16055WAT     H248408   6.415   5.619   2.308
16056WAT      O48409   0.530   2.564   9.143
16056WAT     H148410   0.485   2.544   9.230
16056WAT     H248411   0.465   2.552   9.069
16057WAT      O48412   9.414   0.087   5.742
16057WAT     H148413   9.315   0.091   5.730
16057WAT     H248414   9.455   0.034   5.667
16058WAT      O48415   3.483   0.946   5.147
16058WAT     H148416   3.503   1.041   5.171
16058WAT     H248417   3.400   0.916   5.193
16059WAT      O48418   1.583   7.737   5.563
16059WAT     H148419   1.502   7.683   5.541
16059WAT     H248420   1.622   7.775   5.479
16060WAT      O48421   5.880   4.882   9.302
16060WAT     H148422   5.870   4.790   9.340
16060WAT     H248423   5.910   4.945   9.373
16061WAT      O48424   4.716   9.542   7.841
16061WAT     H148425   4.685   9.627   7.797
16061WAT     H248426   4.813   9.551   7.864
16062WAT      O48427   3.446   3.085   1.881
16062WAT     H148428   3.404   3.118   1.965
16062WAT     H248429   3.405   3.131   1.802
16063WAT      O48430   7.695   1.891   3.134
16063WAT     H148431   7.669   1.974   3.184
16063WAT     H248432   7.785   1.861   3.164
16064WAT      O48433   8.868   0.887   2.352
16064WAT     H148434   8.835   0.793   2.346
16064WAT     H248435   8.927   0.906   2.273
16065WAT      O48436   0.641   9.276   8.921
16065WAT     H148437   0.656   9.299   8.825
16065WAT     H248438   0.727   9.246   8.962
16066WAT      O48439   0.414   9.641   7.850
16066WAT     H148440   0.368   9.729   7.860
16066WAT     H248441   0.513   9.654   7.855
16067WAT      O48442   3.265   7.958   9.702
16067WAT     H148443   3.310   7.875   9.736
16067WAT     H248444   3.313   8.039   9.737
16068WAT      O48445   8.963   6.898   6.151
16068WAT     H148446   9.037   6.961   6.129
16068WAT     H248447   8.922   6.923   6.238
16069WAT      O48448   9.661   2.233   4.231
16069WAT     H148449   9.700   2.214   4.141
16069WAT     H248450   9.611   2.319   4.229
16070WAT      O48451   8.146   9.047   3.091
16070WAT     H148452   8.129   8.958   3.133
16070WAT     H248453   8.070   9.071   3.030
16071WAT      O48454   0.446   2.552   5.897
16071WAT     H148455   0.398   2.477   5.851
16071WAT     H248456   0.380   2.606   5.950
16072WAT      O48457   1.636   2.733   1.680
16072WAT     H148458   1.650   2.830   1.700
16072WAT     H248459   1.723   2.684   1.689
16073WAT      O48460   5.188   8.046   4.585
16073WAT     H148461   5.171   8.130   4.637
16073WAT     H248462   5.277   8.008   4.612
16074WAT      O48463   0.245   7.803   7.561
16074WAT     H148464   0.314   7.731   7.569
16074WAT     H248465   0.290   7.888   7.532
16075WAT      O48466   6.572   1.882   3.042
16075WAT     H148467   6.484   1.892   2.994
16075WAT     H248468   6.625   1.810   2.999
16076WAT      O48469   5.525   2.662   1.091
16076WAT     H148470   5.491   2.712   1.012
16076WAT     H248471   5.502   2.565   1.081
16077WAT      O48472   8.024   8.033   8.715
16077WAT     H148473   8.060   8.091   8.642
16077WAT     H248474   7.926   8.021   8.703
16078WAT      O48475   3.907   5.532   5.396
16078WAT     H148476   3.944   5.519   5.488
16078WAT     H248477   3.981   5.557   5.334
16079WAT      O48478   9.716   8.754   7.126
16079WAT     H148479   9.717   8.811   7.209
16079WAT     H248480   9.626   8.758   7.083
16080WAT      O48481   1.011   5.621   1.714
16080WAT     H148482   1.043   5.716   1.720
16080WAT     H248483   1.058   5.575   1.638
16081WAT      O48484   0.804   4.252   1.074
16081WAT     H148485   0.726   4.198   1.041
16081WAT     H248486   0.862   4.195   1.132
16082WAT      O48487   7.110   7.396   6.917
16082WAT     H148488   7.160   7.315   6.885
16082WAT     H248489   7.146   7.477   6.871
16083WAT      O48490   5.511   5.726   0.105
16083WAT     H148491   5.438   5.724   0.173
16083WAT     H248492   5.583   5.788   0.136
16084WAT      O48493   8.185   1.322   0.997
16084WAT     H148494   8.238   1.402   0.968
16084WAT     H248495   8.183   1.318   1.097
16085WAT      O48496   6.045   6.475   6.632
16085WAT     H148497   6.126   6.421   6.607
16085WAT     H248498   5.994   6.427   6.703
16086WAT      O48499   4.182   1.458   7.357
16086WAT     H148500   4.180   1.546   7.405
16086WAT     H248501   4.143   1.387   7.416
16087WAT      O48502   1.827   3.466   0.024
16087WAT     H148503   1.789   3.415  -0.053
16087WAT     H248504   1.813   3.563   0.011
16088WAT      O48505   8.655   4.699   3.469
16088WAT     H148506   8.737   4.662   3.513
16088WAT     H248507   8.576   4.682   3.528
16089WAT      O48508   6.148   1.081   3.635
16089WAT     H148509   6.057   1.068   3.596
16089WAT     H248510   6.149   1.044   3.728
16090WAT      O48511   1.994   5.260   5.056
16090WAT     H148512   1.923   5.233   4.991
16090WAT     H248513   1.963   5.242   5.149
16091WAT      O48514   6.706   0.833   3.239
16091WAT     H148515   6.700   0.758   3.304
16091WAT     H248516   6.672   0.803   3.150
16092WAT      O48517   3.883   6.298   3.177
16092WAT     H148518   3.964   6.341   3.217
16092WAT     H248519   3.804   6.316   3.235
16093WAT      O48520   7.699   0.668   4.294
16093WAT     H148521   7.732   0.596   4.355
16093WAT     H248522   7.681   0.629   4.204
16094WAT      O48523   4.538   8.771   0.287
16094WAT     H148524   4.611   8.812   0.342
16094WAT     H248525   4.461   8.746   0.346
16095WAT      O48526   3.859   2.497   5.808
16095WAT     H148527   3.907   2.414   5.836
16095WAT     H248528   3.896   2.575   5.859
16096WAT      O48529   4.761   7.863   5.745
16096WAT     H148530   4.779   7.924   5.668
16096WAT     H248531   4.750   7.770   5.713
16097WAT      O48532   8.951   5.279   1.495
16097WAT     H148533   8.864   5.231   1.488
16097WAT     H248534   8.968   5.329   1.411
16098WAT      O48535   8.341   6.955   0.783
16098WAT     H148536   8.401   6.875   0.791
16098WAT     H248537   8.390   7.037   0.812
16099WAT      O48538   6.707   3.600   6.640
16099WAT     H148539   6.708   3.584   6.541
16099WAT     H248540   6.717   3.697   6.658
16100WAT      O48541   5.345   6.401   9.605
16100WAT     H148542   5.413   6.401   9.532
16100WAT     H248543   5.364   6.477   9.667
16101WAT      O48544   3.908   5.537   8.945
16101WAT     H148545   3.901   5.441   8.973
16101WAT     H248546   3.981   5.547   8.878
16102WAT      O48547   9.385   8.760   8.699
16102WAT     H148548   9.314   8.830   8.711
16102WAT     H248549   9.346   8.680   8.654
16103WAT      O48550   2.342   4.867   1.127
16103WAT     H148551   2.346   4.795   1.058
16103WAT     H248552   2.256   4.917   1.117
16104WAT      O48553   9.381   5.895   3.966
16104WAT     H148554   9.369   5.976   4.023
16104WAT     H248555   9.391   5.815   4.025
16105WAT      O48556   8.410   2.708   6.716
16105WAT     H148557   8.382   2.792   6.763
16105WAT     H248558   8.449   2.731   6.627
16106WAT      O48559   9.477   7.277   9.584
16106WAT     H148560   9.434   7.187   9.576
16106WAT     H248561   9.426   7.332   9.650
16107WAT      O48562   8.794   9.246   3.480
16107WAT     H148563   8.726   9.185   3.440
16107WAT     H248564   8.749   9.329   3.514
16108WAT      O48565   2.407   2.777   6.284
16108WAT     H148566   2.345   2.845   6.321
16108WAT     H248567   2.398   2.692   6.334
16109WAT      O48568   5.707   0.360   1.333
16109WAT     H148569   5.680   0.456   1.343
16109WAT     H248570   5.791   0.354   1.280
16110WAT      O48571   0.990   5.160   4.950
16110WAT     H148572   0.926   5.219   4.999
16110WAT     H248573   1.000   5.074   4.999
16111WAT      O48574   2.265   4.668   5.492
16111WAT     H148575   2.244   4.642   5.587
16111WAT     H248576   2.362   4.693   5.485
16112WAT      O48577   8.160   2.110   5.565
16112WAT     H148578   8.087   2.052   5.529
16112WAT     H248579   8.139   2.206   5.547
16113WAT      O48580   7.694   5.311   8.998
16113WAT     H148581   7.727   5.362   9.078
16113WAT     H248582   7.671   5.218   9.025
16114WAT      O48583   8.124   6.162   1.693
16114WAT     H148584   8.091   6.067   1.695
16114WAT     H248585   8.215   6.166   1.734
16115WAT      O48586   0.539   5.266   8.481
16115WAT     H148587   0.499   5.175   8.474
16115WAT     H248588   0.592   5.272   8.566
16116WAT      O48589   8.373   6.237   3.361
16116WAT     H148590   8.370   6.140   3.341
16116WAT     H248591   8.339   6.289   3.283
16117WAT      O48592   1.144   2.923   5.560
16117WAT     H148593   1.216   2.939   5.492
16117WAT     H248594   1.185   2.906   5.649
16118WAT      O48595   4.352   5.314   1.677
16118WAT     H148596   4.367   5.411   1.692
16118WAT     H248597   4.387   5.262   1.756
16119WAT      O48598   0.874   0.567   9.346
16119WAT     H148599   0.778   0.544   9.363
16119WAT     H248600   0.907   0.518   9.266
16120WAT      O48601   5.489   6.241   5.294
16120WAT     H148602   5.453   6.228   5.386
16120WAT     H248603   5.579   6.283   5.299
16121WAT      O48604   2.519   4.860   0.722
16121WAT     H148605   2.505   4.768   0.758
16121WAT     H248606   2.606   4.896   0.756
16122WAT      O48607   9.777   5.438   1.755
16122WAT     H148608   9.807   5.500   1.683
16122WAT     H248609   9.683   5.408   1.736
16123WAT      O48610   4.157   2.305   6.342
16123WAT     H148611   4.059   2.284   6.349
16123WAT     H248612   4.209   2.242   6.400
16124WAT      O48613   3.801   3.403   7.137
16124WAT     H148614   3.779   3.334   7.069
16124WAT     H248615   3.788   3.494   7.098
16125WAT      O48616   3.619   1.163   3.018
16125WAT     H148617   3.540   1.153   3.078
16125WAT     H248618   3.622   1.086   2.954
16126WAT      O48619   5.205   0.320   9.027
16126WAT     H148620   5.266   0.290   8.954
16126WAT     H248621   5.167   0.240   9.073
16127WAT      O48622   0.302   0.988   7.428
16127WAT     H148623   0.400   0.998   7.445
16127WAT     H248624   0.282   0.895   7.400
16128WAT      O48625   5.588   2.060   1.118
16128WAT     H148626   5.511   2.087   1.059
16128WAT     H248627   5.673   2.096   1.080
16129WAT      O48628   0.319   4.828   5.568
16129WAT     H148629   0.275   4.916   5.587
16129WAT     H248630   0.373   4.835   5.484
16130WAT      O48631   8.013   6.464   3.460
16130WAT     H148632   8.067   6.524   3.401
16130WAT     H248633   8.023   6.494   3.555
16131WAT      O48634   2.712   1.340   2.533
16131WAT     H148635   2.767   1.350   2.616
16131WAT     H248636   2.770   1.305   2.459
16132WAT      O48637   8.401   7.871   5.669
16132WAT     H148638   8.430   7.782   5.704
16132WAT     H248639   8.474   7.909   5.612
16133WAT      O48640   7.637   2.796   0.027
16133WAT     H148641   7.564   2.740   0.067
16133WAT     H248642   7.706   2.736  -0.013
16134WAT      O48643   0.464   6.954   7.619
16134WAT     H148644   0.523   6.940   7.540
16134WAT     H248645   0.421   7.044   7.612
16135WAT      O48646   0.366   7.775   3.465
16135WAT     H148647   0.294   7.807   3.403
16135WAT     H248648   0.323   7.735   3.546
16136WAT      O48649   3.537   7.381   6.275
16136WAT     H148650   3.540   7.481   6.283
16136WAT     H248651   3.586   7.340   6.353
16137WAT      O48652   0.877   1.124   6.876
16137WAT     H148653   0.821   1.206   6.889
16137WAT     H248654   0.973   1.146   6.892
16138WAT      O48655   6.816   8.762   0.186
16138WAT     H148656   6.720   8.787   0.170
16138WAT     H248657   6.837   8.770   0.283
16139WAT      O48658   7.614   5.729   8.641
16139WAT     H148659   7.527   5.742   8.689
16139WAT     H248660   7.644   5.635   8.652
16140WAT      O48661   8.362   1.556   6.790
16140WAT     H148662   8.438   1.608   6.827
16140WAT     H248663   8.351   1.471   6.841
16141WAT      O48664   7.670   0.261   5.259
16141WAT     H148665   7.600   0.267   5.330
16141WAT     H248666   7.720   0.175   5.268
16142WAT      O48667   5.362   1.597   0.963
16142WAT     H148668   5.309   1.672   0.924
16142WAT     H248669   5.389   1.534   0.891
16143WAT      O48670   0.327   8.043   5.005
16143WAT     H148671   0.372   8.045   5.094
16143WAT     H248672   0.261   8.118   5.000
16144WAT      O48673   7.351   5.458   6.640
16144WAT     H148674   7.433   5.503   6.675
16144WAT     H248675   7.367   5.428   6.546
16145WAT      O48676   5.447   5.443   8.266
16145WAT     H148677   5.413   5.374   8.330
16145WAT     H248678   5.547   5.447   8.272
16146WAT      O48679   7.462   9.027   4.979
16146WAT     H148680   7.447   9.058   5.073
16146WAT     H248681   7.382   9.050   4.923
16147WAT      O48682   5.899   8.399   0.083
16147WAT     H148683   5.975   8.403   0.148
16147WAT     H248684   5.813   8.387   0.132
16148WAT      O48685   0.378   5.394   4.814
16148WAT     H148686   0.350   5.351   4.728
16148WAT     H248687   0.297   5.405   4.872
16149WAT      O48688   9.201   8.509   6.389
16149WAT     H148689   9.150   8.445   6.332
16149WAT     H248690   9.178   8.603   6.362
16150WAT      O48691   8.992   9.635   4.669
16150WAT     H148692   8.966   9.680   4.583
16150WAT     H248693   8.981   9.536   4.659
16151WAT      O48694   1.466   2.863   6.404
16151WAT     H148695   1.403   2.889   6.331
16151WAT     H248696   1.518   2.943   6.434
16152WAT      O48697   6.177   6.512   8.291
16152WAT     H148698   6.243   6.483   8.361
16152WAT     H248699   6.222   6.570   8.224
16153WAT      O48700   5.436   7.380   3.794
16153WAT     H148701   5.458   7.361   3.698
16153WAT     H248702   5.399   7.297   3.836
16154WAT      O48703   0.236   1.249   5.036
16154WAT     H148704   0.235   1.279   4.940
16154WAT     H248705   0.289   1.164   5.043
16155WAT      O48706   1.684   1.885   9.863
16155WAT     H148707   1.598   1.924   9.831
16155WAT     H248708   1.716   1.817   9.796
16156WAT      O48709   3.301   7.320   5.085
16156WAT     H148710   3.334   7.393   5.146
16156WAT     H248711   3.332   7.338   4.992
16157WAT      O48712   5.504   0.406   7.041
16157WAT     H148713   5.577   0.473   7.058
16157WAT     H248714   5.497   0.390   6.942
16158WAT      O48715   9.686   6.201   9.799
16158WAT     H148716   9.677   6.299   9.821
16158WAT     H248717   9.719   6.191   9.706
16159WAT      O48718   2.714   4.390   9.613
16159WAT     H148719   2.628   4.349   9.643
16159WAT     H248720   2.701   4.432   9.523
16160WAT      O48721   6.535   1.968   7.059
16160WAT     H148722   6.559   1.936   6.967
16160WAT     H248723   6.440   1.944   7.079
16161WAT      O48724   6.870   2.286   9.115
16161WAT     H148725   6.935   2.292   9.039
16161WAT     H248726   6.789   2.235   9.085
16162WAT      O48727   6.756   4.926   6.532
16162WAT     H148728   6.753   5.026   6.534
16162WAT     H248729   6.717   4.894   6.446
16163WAT      O48730   5.995   9.676   2.249
16163WAT     H148731   6.023   9.624   2.169
16163WAT     H248732   6.075   9.700   2.303
16164WAT      O48733   7.649   5.847   1.488
16164WAT     H148734   7.608   5.762   1.454
16164WAT     H248735   7.738   5.827   1.528
16165WAT      O48736   2.019   3.245   2.484
16165WAT     H148737   2.068   3.196   2.413
16165WAT     H248738   1.933   3.281   2.447
16166WAT      O48739   1.641   0.158   2.872
16166WAT     H148740   1.541   0.150   2.871
16166WAT     H248741   1.667   0.244   2.916
16167WAT      O48742   8.003   4.791   0.333
16167WAT     H148743   7.975   4.742   0.416
16167WAT     H248744   7.983   4.888   0.343
16168WAT      O48745   3.947   5.477   9.397
16168WAT     H148746   3.934   5.385   9.433
16168WAT     H248747   3.990   5.472   9.307
16169WAT      O48748   9.341   1.629   8.272
16169WAT     H148749   9.343   1.572   8.354
16169WAT     H248750   9.288   1.582   8.201
16170WAT      O48751   4.344   7.404   7.695
16170WAT     H148752   4.275   7.471   7.723
16170WAT     H248753   4.380   7.358   7.776
16171WAT      O48754   6.306   9.698   8.174
16171WAT     H148755   6.221   9.645   8.181
16171WAT     H248756   6.332   9.733   8.264
16172WAT      O48757   4.221   3.002   6.260
16172WAT     H148758   4.238   2.911   6.297
16172WAT     H248759   4.132   3.005   6.215
16173WAT      O48760   5.098   2.450   9.647
16173WAT     H148761   4.999   2.448   9.634
16173WAT     H248762   5.125   2.374   9.706
16174WAT      O48763   2.903   7.391   1.505
16174WAT     H148764   2.945   7.321   1.563
16174WAT     H248765   2.911   7.481   1.549
16175WAT      O48766   8.272   1.923   2.068
16175WAT     H148767   8.305   1.924   2.163
16175WAT     H248768   8.321   1.992   2.015
16176WAT      O48769   0.979   2.267   4.984
16176WAT     H148770   1.009   2.350   5.033
16176WAT     H248771   0.971   2.287   4.887
16177WAT      O48772   4.457   6.162   6.501
16177WAT     H148773   4.507   6.081   6.471
16177WAT     H248774   4.481   6.240   6.442
16178WAT      O48775   9.275   4.106   5.278
16178WAT     H148776   9.279   4.048   5.359
16178WAT     H248777   9.251   4.051   5.198
16179WAT      O48778   1.759   2.314   8.434
16179WAT     H148779   1.823   2.282   8.504
16179WAT     H248780   1.750   2.414   8.441
16180WAT      O48781   3.430   8.949   2.208
16180WAT     H148782   3.517   8.983   2.171
16180WAT     H248783   3.449   8.890   2.287
16181WAT      O48784   6.552   4.538   7.198
16181WAT     H148785   6.625   4.478   7.230
16181WAT     H248786   6.571   4.568   7.105
16182WAT      O48787   2.932   2.087   8.316
16182WAT     H148788   2.971   2.104   8.225
16182WAT     H248789   2.884   2.000   8.316
16183WAT      O48790   5.036   3.053   3.734
16183WAT     H148791   4.970   3.116   3.775
16183WAT     H248792   5.000   2.960   3.739
16184WAT      O48793   0.980   8.538   2.030
16184WAT     H148794   1.061   8.594   2.046
16184WAT     H248795   0.899   8.597   2.029
16185WAT      O48796   8.946   1.563   8.154
16185WAT     H148797   9.003   1.645   8.155
16185WAT     H248798   8.881   1.569   8.078
16186WAT      O48799   2.818   5.645   4.671
16186WAT     H148800   2.883   5.610   4.604
16186WAT     H248801   2.849   5.623   4.763
16187WAT      O48802   9.713   4.218   8.307
16187WAT     H148803   9.731   4.315   8.291
16187WAT     H248804   9.675   4.177   8.224
16188WAT      O48805   2.264   7.294   1.912
16188WAT     H148806   2.221   7.240   1.841
16188WAT     H248807   2.280   7.237   1.993
16189WAT      O48808   1.755   9.269   5.058
16189WAT     H148809   1.811   9.198   5.100
16189WAT     H248810   1.714   9.234   4.974
16190WAT      O48811   2.133   7.224   5.926
16190WAT     H148812   2.195   7.192   5.854
16190WAT     H248813   2.103   7.317   5.905
16191WAT      O48814   3.741   3.028   6.756
16191WAT     H148815   3.752   3.038   6.855
16191WAT     H248816   3.794   3.099   6.709
16192WAT      O48817   2.623   5.273   8.542
16192WAT     H148818   2.654   5.188   8.501
16192WAT     H248819   2.701   5.323   8.581
16193WAT      O48820   3.891   4.352   3.166
16193WAT     H148821   3.830   4.409   3.221
16193WAT     H248822   3.838   4.303   3.097
16194WAT      O48823   8.151   6.010   7.528
16194WAT     H148824   8.156   5.911   7.542
16194WAT     H248825   8.059   6.042   7.549
16195WAT      O48826   8.340   2.777   7.549
16195WAT     H148827   8.374   2.866   7.518
16195WAT     H248828   8.300   2.786   7.640
16196WAT      O48829   2.323   2.727   8.544
16196WAT     H148830   2.261   2.702   8.470
16196WAT     H248831   2.391   2.792   8.510
16197WAT      O48832   1.936   5.356   4.455
16197WAT     H148833   1.978   5.415   4.523
16197WAT     H248834   1.842   5.386   4.437
16198WAT      O48835   4.285   3.459   4.708
16198WAT     H148836   4.385   3.463   4.709
16198WAT     H248837   4.255   3.378   4.758
16199WAT      O48838   4.731   1.815   6.643
16199WAT     H148839   4.790   1.822   6.724
16199WAT     H248840   4.685   1.727   6.643
16200WAT      O48841   4.871   2.346   1.472
16200WAT     H148842   4.825   2.356   1.384
16200WAT     H248843   4.810   2.302   1.537
16201WAT      O48844   7.821   2.999   2.531
16201WAT     H148845   7.849   2.908   2.501
16201WAT     H248846   7.850   3.067   2.464
16202WAT      O48847   4.720   1.869   6.367
16202WAT     H148848   4.708   1.843   6.462
16202WAT     H248849   4.632   1.896   6.328
16203WAT      O48850   3.602   2.941   7.168
16203WAT     H148851   3.579   2.901   7.079
16203WAT     H248852   3.701   2.940   7.180
16204WAT      O48853   9.283   3.975   0.050
16204WAT     H148854   9.271   3.876   0.062
16204WAT     H248855   9.299   4.018   0.139
16205WAT      O48856   8.862   7.621   9.718
16205WAT     H148857   8.917   7.539   9.701
16205WAT     H248858   8.919   7.691   9.762
16206WAT      O48859   4.938   1.426   9.856
16206WAT     H148860   5.004   1.369   9.904
16206WAT     H248861   4.851   1.428   9.906
16207WAT      O48862   4.165   0.318   1.629
16207WAT     H148863   4.076   0.292   1.592
16207WAT     H248864   4.218   0.236   1.650
16208WAT      O48865   3.476   2.993   4.226
16208WAT     H148866   3.378   3.008   4.211
16208WAT     H248867   3.494   2.989   4.324
16209WAT      O48868   6.861   1.589   5.840
16209WAT     H148869   6.773   1.621   5.806
16209WAT     H248870   6.851   1.553   5.932
16210WAT      O48871   7.218   2.188   2.362
16210WAT     H148872   7.160   2.130   2.420
16210WAT     H248873   7.271   2.130   2.300
16211WAT      O48874   5.723   0.146   2.501
16211WAT     H148875   5.764   0.202   2.429
16211WAT     H248876   5.755   0.052   2.494
16212WAT      O48877   3.184   8.336   1.214
16212WAT     H148878   3.249   8.260   1.207
16212WAT     H248879   3.224   8.417   1.170
16213WAT      O48880   1.956   6.677   3.991
16213WAT     H148881   2.033   6.617   4.012
16213WAT     H248882   1.887   6.625   3.940
16214WAT      O48883   5.571   0.190   1.507
16214WAT     H148884   5.617   0.250   1.441
16214WAT     H248885   5.508   0.129   1.458
16215WAT      O48886   2.792   3.968   9.679
16215WAT     H148887   2.792   3.871   9.657
16215WAT     H248888   2.813   4.022   9.597
16216WAT      O48889   3.712   7.713   5.506
16216WAT     H148890   3.761   7.796   5.476
16216WAT     H248891   3.745   7.686   5.596
16217WAT      O48892   3.141   6.325   1.733
16217WAT     H148893   3.046   6.335   1.702
16217WAT     H248894   3.193   6.275   1.664
16218WAT      O48895   2.120   4.142   0.464
16218WAT     H148896   2.216   4.113   0.465
16218WAT     H248897   2.097   4.184   0.552
16219WAT      O48898   2.400   8.139   0.428
16219WAT     H148899   2.497   8.138   0.404
16219WAT     H248900   2.358   8.223   0.394
16220WAT      O48901   3.296   8.479   0.469
16220WAT     H148902   3.243   8.479   0.384
16220WAT     H248903   3.262   8.551   0.529
16221WAT      O48904   9.693   3.518   3.935
16221WAT     H148905   9.752   3.559   3.865
16221WAT     H248906   9.648   3.590   3.987
16222WAT      O48907   5.631   0.980   6.985
16222WAT     H148908   5.574   0.900   6.966
16222WAT     H248909   5.613   1.051   6.917
16223WAT      O48910   4.177   9.683   6.240
16223WAT     H148911   4.241   9.663   6.314
16223WAT     H248912   4.087   9.702   6.279
16224WAT      O48913   3.047   7.546   9.385
16224WAT     H148914   3.109   7.587   9.452
16224WAT     H248915   3.099   7.519   9.304
16225WAT      O48916   2.115   6.390   0.065
16225WAT     H148917   2.128   6.399   0.164
16225WAT     H248918   2.120   6.480   0.022
16226WAT      O48919   9.565   9.114   7.300
16226WAT     H148920   9.470   9.098   7.274
16226WAT     H248921   9.611   9.168   7.230
16227WAT      O48922   0.045   6.445   8.464
16227WAT     H148923  -0.031   6.386   8.490
16227WAT     H248924   0.124   6.425   8.521
16228WAT      O48925   3.957   5.372   7.589
16228WAT     H148926   4.019   5.381   7.511
16228WAT     H248927   3.952   5.459   7.638
16229WAT      O48928   4.400   9.351   9.135
16229WAT     H148929   4.331   9.389   9.196
16229WAT     H248930   4.482   9.409   9.136
16230WAT      O48931   3.278   2.349   7.667
16230WAT     H148932   3.362   2.297   7.674
16230WAT     H248933   3.291   2.439   7.709
16231WAT      O48934   7.975   5.791   4.909
16231WAT     H148935   7.992   5.702   4.950
16231WAT     H248936   7.927   5.850   4.975
16232WAT      O48937   2.608   7.822   1.616
16232WAT     H148938   2.584   7.906   1.567
16232WAT     H248939   2.530   7.759   1.615
16233WAT      O48940   3.534   2.572   1.479
16233WAT     H148941   3.509   2.476   1.466
16233WAT     H248942   3.471   2.614   1.544
16234WAT      O48943   1.141   8.573   2.914
16234WAT     H148944   1.194   8.494   2.884
16234WAT     H248945   1.203   8.648   2.938
16235WAT      O48946   7.026   1.027   9.215
16235WAT     H148947   7.074   1.060   9.297
16235WAT     H248948   7.082   0.958   9.169
16236WAT      O48949   2.156   6.687   1.935
16236WAT     H148950   2.079   6.630   1.963
16236WAT     H248951   2.145   6.778   1.976
16237WAT      O48952   9.166   1.118   3.415
16237WAT     H148953   9.200   1.202   3.371
16237WAT     H248954   9.242   1.071   3.459
16238WAT      O48955   0.624   6.860   0.977
16238WAT     H148956   0.683   6.924   0.929
16238WAT     H248957   0.550   6.909   1.023
16239WAT      O48958   2.855   6.801   5.708
16239WAT     H148959   2.893   6.757   5.789
16239WAT     H248960   2.762   6.833   5.727
16240WAT      O48961   5.437   5.126   1.617
16240WAT     H148962   5.427   5.026   1.615
16240WAT     H248963   5.533   5.149   1.632
16241WAT      O48964   3.196   2.488   8.493
16241WAT     H148965   3.102   2.457   8.479
16241WAT     H248966   3.218   2.559   8.425
16242WAT      O48967   3.924   7.683   4.564
16242WAT     H148968   3.838   7.671   4.514
16242WAT     H248969   3.959   7.776   4.550
16243WAT      O48970   2.929   8.831   0.871
16243WAT     H148971   2.926   8.788   0.780
16243WAT     H248972   2.974   8.769   0.935
16244WAT      O48973   0.716   1.153   1.020
16244WAT     H148974   0.660   1.071   1.019
16244WAT     H248975   0.812   1.127   1.011
16245WAT      O48976   3.806   6.287   2.190
16245WAT     H148977   3.805   6.300   2.091
16245WAT     H248978   3.750   6.208   2.213
16246WAT      O48979   2.612   7.807   1.897
16246WAT     H148980   2.623   7.812   1.798
16246WAT     H248981   2.629   7.713   1.928
16247WAT      O48982   0.731   5.849   0.576
16247WAT     H148983   0.774   5.916   0.637
16247WAT     H248984   0.685   5.897   0.501
16248WAT      O48985   2.102   6.862   9.534
16248WAT     H148986   2.031   6.929   9.513
16248WAT     H248987   2.109   6.798   9.458
16249WAT      O48988   1.648   8.896   1.860
16249WAT     H148989   1.621   8.968   1.924
16249WAT     H248990   1.685   8.819   1.911
16250WAT      O48991   7.127   5.366   7.940
16250WAT     H148992   7.069   5.348   7.860
16250WAT     H248993   7.072   5.406   8.013
16251WAT      O48994   6.740   7.972   3.939
16251WAT     H148995   6.833   7.972   3.902
16251WAT     H248996   6.687   7.899   3.895
16252WAT      O48997   2.634   7.580   5.879
16252WAT     H148998   2.724   7.582   5.836
16252WAT     H248999   2.643   7.598   5.977
16253WAT      O49000   0.542   7.292   6.208
16253WAT     H149001   0.546   7.198   6.240
16253WAT     H249002   0.523   7.293   6.110
16254WAT      O49003   9.384   5.010   9.283
16254WAT     H149004   9.472   5.030   9.326
16254WAT     H249005   9.329   4.951   9.343
16255WAT      O49006   6.557   6.023   6.022
16255WAT     H149007   6.559   6.117   5.988
16255WAT     H249008   6.463   5.989   6.023
16256WAT      O49009   5.925   7.629   1.232
16256WAT     H149010   5.889   7.620   1.324
16256WAT     H249011   5.995   7.559   1.216
16257WAT      O49012   7.645   7.989   2.811
16257WAT     H149013   7.724   7.989   2.749
16257WAT     H249014   7.598   8.077   2.805
16258WAT      O49015   6.381   4.428   1.120
16258WAT     H149016   6.347   4.420   1.214
16258WAT     H249017   6.376   4.524   1.091
16259WAT      O49018   0.062   2.628   5.858
16259WAT     H149019  -0.013   2.672   5.808
16259WAT     H249020   0.125   2.585   5.794
16260WAT      O49021   9.686   4.659   7.553
16260WAT     H149022   9.626   4.732   7.520
16260WAT     H249023   9.741   4.693   7.630
16261WAT      O49024   0.105   6.371   4.598
16261WAT     H149025   0.147   6.378   4.688
16261WAT     H249026   0.049   6.452   4.580
16262WAT      O49027   7.622   1.373   7.186
16262WAT     H149028   7.630   1.471   7.166
16262WAT     H249029   7.547   1.358   7.250
16263WAT      O49030   7.897   4.046   4.519
16263WAT     H149031   7.993   4.046   4.548
16263WAT     H249032   7.886   3.985   4.441
16264WAT      O49033   3.338   8.550   8.920
16264WAT     H149034   3.290   8.511   8.998
16264WAT     H249035   3.326   8.649   8.919
16265WAT      O49036   7.528   7.464   1.199
16265WAT     H149037   7.609   7.507   1.161
16265WAT     H249038   7.485   7.525   1.265
16266WAT      O49039   0.251   9.636   6.844
16266WAT     H149040   0.202   9.617   6.929
16266WAT     H249041   0.308   9.717   6.856
16267WAT      O49042   1.910   2.875   9.569
16267WAT     H149043   1.850   2.917   9.501
16267WAT     H249044   1.987   2.832   9.523
16268WAT      O49045   6.767   6.587   0.025
16268WAT     H149046   6.840   6.519   0.017
16268WAT     H249047   6.679   6.541   0.032
16269WAT      O49048   1.903   1.035   1.211
16269WAT     H149049   1.912   0.954   1.269
16269WAT     H249050   1.994   1.073   1.194
16270WAT      O49051   3.019   0.232   8.306
16270WAT     H149052   2.973   0.314   8.340
16270WAT     H249053   3.034   0.241   8.207
16271WAT      O49054   2.846   2.363   5.614
16271WAT     H149055   2.853   2.313   5.700
16271WAT     H249056   2.899   2.315   5.544
16272WAT      O49057   2.408   3.394   7.826
16272WAT     H149058   2.356   3.378   7.742
16272WAT     H249059   2.446   3.487   7.824
16273WAT      O49060   8.456   8.338   7.352
16273WAT     H149061   8.387   8.281   7.309
16273WAT     H249062   8.415   8.392   7.425
16274WAT      O49063   0.284   0.456   5.858
16274WAT     H149064   0.271   0.521   5.933
16274WAT     H249065   0.261   0.500   5.771
16275WAT      O49066   8.992   2.076   0.183
16275WAT     H149067   8.953   2.149   0.126
16275WAT     H249068   9.084   2.054   0.151
16276WAT      O49069   2.637   8.130   8.666
16276WAT     H149070   2.609   8.054   8.606
16276WAT     H249071   2.664   8.208   8.610
16277WAT      O49072   9.668   3.792   6.120
16277WAT     H149073   9.598   3.750   6.178
16277WAT     H249074   9.758   3.771   6.158
16278WAT      O49075   7.294   1.387   2.603
16278WAT     H149076   7.280   1.418   2.509
16278WAT     H249077   7.307   1.288   2.604
16279WAT      O49078   6.112   3.461   8.897
16279WAT     H149079   6.025   3.436   8.941
16279WAT     H249080   6.186   3.452   8.963
16280WAT      O49081   9.806   8.174   5.125
16280WAT     H149082   9.820   8.214   5.034
16280WAT     H249083   9.812   8.246   5.194
16281WAT      O49084   8.920   5.168   1.093
16281WAT     H149085   8.985   5.177   1.017
16281WAT     H249086   8.828   5.187   1.061
16282WAT      O49087   4.918   9.438   2.673
16282WAT     H149088   4.979   9.363   2.696
16282WAT     H249089   4.963   9.498   2.606
16283WAT      O49090   5.716   4.313   1.130
16283WAT     H149091   5.792   4.378   1.134
16283WAT     H249092   5.662   4.320   1.214
16284WAT      O49093   8.996   5.182   7.377
16284WAT     H149094   9.060   5.110   7.404
16284WAT     H249095   9.011   5.263   7.434
16285WAT      O49096   5.926   0.644   3.749
16285WAT     H149097   5.925   0.654   3.849
16285WAT     H249098   5.894   0.728   3.707
16286WAT      O49099   9.813   8.775   4.263
16286WAT     H149100   9.714   8.778   4.249
16286WAT     H249101   9.850   8.694   4.218
16287WAT      O49102   4.082   3.719   6.189
16287WAT     H149103   4.117   3.809   6.163
16287WAT     H249104   4.111   3.652   6.120
16288WAT      O49105   1.945   3.221   7.198
16288WAT     H149106   1.929   3.125   7.175
16288WAT     H249107   1.898   3.279   7.132
16289WAT      O49108   2.548   7.939   7.423
16289WAT     H149109   2.542   7.880   7.342
16289WAT     H249110   2.524   8.033   7.398
16290WAT      O49111   8.629   0.355   1.844
16290WAT     H149112   8.618   0.449   1.877
16290WAT     H249113   8.721   0.323   1.867
16291WAT      O49114   5.845   7.432   4.452
16291WAT     H149115   5.930   7.413   4.502
16291WAT     H249116   5.803   7.514   4.488
16292WAT      O49117   3.331   3.292   2.538
16292WAT     H149118   3.332   3.199   2.573
16292WAT     H249119   3.292   3.353   2.608
16293WAT      O49120   6.168   1.387   8.646
16293WAT     H149121   6.124   1.445   8.714
16293WAT     H249122   6.258   1.359   8.679
16294WAT      O49123   3.901   5.642   2.317
16294WAT     H149124   3.991   5.607   2.292
16294WAT     H249125   3.837   5.566   2.328
16295WAT      O49126   2.652   8.239   0.389
16295WAT     H149127   2.631   8.295   0.309
16295WAT     H249128   2.741   8.265   0.426
16296WAT      O49129   4.154   7.651   0.640
16296WAT     H149130   4.172   7.563   0.598
16296WAT     H249131   4.138   7.638   0.738
16297WAT      O49132   1.449   2.152   2.760
16297WAT     H149133   1.502   2.172   2.842
16297WAT     H249134   1.353   2.139   2.785
16298WAT      O49135   1.858   4.313   0.176
16298WAT     H149136   1.808   4.396   0.152
16298WAT     H249137   1.801   4.256   0.235
16299WAT      O49138   6.927   8.974   2.978
16299WAT     H149139   6.990   8.952   3.052
16299WAT     H249140   6.888   8.889   2.941
16300WAT      O49141   0.049   5.457   2.884
16300WAT     H149142   0.125   5.403   2.919
16300WAT     H249143   0.077   5.553   2.875
16301WAT      O49144   2.126   9.349   6.595
16301WAT     H149145   2.087   9.280   6.656
16301WAT     H249146   2.226   9.340   6.593
16302WAT      O49147   5.710   8.956   4.852
16302WAT     H149148   5.775   9.006   4.795
16302WAT     H249149   5.620   8.956   4.808
16303WAT      O49150   7.322   8.257   5.808
16303WAT     H149151   7.354   8.168   5.839
16303WAT     H249152   7.396   8.302   5.757
16304WAT      O49153   2.714   1.687   8.827
16304WAT     H149154   2.688   1.718   8.919
16304WAT     H249155   2.725   1.588   8.828
16305WAT      O49156   8.113   0.792   3.082
16305WAT     H149157   8.192   0.823   3.135
16305WAT     H249158   8.055   0.870   3.059
16306WAT      O49159   2.810   7.130   4.881
16306WAT     H149160   2.889   7.106   4.936
16306WAT     H249161   2.839   7.146   4.786
16307WAT      O49162   9.529   6.076   6.821
16307WAT     H149163   9.515   6.175   6.814
16307WAT     H249164   9.520   6.047   6.916
16308WAT      O49165   3.111   9.273   4.720
16308WAT     H149166   3.052   9.351   4.741
16308WAT     H249167   3.076   9.191   4.766
16309WAT      O49168   5.782   1.736   4.811
16309WAT     H149169   5.826   1.657   4.852
16309WAT     H249170   5.689   1.745   4.847
16310WAT      O49171   2.851   1.417   3.516
16310WAT     H149172   2.781   1.362   3.470
16310WAT     H249173   2.879   1.372   3.601
16311WAT      O49174   8.739   2.322   5.483
16311WAT     H149175   8.745   2.259   5.406
16311WAT     H249176   8.719   2.271   5.567
16312WAT      O49177   0.186   7.892   5.658
16312WAT     H149178   0.229   7.848   5.579
16312WAT     H249179   0.167   7.823   5.728
16313WAT      O49180   0.943   3.338   7.000
16313WAT     H149181   0.959   3.247   6.962
16313WAT     H249182   0.941   3.405   6.926
16314WAT      O49183   3.428   5.414   4.986
16314WAT     H149184   3.483   5.333   4.966
16314WAT     H249185   3.368   5.395   5.064
16315WAT      O49186   0.562   8.388   3.977
16315WAT     H149187   0.662   8.384   3.964
16315WAT     H249188   0.522   8.300   3.951
16316WAT      O49189   4.049   4.489   3.975
16316WAT     H149190   4.132   4.544   3.981
16316WAT     H249191   4.043   4.448   3.884
16317WAT      O49192   0.293   4.284   1.023
16317WAT     H149193   0.292   4.282   0.923
16317WAT     H249194   0.219   4.342   1.056
16318WAT      O49195   4.804   1.359   4.281
16318WAT     H149196   4.770   1.382   4.372
16318WAT     H249197   4.853   1.437   4.243
16319WAT      O49198   6.365   1.918   8.729
16319WAT     H149199   6.332   1.938   8.637
16319WAT     H249200   6.300   1.955   8.796
16320WAT      O49201   6.874   4.895   9.233
16320WAT     H149202   6.808   4.941   9.174
16320WAT     H249203   6.870   4.796   9.217
16321WAT      O49204   9.383   4.882   4.247
16321WAT     H149205   9.356   4.947   4.176
16321WAT     H249206   9.302   4.834   4.281
16322WAT      O49207   0.324   3.374   1.589
16322WAT     H149208   0.395   3.304   1.589
16322WAT     H249209   0.245   3.341   1.536
16323WAT      O49210   5.836   5.448   5.880
16323WAT     H149211   5.745   5.485   5.901
16323WAT     H249212   5.859   5.378   5.947
16324WAT      O49213   9.556   6.908   0.181
16324WAT     H149214   9.520   6.936   0.270
16324WAT     H249215   9.655   6.917   0.180
16325WAT      O49216   9.145   9.245   7.105
16325WAT     H149217   9.046   9.235   7.117
16325WAT     H249218   9.192   9.195   7.178
16326WAT      O49219   7.775   7.149   2.836
16326WAT     H149220   7.858   7.094   2.833
16326WAT     H249221   7.782   7.216   2.910
16327WAT      O49222   9.781   7.807   6.891
16327WAT     H149223   9.829   7.809   6.804
16327WAT     H249224   9.746   7.715   6.908
16328WAT      O49225   8.980   8.753   6.559
16328WAT     H149226   9.062   8.810   6.561
16328WAT     H249227   8.991   8.676   6.622
16329WAT      O49228   6.680   8.026   8.446
16329WAT     H149229   6.716   7.998   8.535
16329WAT     H249230   6.581   8.013   8.444
16330WAT      O49231   4.349   8.918   9.457
16330WAT     H149232   4.356   8.950   9.362
16330WAT     H249233   4.368   8.820   9.460
16331WAT      O49234   0.637   1.099   5.448
16331WAT     H149235   0.542   1.096   5.415
16331WAT     H249236   0.697   1.128   5.374
16332WAT      O49237   0.871   4.555   5.253
16332WAT     H149238   0.873   4.493   5.174
16332WAT     H249239   0.790   4.536   5.308
16333WAT      O49240   1.149   7.420   3.502
16333WAT     H149241   1.067   7.409   3.446
16333WAT     H249242   1.229   7.426   3.443
16334WAT      O49243   8.522   4.400   4.068
16334WAT     H149244   8.609   4.436   4.035
16334WAT     H249245   8.519   4.301   4.053
16335WAT      O49246   1.179   2.654   1.522
16335WAT     H149247   1.241   2.633   1.598
16335WAT     H249248   1.231   2.700   1.450
16336WAT      O49249   5.941   5.822   1.874
16336WAT     H149250   5.935   5.775   1.786
16336WAT     H249251   5.908   5.762   1.947
16337WAT      O49252   8.920   6.159   1.418
16337WAT     H149253   8.957   6.229   1.356
16337WAT     H249254   8.843   6.113   1.374
16338WAT      O49255   0.649   5.012   9.751
16338WAT     H149256   0.681   5.092   9.700
16338WAT     H249257   0.601   4.951   9.689
16339WAT      O49258   6.186   3.789   8.382
16339WAT     H149259   6.202   3.888   8.381
16339WAT     H249260   6.174   3.758   8.476
16340WAT      O49261   0.934   6.332   8.158
16340WAT     H149262   0.994   6.330   8.238
16340WAT     H249263   0.865   6.260   8.165
16341WAT      O49264   2.112   7.779   8.720
16341WAT     H149265   2.020   7.751   8.747
16341WAT     H249266   2.155   7.705   8.668
16342WAT      O49267   3.210   4.152   7.980
16342WAT     H149268   3.260   4.147   7.894
16342WAT     H249269   3.274   4.169   8.055
16343WAT      O49270   8.941   1.481   0.659
16343WAT     H149271   8.863   1.522   0.707
16343WAT     H249272   8.913   1.396   0.616
16344WAT      O49273   0.360   9.257   5.755
16344WAT     H149274   0.340   9.159   5.762
16344WAT     H249275   0.456   9.274   5.777
16345WAT      O49276   6.585   0.350   9.533
16345WAT     H149277   6.652   0.400   9.588
16345WAT     H249278   6.551   0.410   9.460
16346WAT      O49279   8.163   0.713   0.120
16346WAT     H149280   8.219   0.754   0.193
16346WAT     H249281   8.088   0.662   0.162
16347WAT      O49282   3.388   0.510   1.224
16347WAT     H149283   3.463   0.482   1.283
16347WAT     H249284   3.424   0.560   1.145
16348WAT      O49285   0.045   2.244   1.613
16348WAT     H149286  -0.053   2.249   1.635
16348WAT     H249287   0.090   2.182   1.677
16349WAT      O49288   4.633   7.840   4.136
16349WAT     H149289   4.598   7.933   4.131
16349WAT     H249290   4.730   7.838   4.109
16350WAT      O49291   1.439   8.195   2.726
16350WAT     H149292   1.456   8.197   2.628
16350WAT     H249293   1.524   8.171   2.774
16351WAT      O49294   3.205   1.909   6.339
16351WAT     H149295   3.108   1.894   6.319
16351WAT     H249296   3.261   1.867   6.267
16352WAT      O49297   2.103   8.502   8.074
16352WAT     H149298   2.094   8.590   8.121
16352WAT     H249299   2.046   8.434   8.120
16353WAT      O49300   8.719   8.120   5.371
16353WAT     H149301   8.690   8.203   5.323
16353WAT     H249302   8.813   8.099   5.347
16354WAT      O49303   5.127   1.917   5.548
16354WAT     H149304   5.037   1.953   5.523
16354WAT     H249305   5.196   1.988   5.532
16355WAT      O49306   7.886   8.963   6.830
16355WAT     H149307   7.951   8.975   6.905
16355WAT     H249308   7.849   8.870   6.832
16356WAT      O49309   2.544   0.311   1.276
16356WAT     H149310   2.557   0.410   1.269
16356WAT     H249311   2.614   0.264   1.223
16357WAT      O49312   2.789   0.126   8.915
16357WAT     H149313   2.737   0.042   8.908
16357WAT     H249314   2.836   0.144   8.828
16358WAT      O49315   9.341   7.417   3.283
16358WAT     H149316   9.416   7.451   3.340
16358WAT     H249317   9.372   7.337   3.231
16359WAT      O49318   8.934   0.194   6.863
16359WAT     H149319   9.032   0.191   6.883
16359WAT     H249320   8.916   0.259   6.789
16360WAT      O49321   4.671   3.126   1.711
16360WAT     H149322   4.662   3.026   1.710
16360WAT     H249323   4.748   3.152   1.770
16361WAT      O49324   0.339   6.606   5.493
16361WAT     H149325   0.313   6.702   5.477
16361WAT     H249326   0.256   6.551   5.502
16362WAT      O49327   9.185   3.418   1.687
16362WAT     H149328   9.191   3.318   1.691
16362WAT     H249329   9.090   3.445   1.672
16363WAT      O49330   1.438   9.001   7.540
16363WAT     H149331   1.409   8.906   7.547
16363WAT     H249332   1.447   9.040   7.632
16364WAT      O49333   2.786   6.928   7.605
16364WAT     H149334   2.838   6.996   7.553
16364WAT     H249335   2.760   6.853   7.544
16365WAT      O49336   6.976   7.832   8.700
16365WAT     H149337   7.007   7.784   8.617
16365WAT     H249338   7.054   7.853   8.758
16366WAT      O49339   0.433   7.114   4.363
16366WAT     H149340   0.507   7.148   4.305
16366WAT     H249341   0.360   7.076   4.306
16367WAT      O49342   7.713   0.037   9.309
16367WAT     H149343   7.616   0.034   9.286
16367WAT     H249344   7.762   0.096   9.245
16368WAT      O49345   9.048   3.703   5.837
16368WAT     H149346   9.105   3.646   5.896
16368WAT     H249347   8.975   3.745   5.891
16369WAT      O49348   5.419   5.341   1.367
16369WAT     H149349   5.475   5.259   1.358
16369WAT     H249350   5.338   5.320   1.420
16370WAT      O49351   2.109   8.649   5.191
16370WAT     H149352   2.016   8.614   5.191
16370WAT     H249353   2.147   8.644   5.099
16371WAT      O49354   2.443   6.997   9.631
16371WAT     H149355   2.361   7.024   9.580
16371WAT     H249356   2.522   7.047   9.596
16372WAT      O49357   8.082   8.065   1.887
16372WAT     H149358   8.110   7.982   1.936
16372WAT     H249359   7.988   8.053   1.852
16373WAT      O49360   6.444   5.694   3.154
16373WAT     H149361   6.516   5.688   3.084
16373WAT     H249362   6.407   5.787   3.155
16374WAT      O49363   5.784   1.194   4.515
16374WAT     H149364   5.704   1.204   4.455
16374WAT     H249365   5.824   1.103   4.502
16375WAT      O49366   7.034   3.845   7.864
16375WAT     H149367   6.986   3.777   7.808
16375WAT     H249368   7.065   3.802   7.949
16376WAT      O49369   3.467   4.067   8.332
16376WAT     H149370   3.369   4.088   8.324
16376WAT     H249371   3.484   4.027   8.422
16377WAT      O49372   3.350   3.695   8.245
16377WAT     H149373   3.438   3.741   8.261
16377WAT     H249374   3.335   3.684   8.147
16378WAT      O49375   0.956   9.257   6.962
16378WAT     H149376   0.977   9.234   6.867
16378WAT     H249377   0.868   9.217   6.987
16379WAT      O49378   2.797   5.478   9.683
16379WAT     H149379   2.818   5.415   9.758
16379WAT     H249380   2.778   5.569   9.720
16380WAT      O49381   5.647   9.544   6.564
16380WAT     H149382   5.721   9.543   6.496
16380WAT     H249383   5.674   9.603   6.641
16381WAT      O49384   8.411   0.178   8.416
16381WAT     H149385   8.363   0.091   8.423
16381WAT     H249386   8.352   0.246   8.373
16382WAT      O49387   6.038   7.785   3.854
16382WAT     H149388   6.048   7.766   3.952
16382WAT     H249389   5.970   7.723   3.815
16383WAT      O49390   5.298   8.202   0.784
16383WAT     H149391   5.258   8.129   0.840
16383WAT     H249392   5.356   8.260   0.840
16384WAT      O49393   6.010   7.546   2.310
16384WAT     H149394   5.961   7.568   2.394
16384WAT     H249395   5.948   7.503   2.245
16385WAT      O49396   8.197   4.594   0.236
16385WAT     H149397   8.286   4.638   0.225
16385WAT     H249398   8.125   4.662   0.223
16386WAT      O49399   7.709   6.243   2.869
16386WAT     H149400   7.766   6.199   2.799
16386WAT     H249401   7.732   6.204   2.959
16387WAT      O49402   6.183   2.423   5.182
16387WAT     H149403   6.085   2.441   5.170
16387WAT     H249404   6.232   2.452   5.100
16388WAT      O49405   3.425   2.254   6.863
16388WAT     H149406   3.394   2.162   6.889
16388WAT     H249407   3.520   2.266   6.891
16389WAT      O49408   8.398   8.844   3.784
16389WAT     H149409   8.382   8.904   3.706
16389WAT     H249410   8.360   8.753   3.766
16390WAT      O49411   1.627   3.805   3.991
16390WAT     H149412   1.556   3.828   4.058
16390WAT     H249413   1.618   3.864   3.911
16391WAT      O49414   2.153   4.494   7.099
16391WAT     H149415   2.202   4.561   7.155
16391WAT     H249416   2.105   4.542   7.025
16392WAT      O49417   7.028   5.270   5.842
16392WAT     H149418   7.086   5.247   5.764
16392WAT     H249419   7.079   5.253   5.927
16393WAT      O49420   9.348   0.339   6.573
16393WAT     H149421   9.421   0.407   6.579
16393WAT     H249422   9.294   0.355   6.490
16394WAT      O49423   8.316   0.896   2.321
16394WAT     H149424   8.255   0.821   2.292
16394WAT     H249425   8.330   0.959   2.244
16395WAT      O49426   3.383   4.072   5.848
16395WAT     H149427   3.464   4.130   5.849
16395WAT     H249428   3.382   4.014   5.930
16396WAT      O49429   4.951   5.419   5.760
16396WAT     H149430   5.049   5.430   5.773
16396WAT     H249431   4.924   5.460   5.673
16397WAT      O49432   7.029   1.363   6.162
16397WAT     H149433   7.032   1.305   6.080
16397WAT     H249434   7.103   1.337   6.224
16398WAT      O49435   9.047   6.861   4.805
16398WAT     H149436   9.056   6.878   4.903
16398WAT     H249437   9.002   6.773   4.790
16399WAT      O49438   8.527   0.053   7.399
16399WAT     H149439   8.488  -0.033   7.365
16399WAT     H249440   8.610   0.034   7.450
16400WAT      O49441   3.884   9.374   2.940
16400WAT     H149442   3.872   9.464   2.983
16400WAT     H249443   3.972   9.370   2.894
16401WAT      O49444   7.624   5.779   4.331
16401WAT     H149445   7.675   5.779   4.417
16401WAT     H249446   7.563   5.858   4.329
16402WAT      O49447   3.908   4.015   6.225
16402WAT     H149448   3.846   3.938   6.243
16402WAT     H249449   4.000   3.980   6.208
16403WAT      O49450   1.455   7.859   1.523
16403WAT     H149451   1.434   7.781   1.465
16403WAT     H249452   1.408   7.849   1.611
16404WAT      O49453   8.531   8.508   2.114
16404WAT     H149454   8.593   8.431   2.108
16404WAT     H249455   8.437   8.475   2.124
16405WAT      O49456   7.391   7.642   1.343
16405WAT     H149457   7.357   7.733   1.320
16405WAT     H249458   7.375   7.623   1.440
16406WAT      O49459   7.994   9.708   8.501
16406WAT     H149460   7.952   9.617   8.505
16406WAT     H249461   7.951   9.761   8.427
16407WAT      O49462   9.625   0.538   7.546
16407WAT     H149463   9.576   0.484   7.479
16407WAT     H249464   9.705   0.488   7.578
16408WAT      O49465   9.048   1.928   9.755
16408WAT     H149466   8.982   1.857   9.780
16408WAT     H249467   9.114   1.939   9.830
16409WAT      O49468   8.440   9.787   1.923
16409WAT     H149469   8.376   9.764   1.850
16409WAT     H249470   8.416   9.875   1.963
16410WAT      O49471   0.567   4.120   2.298
16410WAT     H149472   0.613   4.099   2.212
16410WAT     H249473   0.622   4.086   2.374
16411WAT      O49474   4.549   4.450   3.164
16411WAT     H149475   4.555   4.355   3.195
16411WAT     H249476   4.640   4.481   3.134
16412WAT      O49477   2.299   2.775   6.658
16412WAT     H149478   2.348   2.853   6.697
16412WAT     H249479   2.225   2.748   6.720
16413WAT      O49480   9.401   5.123   7.072
16413WAT     H149481   9.415   5.115   6.973
16413WAT     H249482   9.304   5.136   7.090
16414WAT      O49483   3.792   5.747   9.107
16414WAT     H149484   3.761   5.711   9.195
16414WAT     H249485   3.822   5.671   9.050
16415WAT      O49486   5.557   9.071   0.839
16415WAT     H149487   5.466   9.030   0.848
16415WAT     H249488   5.627   9.000   0.845
16416WAT      O49489   1.897   8.670   1.097
16416WAT     H149490   1.887   8.593   1.160
16416WAT     H249491   1.807   8.700   1.065
16417WAT      O49492   5.866   5.101   3.427
16417WAT     H149493   5.821   5.092   3.338
16417WAT     H249494   5.956   5.058   3.424
16418WAT      O49495   5.077   7.039   2.712
16418WAT     H149496   5.106   6.944   2.724
16418WAT     H249497   5.027   7.069   2.793
16419WAT      O49498   9.569   1.432   8.432
16419WAT     H149499   9.595   1.523   8.465
16419WAT     H249500   9.474   1.413   8.457
16420WAT      O49501   5.475   1.143   7.292
16420WAT     H149502   5.469   1.156   7.391
16420WAT     H249503   5.383   1.145   7.252
16421WAT      O49504   5.829   6.272   4.917
16421WAT     H149505   5.731   6.262   4.936
16421WAT     H249506   5.842   6.308   4.825
16422WAT      O49507   8.723   1.251   1.608
16422WAT     H149508   8.710   1.179   1.540
16422WAT     H249509   8.819   1.253   1.636
16423WAT      O49510   2.326   7.783   6.068
16423WAT     H149511   2.396   7.736   6.122
16423WAT     H249512   2.237   7.775   6.113
16424WAT      O49513   3.153   3.826   6.335
16424WAT     H149514   3.055   3.841   6.322
16424WAT     H249515   3.182   3.869   6.420
16425WAT      O49516   9.409   7.891   9.805
16425WAT     H149517   9.427   7.796   9.833
16425WAT     H249518   9.371   7.942   9.882
16426WAT      O49519   6.993   9.521   2.940
16426WAT     H149520   7.044   9.456   2.996
16426WAT     H249521   7.012   9.504   2.843
16427WAT      O49522   7.561   8.449   7.562
16427WAT     H149523   7.605   8.520   7.617
16427WAT     H249524   7.578   8.467   7.465
16428WAT      O49525   0.149   3.558   3.952
16428WAT     H149526   0.157   3.472   4.003
16428WAT     H249527   0.172   3.541   3.856
16429WAT      O49528   6.667   9.160   0.817
16429WAT     H149529   6.748   9.103   0.825
16429WAT     H249530   6.630   9.153   0.724
16430WAT      O49531   5.998   8.021   6.344
16430WAT     H149532   5.912   7.971   6.340
16430WAT     H249533   5.988   8.109   6.297
16431WAT      O49534   4.617   9.004   6.886
16431WAT     H149535   4.601   8.906   6.881
16431WAT     H249536   4.674   9.024   6.966
16432WAT      O49537   1.431   6.566   6.561
16432WAT     H149538   1.347   6.577   6.613
16432WAT     H249539   1.494   6.640   6.583
16433WAT      O49540   6.820   0.339   0.930
16433WAT     H149541   6.761   0.407   0.973
16433WAT     H249542   6.879   0.297   1.000
16434WAT      O49543   7.605   7.713   2.914
16434WAT     H149544   7.519   7.663   2.920
16434WAT     H249545   7.594   7.791   2.852
16435WAT      O49546   2.991   6.167   4.349
16435WAT     H149547   2.967   6.142   4.442
16435WAT     H249548   3.063   6.237   4.350
16436WAT      O49549   8.705   3.408   7.054
16436WAT     H149550   8.657   3.440   7.135
16436WAT     H249551   8.779   3.473   7.032
16437WAT      O49552   1.218   9.043   6.912
16437WAT     H149553   1.160   8.968   6.942
16437WAT     H249554   1.217   9.116   6.980
16438WAT      O49555   9.779   6.326   2.551
16438WAT     H149556   9.686   6.362   2.539
16438WAT     H249557   9.791   6.245   2.495
16439WAT      O49558   8.806   8.263   2.554
16439WAT     H149559   8.762   8.353   2.549
16439WAT     H249560   8.855   8.255   2.640
16440WAT      O49561   9.298   1.179   0.834
16440WAT     H149562   9.377   1.237   0.814
16440WAT     H249563   9.310   1.090   0.789
16441WAT      O49564   1.373   8.581   6.278
16441WAT     H149565   1.390   8.646   6.204
16441WAT     H249566   1.457   8.529   6.296
16442WAT      O49567   2.651   6.941   2.262
16442WAT     H149568   2.719   7.015   2.259
16442WAT     H249569   2.672   6.873   2.193
16443WAT      O49570   0.668   5.963   5.925
16443WAT     H149571   0.735   5.891   5.909
16443WAT     H249572   0.576   5.928   5.909
16444WAT      O49573   2.284   4.295   4.252
16444WAT     H149574   2.374   4.334   4.230
16444WAT     H249575   2.259   4.228   4.182
16445WAT      O49576   7.205   8.560   0.972
16445WAT     H149577   7.121   8.537   1.022
16445WAT     H249578   7.281   8.505   1.008
16446WAT      O49579   6.231   5.919   0.005
16446WAT     H149580   6.306   5.921   0.072
16446WAT     H249581   6.247   5.990  -0.064
16447WAT      O49582   5.488   4.205   4.492
16447WAT     H149583   5.488   4.249   4.402
16447WAT     H249584   5.467   4.108   4.481
16448WAT      O49585   5.166   6.093   5.492
16448WAT     H149586   5.144   6.021   5.559
16448WAT     H249587   5.084   6.149   5.476
16449WAT      O49588   0.058   7.716   2.528
16449WAT     H149589  -0.022   7.659   2.506
16449WAT     H249590   0.142   7.666   2.505
16450WAT      O49591   2.048   4.712   0.884
16450WAT     H149592   2.046   4.760   0.796
16450WAT     H249593   2.143   4.695   0.911
16451WAT      O49594   8.941   8.458   7.193
16451WAT     H149595   8.986   8.467   7.282
16451WAT     H249596   8.842   8.455   7.206
16452WAT      O49597   4.070   6.700   0.335
16452WAT     H149598   4.037   6.766   0.403
16452WAT     H249599   4.110   6.621   0.381
16453WAT      O49600   2.160   9.366   4.489
16453WAT     H149601   2.120   9.454   4.517
16453WAT     H249602   2.099   9.321   4.424
16454WAT      O49603   4.454   7.781   1.621
16454WAT     H149604   4.407   7.693   1.622
16454WAT     H249605   4.514   7.786   1.542
16455WAT      O49606   9.354   7.980   0.203
16455WAT     H149607   9.452   7.968   0.190
16455WAT     H249608   9.325   8.065   0.160
16456WAT      O49609   6.232   2.724   5.937
16456WAT     H149610   6.277   2.813   5.943
16456WAT     H249611   6.191   2.714   5.846
16457WAT      O49612   6.162   9.463   4.888
16457WAT     H149613   6.225   9.470   4.966
16457WAT     H249614   6.180   9.538   4.824
16458WAT      O49615   1.386   7.576   7.748
16458WAT     H149616   1.320   7.567   7.822
16458WAT     H249617   1.397   7.487   7.703
16459WAT      O49618   2.482   0.085   5.700
16459WAT     H149619   2.426   0.055   5.777
16459WAT     H249620   2.450   0.173   5.667
16460WAT      O49621   0.134   4.041   9.269
16460WAT     H149622   0.201   4.111   9.297
16460WAT     H249623   0.171   3.989   9.192
16461WAT      O49624   8.141   0.013   7.755
16461WAT     H149625   8.220  -0.005   7.697
16461WAT     H249626   8.168   0.011   7.851
16462WAT      O49627   9.512   5.394   1.734
16462WAT     H149628   9.497   5.479   1.785
16462WAT     H249629   9.436   5.380   1.671
16463WAT      O49630   5.828   1.966   1.641
16463WAT     H149631   5.750   1.913   1.608
16463WAT     H249632   5.817   2.061   1.612
16464WAT      O49633   5.558   6.537   7.558
16464WAT     H149634   5.654   6.546   7.533
16464WAT     H249635   5.533   6.609   7.622
16465WAT      O49636   9.391   8.734   3.777
16465WAT     H149637   9.406   8.700   3.684
16465WAT     H249638   9.479   8.758   3.818
16466WAT      O49639   7.341   2.670   5.027
16466WAT     H149640   7.384   2.600   4.971
16466WAT     H249641   7.345   2.758   4.980
16467WAT      O49642   5.082   8.941   6.537
16467WAT     H149643   5.109   8.910   6.446
16467WAT     H249644   4.983   8.933   6.546
16468WAT      O49645   4.423   5.091   5.003
16468WAT     H149646   4.407   5.105   4.905
16468WAT     H249647   4.345   5.044   5.043
16469WAT      O49648   8.370   1.676   1.395
16469WAT     H149649   8.341   1.603   1.332
16469WAT     H249650   8.295   1.740   1.409
16470WAT      O49651   5.489   4.770   2.012
16470WAT     H149652   5.527   4.688   2.053
16470WAT     H249653   5.536   4.851   2.047
16471WAT      O49654   7.423   2.721   5.422
16471WAT     H149655   7.489   2.695   5.492
16471WAT     H249656   7.471   2.757   5.342
16472WAT      O49657   0.192   6.791   0.762
16472WAT     H149658   0.109   6.737   0.749
16472WAT     H249659   0.204   6.853   0.684
16473WAT      O49660   2.056   4.516   5.393
16473WAT     H149661   2.132   4.563   5.439
16473WAT     H249662   2.049   4.423   5.428
16474WAT      O49663   2.726   5.031   8.439
16474WAT     H149664   2.767   5.072   8.357
16474WAT     H249665   2.757   4.937   8.449
16475WAT      O49666   0.624   3.800   0.896
16475WAT     H149667   0.670   3.848   0.971
16475WAT     H249668   0.670   3.820   0.810
16476WAT      O49669   1.310   0.714   6.615
16476WAT     H149670   1.376   0.639   6.608
16476WAT     H249671   1.217   0.677   6.614
16477WAT      O49672   4.359   3.496   3.959
16477WAT     H149673   4.271   3.521   3.920
16477WAT     H249674   4.347   3.471   4.055
16478WAT      O49675   5.343   0.550   4.827
16478WAT     H149676   5.300   0.486   4.891
16478WAT     H249677   5.412   0.502   4.773
16479WAT      O49678   3.174   0.544   6.940
16479WAT     H149679   3.139   0.634   6.913
16479WAT     H249680   3.174   0.484   6.861
16480WAT      O49681   0.146   2.761   6.309
16480WAT     H149682   0.072   2.697   6.288
16480WAT     H249683   0.218   2.752   6.240
16481WAT      O49684   1.122   2.871   2.572
16481WAT     H149685   1.040   2.898   2.623
16481WAT     H249686   1.127   2.923   2.487
16482WAT      O49687   7.599   9.203   4.779
16482WAT     H149688   7.638   9.268   4.843
16482WAT     H249689   7.519   9.159   4.821
16483WAT      O49690   5.060   7.108   5.669
16483WAT     H149691   5.027   7.078   5.580
16483WAT     H249692   5.084   7.028   5.724
16484WAT      O49693   6.134   5.824   1.081
16484WAT     H149694   6.226   5.796   1.054
16484WAT     H249695   6.134   5.849   1.178
16485WAT      O49696   6.860   8.798   6.147
16485WAT     H149697   6.877   8.703   6.119
16485WAT     H249698   6.889   8.810   6.242
16486WAT      O49699   0.547   8.382   5.903
16486WAT     H149700   0.645   8.401   5.912
16486WAT     H249701   0.526   8.292   5.940
16487WAT      O49702   4.380   7.279   2.833
16487WAT     H149703   4.295   7.296   2.884
16487WAT     H249704   4.358   7.260   2.738
16488WAT      O49705   9.287   0.554   7.930
16488WAT     H149706   9.365   0.574   7.872
16488WAT     H249707   9.214   0.621   7.913
16489WAT      O49708   3.777   4.368   8.467
16489WAT     H149709   3.759   4.296   8.399
16489WAT     H249710   3.840   4.435   8.428
16490WAT      O49711   6.782   6.267   2.404
16490WAT     H149712   6.689   6.231   2.398
16490WAT     H249713   6.846   6.193   2.422
16491WAT      O49714   5.645   6.893   7.129
16491WAT     H149715   5.720   6.959   7.142
16491WAT     H249716   5.583   6.898   7.207
16492WAT      O49717   5.750   9.031   2.130
16492WAT     H149718   5.657   9.026   2.167
16492WAT     H249719   5.807   8.963   2.175
16493WAT      O49720   4.883   6.368   2.169
16493WAT     H149721   4.892   6.467   2.166
16493WAT     H249722   4.927   6.328   2.088
16494WAT      O49723   6.384   6.427   4.406
16494WAT     H149724   6.413   6.470   4.492
16494WAT     H249725   6.295   6.465   4.379
16495WAT      O49726   6.910   9.541   7.683
16495WAT     H149727   6.909   9.627   7.630
16495WAT     H249728   6.832   9.485   7.656
16496WAT      O49729   5.574   2.099   6.457
16496WAT     H149730   5.659   2.148   6.440
16496WAT     H249731   5.584   2.004   6.427
16497WAT      O49732   8.227   1.869   3.388
16497WAT     H149733   8.202   1.932   3.462
16497WAT     H249734   8.302   1.908   3.335
16498WAT      O49735   1.132   2.340   1.642
16498WAT     H149736   1.207   2.348   1.575
16498WAT     H249737   1.063   2.410   1.622
16499WAT      O49738   8.754   9.715   1.065
16499WAT     H149739   8.804   9.632   1.088
16499WAT     H249740   8.779   9.745   0.973
16500WAT      O49741   3.938   6.832   9.377
16500WAT     H149742   3.976   6.841   9.285
16500WAT     H249743   3.844   6.867   9.378
16501WAT      O49744   4.580   9.090   4.895
16501WAT     H149745   4.669   9.059   4.863
16501WAT     H249746   4.544   9.026   4.963
16502WAT      O49747   4.322   7.018   1.455
16502WAT     H149748   4.375   6.990   1.535
16502WAT     H249749   4.267   7.098   1.478
16503WAT      O49750   1.789   6.293   4.062
16503WAT     H149751   1.774   6.267   3.967
16503WAT     H249752   1.767   6.216   4.122
16504WAT      O49753   0.368   4.248   2.201
16504WAT     H149754   0.376   4.348   2.202
16504WAT     H249755   0.454   4.207   2.230
16505WAT      O49756   3.024   9.295   5.123
16505WAT     H149757   3.017   9.220   5.188
16505WAT     H249758   2.947   9.292   5.059
16506WAT      O49759   4.762   5.790   8.116
16506WAT     H149760   4.692   5.827   8.055
16506WAT     H249761   4.780   5.694   8.092
16507WAT      O49762   0.074   5.409   0.208
16507WAT     H149763   0.091   5.473   0.284
16507WAT     H249764   0.162   5.375   0.175
16508WAT      O49765   1.669   8.979   1.357
16508WAT     H149766   1.728   9.015   1.430
16508WAT     H249767   1.581   8.951   1.396
16509WAT      O49768   6.461   4.585   2.126
16509WAT     H149769   6.392   4.520   2.095
16509WAT     H249770   6.541   4.536   2.159
16510WAT      O49771   7.319   0.087   8.849
16510WAT     H149772   7.286   0.043   8.765
16510WAT     H249773   7.263   0.058   8.927
16511WAT      O49774   1.370   5.228   5.262
16511WAT     H149775   1.311   5.147   5.271
16511WAT     H249776   1.348   5.294   5.334
16512WAT      O49777   9.744   7.477   9.286
16512WAT     H149778   9.716   7.473   9.382
16512WAT     H249779   9.807   7.402   9.267
16513WAT      O49780   0.637   3.357   6.706
16513WAT     H149781   0.693   3.287   6.662
16513WAT     H249782   0.650   3.444   6.660
16514WAT      O49783   4.216   6.117   8.383
16514WAT     H149784   4.309   6.080   8.393
16514WAT     H249785   4.215   6.212   8.412
16515WAT      O49786   2.126   7.130   7.352
16515WAT     H149787   2.086   7.131   7.260
16515WAT     H249788   2.098   7.047   7.399
16516WAT      O49789   3.939   9.637   8.853
16516WAT     H149790   3.979   9.728   8.843
16516WAT     H249791   3.958   9.583   8.771
16517WAT      O49792   8.721   2.045   4.917
16517WAT     H149793   8.727   2.042   4.817
16517WAT     H249794   8.726   2.140   4.948
16518WAT      O49795   0.223   0.825   4.733
16518WAT     H149796   0.201   0.918   4.704
16518WAT     H249797   0.179   0.806   4.821
16519WAT      O49798   6.465   6.780   6.135
16519WAT     H149799   6.511   6.692   6.146
16519WAT     H249800   6.435   6.791   6.041
16520WAT      O49801   8.153   5.944   6.049
16520WAT     H149802   8.237   5.946   6.103
16520WAT     H249803   8.175   5.942   5.952
16521WAT      O49804   4.393   2.422   9.672
16521WAT     H149805   4.347   2.342   9.711
16521WAT     H249806   4.457   2.459   9.738
16522WAT      O49807   3.326   5.967   7.319
16522WAT     H149808   3.423   5.942   7.323
16522WAT     H249809   3.275   5.891   7.279
16523WAT      O49810   0.764   1.018   7.126
16523WAT     H149811   0.787   1.042   7.032
16523WAT     H249812   0.680   0.963   7.126
16524WAT      O49813   3.026   3.990   5.472
16524WAT     H149814   2.943   3.988   5.528
16524WAT     H249815   3.023   3.916   5.405
16525WAT      O49816   2.057   1.264   9.205
16525WAT     H149817   2.040   1.187   9.266
16525WAT     H249818   2.077   1.346   9.260
16526WAT      O49819   0.071   2.276   3.357
16526WAT     H149820   0.100   2.184   3.331
16526WAT     H249821   0.069   2.334   3.275
16527WAT      O49822   0.547   0.147   0.907
16527WAT     H149823   0.503   0.074   0.855
16527WAT     H249824   0.640   0.119   0.933
16528WAT      O49825   5.674   3.371   4.098
16528WAT     H149826   5.615   3.418   4.032
16528WAT     H249827   5.641   3.388   4.190
16529WAT      O49828   9.549   0.336   3.183
16529WAT     H149829   9.458   0.364   3.213
16529WAT     H249830   9.541   0.261   3.118
16530WAT      O49831   9.342   1.666   9.223
16530WAT     H149832   9.258   1.613   9.215
16530WAT     H249833   9.370   1.699   9.133
16531WAT      O49834   2.458   1.872   8.210
16531WAT     H149835   2.454   1.860   8.309
16531WAT     H249836   2.368   1.855   8.171
16532WAT      O49837   0.633   4.496   4.056
16532WAT     H149838   0.567   4.453   3.994
16532WAT     H249839   0.679   4.571   4.009
16533WAT      O49840   6.397   7.210   8.302
16533WAT     H149841   6.303   7.202   8.333
16533WAT     H249842   6.423   7.126   8.254
16534WAT      O49843   7.064   7.774   2.487
16534WAT     H149844   7.061   7.793   2.389
16534WAT     H249845   7.100   7.853   2.535
16535WAT      O49846   0.654   9.747   5.237
16535WAT     H149847   0.688   9.663   5.279
16535WAT     H249848   0.660   9.740   5.138
16536WAT      O49849   4.610   6.229   6.807
16536WAT     H149850   4.672   6.238   6.730
16536WAT     H249851   4.625   6.141   6.852
16537WAT      O49852   2.488   1.392   8.875
16537WAT     H149853   2.550   1.333   8.926
16537WAT     H249854   2.449   1.461   8.936
16538WAT      O49855   3.622   9.672   6.469
16538WAT     H149856   3.558   9.615   6.521
16538WAT     H249857   3.587   9.687   6.377
16539WAT      O49858   0.313   8.520   7.686
16539WAT     H149859   0.319   8.433   7.733
16539WAT     H249860   0.248   8.513   7.610
16540WAT      O49861   4.306   4.505   0.553
16540WAT     H149862   4.279   4.585   0.606
16540WAT     H249863   4.230   4.475   0.495
16541WAT      O49864   4.830   3.182   4.579
16541WAT     H149865   4.795   3.199   4.487
16541WAT     H249866   4.908   3.120   4.574
16542WAT      O49867   0.066   8.962   5.731
16542WAT     H149868   0.097   8.874   5.694
16542WAT     H249869   0.083   8.964   5.829
16543WAT      O49870   5.176   1.748   0.701
16543WAT     H149871   5.139   1.683   0.634
16543WAT     H249872   5.121   1.743   0.785
16544WAT      O49873   2.356   8.252   4.808
16544WAT     H149874   2.315   8.193   4.877
16544WAT     H249875   2.454   8.261   4.826
16545WAT      O49876   5.316   5.978   7.928
16545WAT     H149877   5.360   6.065   7.947
16545WAT     H249878   5.386   5.906   7.921
16546WAT      O49879   4.189   2.294   2.476
16546WAT     H149880   4.134   2.292   2.393
16546WAT     H249881   4.277   2.249   2.460
16547WAT      O49882   4.380   1.689   0.766
16547WAT     H149883   4.392   1.785   0.743
16547WAT     H249884   4.400   1.674   0.863
16548WAT      O49885   7.250   0.207   0.863
16548WAT     H149886   7.166   0.174   0.820
16548WAT     H249887   7.274   0.296   0.824
16549WAT      O49888   9.847   5.944   9.067
16549WAT     H149889   9.845   6.041   9.046
16549WAT     H249890   9.760   5.917   9.110
16550WAT      O49891   1.506   4.066   8.092
16550WAT     H149892   1.577   4.010   8.050
16550WAT     H249893   1.546   4.151   8.126
16551WAT      O49894   8.469   5.668   4.683
16551WAT     H149895   8.442   5.572   4.673
16551WAT     H249896   8.392   5.721   4.718
16552WAT      O49897   1.634   1.748   6.346
16552WAT     H149898   1.638   1.741   6.246
16552WAT     H249899   1.669   1.838   6.374
16553WAT      O49900   1.502   2.246   6.160
16553WAT     H149901   1.484   2.338   6.126
16553WAT     H249902   1.420   2.190   6.150
16554WAT      O49903   3.644   8.853   5.411
16554WAT     H149904   3.551   8.823   5.390
16554WAT     H249905   3.679   8.910   5.336
16555WAT      O49906   3.956   2.574   5.230
16555WAT     H149907   4.035   2.526   5.269
16555WAT     H249908   3.937   2.656   5.283
16556WAT      O49909   4.032   9.530   6.031
16556WAT     H149910   4.089   9.588   6.089
16556WAT     H249911   4.034   9.436   6.066
16557WAT      O49912   8.477   8.012   1.717
16557WAT     H149913   8.567   7.974   1.696
16557WAT     H249914   8.487   8.106   1.748
16558WAT      O49915   6.068   7.800   4.570
16558WAT     H149916   5.978   7.844   4.570
16558WAT     H249917   6.101   7.790   4.664
16559WAT      O49918   8.893   1.392   6.353
16559WAT     H149919   8.863   1.361   6.443
16559WAT     H249920   8.834   1.466   6.322
16560WAT      O49921   4.578   2.325   9.239
16560WAT     H149922   4.540   2.304   9.329
16560WAT     H249923   4.550   2.418   9.213
16561WAT      O49924   1.452   4.719   3.638
16561WAT     H149925   1.442   4.818   3.630
16561WAT     H249926   1.497   4.684   3.556
16562WAT      O49927   5.388   5.587   3.564
16562WAT     H149928   5.466   5.539   3.606
16562WAT     H249929   5.303   5.540   3.588
16563WAT      O49930   0.358   9.212   6.341
16563WAT     H149931   0.286   9.178   6.281
16563WAT     H249932   0.373   9.309   6.323
16564WAT      O49933   4.722   6.036   5.255
16564WAT     H149934   4.764   5.977   5.187
16564WAT     H249935   4.625   6.013   5.264
16565WAT      O49936   9.320   6.846   9.353
16565WAT     H149937   9.348   6.751   9.342
16565WAT     H249938   9.305   6.887   9.263
16566WAT      O49939   2.460   0.224   3.583
16566WAT     H149940   2.371   0.196   3.621
16566WAT     H249941   2.527   0.152   3.601
16567WAT      O49942   7.425   2.680   9.660
16567WAT     H149943   7.369   2.715   9.585
16567WAT     H249944   7.367   2.631   9.725
16568WAT      O49945   6.593   8.080   2.699
16568WAT     H149946   6.530   8.010   2.733
16568WAT     H249947   6.669   8.037   2.650
16569WAT      O49948   7.195   0.642   1.369
16569WAT     H149949   7.279   0.628   1.316
16569WAT     H249950   7.148   0.554   1.380
16570WAT      O49951   4.684   0.228   7.993
16570WAT     H149952   4.624   0.208   7.916
16570WAT     H249953   4.642   0.196   8.078
16571WAT      O49954   5.745   7.154   8.374
16571WAT     H149955   5.758   7.226   8.442
16571WAT     H249956   5.658   7.108   8.391
16572WAT      O49957   1.302   7.479   0.051
16572WAT     H149958   1.206   7.488   0.024
16572WAT     H249959   1.322   7.384   0.075
16573WAT      O49960   0.028   1.280   2.383
16573WAT     H149961   0.050   1.195   2.432
16573WAT     H249962   0.009   1.258   2.287
16574WAT      O49963   8.287   9.480   9.046
16574WAT     H149964   8.263   9.470   8.949
16574WAT     H249965   8.302   9.577   9.066
16575WAT      O49966   5.075   6.070   7.478
16575WAT     H149967   5.067   6.078   7.379
16575WAT     H249968   5.171   6.065   7.503
16576WAT      O49969   6.401   4.298   7.935
16576WAT     H149970   6.433   4.266   8.024
16576WAT     H249971   6.470   4.358   7.894
16577WAT      O49972   5.051   8.328   8.998
16577WAT     H149973   5.135   8.349   8.947
16577WAT     H249974   5.052   8.232   9.025
16578WAT      O49975   6.010   9.471   7.466
16578WAT     H149976   6.052   9.558   7.495
16578WAT     H249977   6.071   9.425   7.402
16579WAT      O49978   0.208   0.590   9.627
16579WAT     H149979   0.230   0.594   9.725
16579WAT     H249980   0.290   0.566   9.575
16580WAT      O49981   2.786   0.958   3.727
16580WAT     H149982   2.769   0.864   3.700
16580WAT     H249983   2.861   0.960   3.794
16581WAT      O49984   7.796   4.142   6.275
16581WAT     H149985   7.821   4.068   6.213
16581WAT     H249986   7.734   4.107   6.345
16582WAT      O49987   8.521   0.722   8.796
16582WAT     H149988   8.522   0.645   8.859
16582WAT     H249989   8.609   0.769   8.800
16583WAT      O49990   2.060   7.524   8.032
16583WAT     H149991   1.966   7.520   7.997
16583WAT     H249992   2.124   7.530   7.956
16584WAT      O49993   5.882   9.761   3.207
16584WAT     H149994   5.831   9.676   3.192
16584WAT     H249995   5.818   9.835   3.230
16585WAT      O49996   9.637   2.389   5.326
16585WAT     H149997   9.602   2.296   5.313
16585WAT     H249998   9.668   2.426   5.239
16586WAT      O49999   5.105   9.689   3.172
16586WAT     H150000   5.050   9.747   3.112
16586WAT     H250001   5.116   9.599   3.130
16587WAT      O50002   2.195   1.795   3.969
16587WAT     H150003   2.236   1.812   3.879
16587WAT     H250004   2.260   1.744   4.026
16588WAT      O50005   2.735   3.904   1.553
16588WAT     H150006   2.691   3.894   1.464
16588WAT     H250007   2.825   3.946   1.541
16589WAT      O50008   5.174   3.925   4.483
16589WAT     H150009   5.118   3.884   4.556
16589WAT     H250010   5.132   4.010   4.453
16590WAT      O50011   3.066   3.059   7.111
16590WAT     H150012   3.068   3.097   7.018
16590WAT     H250013   3.075   3.134   7.177
16591WAT      O50014   0.469   7.966   1.043
16591WAT     H150015   0.416   7.904   1.102
16591WAT     H250016   0.408   8.036   1.004
16592WAT      O50017   6.415   5.465   0.291
16592WAT     H150018   6.359   5.522   0.231
16592WAT     H250019   6.438   5.379   0.244
16593WAT      O50020   4.632   7.383   5.324
16593WAT     H150021   4.559   7.450   5.340
16593WAT     H250022   4.697   7.420   5.258
16594WAT      O50023   1.578   5.750   3.301
16594WAT     H150024   1.506   5.820   3.301
16594WAT     H250025   1.537   5.660   3.287
16595WAT      O50026   1.851   1.802   9.177
16595WAT     H150027   1.803   1.789   9.263
16595WAT     H250028   1.789   1.783   9.101
16596WAT      O50029   6.585   1.164   7.144
16596WAT     H150030   6.629   1.074   7.134
16596WAT     H250031   6.602   1.199   7.236
16597WAT      O50032   8.539   2.150   2.206
16597WAT     H150033   8.518   2.115   2.115
16597WAT     H250034   8.571   2.075   2.264
16598WAT      O50035   8.443   0.548   0.192
16598WAT     H150036   8.474   0.528   0.099
16598WAT     H250037   8.474   0.640   0.218
16599WAT      O50038   6.976   0.402   6.083
16599WAT     H150039   6.993   0.470   6.155
16599WAT     H250040   6.978   0.448   5.994
16600WAT      O50041   2.509   0.272   4.020
16600WAT     H150042   2.516   0.366   3.986
16600WAT     H250043   2.563   0.211   3.962
16601WAT      O50044   5.715   4.159   5.834
16601WAT     H150045   5.623   4.178   5.799
16601WAT     H250046   5.708   4.120   5.926
16602WAT      O50047   6.597   9.529   2.413
16602WAT     H150048   6.560   9.530   2.320
16602WAT     H250049   6.628   9.436   2.435
16603WAT      O50050   7.866   0.993   5.259
16603WAT     H150051   7.842   0.907   5.215
16603WAT     H250052   7.798   1.015   5.329
16604WAT      O50053   5.316   3.206   2.022
16604WAT     H150054   5.262   3.151   2.085
16604WAT     H250055   5.256   3.261   1.964
16605WAT      O50056   8.547   5.073   5.774
16605WAT     H150057   8.479   5.017   5.822
16605WAT     H250058   8.634   5.068   5.823
16606WAT      O50059   0.820   6.574   9.256
16606WAT     H150060   0.908   6.528   9.263
16606WAT     H250061   0.758   6.539   9.326
16607WAT      O50062   8.875   5.290   3.482
16607WAT     H150063   8.872   5.227   3.404
16607WAT     H250064   8.965   5.285   3.525
16608WAT      O50065   5.187   1.968   5.836
16608WAT     H150066   5.151   1.961   5.742
16608WAT     H250067   5.253   1.895   5.852
16609WAT      O50068   6.075   0.870   4.339
16609WAT     H150069   6.160   0.922   4.350
16609WAT     H250070   6.095   0.772   4.348
16610WAT      O50071   7.282   1.279   2.346
16610WAT     H150072   7.366   1.246   2.388
16610WAT     H250073   7.207   1.217   2.367
16611WAT      O50074   0.762   7.408   6.064
16611WAT     H150075   0.664   7.401   6.082
16611WAT     H250076   0.811   7.424   6.149
16612WAT      O50077   6.409   7.909   2.862
16612WAT     H150078   6.423   7.935   2.958
16612WAT     H250079   6.429   7.812   2.851
16613WAT      O50080   5.250   6.028   7.021
16613WAT     H150081   5.188   6.039   6.943
16613WAT     H250082   5.255   5.931   7.045
16614WAT      O50083   1.270   4.219   7.065
16614WAT     H150084   1.220   4.274   7.132
16614WAT     H250085   1.348   4.175   7.110
16615WAT      O50086   6.566   2.876   0.611
16615WAT     H150087   6.552   2.879   0.710
16615WAT     H250088   6.664   2.868   0.593
16616WAT      O50089   0.912   9.788   4.179
16616WAT     H150090   0.941   9.860   4.116
16616WAT     H250091   0.900   9.703   4.128
16617WAT      O50092   1.925   3.289   8.362
16617WAT     H150093   2.018   3.282   8.397
16617WAT     H250094   1.868   3.216   8.402
16618WAT      O50095   6.560   4.622   1.336
16618WAT     H150096   6.642   4.565   1.325
16618WAT     H250097   6.565   4.669   1.424
16619WAT      O50098   2.896   5.336   1.901
16619WAT     H150099   2.941   5.419   1.867
16619WAT     H250100   2.900   5.336   2.001
16620WAT      O50101   6.880   7.253   8.292
16620WAT     H150102   6.803   7.189   8.303
16620WAT     H250103   6.908   7.287   8.382
16621WAT      O50104   3.972   3.272   2.802
16621WAT     H150105   3.887   3.286   2.751
16621WAT     H250106   3.989   3.351   2.861
16622WAT      O50107   7.238   0.733   8.766
16622WAT     H150108   7.202   0.720   8.674
16622WAT     H250109   7.236   0.830   8.789
16623WAT      O50110   7.457   7.374   5.316
16623WAT     H150111   7.552   7.403   5.308
16623WAT     H250112   7.452   7.274   5.322
16624WAT      O50113   8.599   7.988   6.608
16624WAT     H150114   8.597   8.086   6.627
16624WAT     H250115   8.506   7.955   6.591
16625WAT      O50116   8.995   0.410   5.731
16625WAT     H150117   8.933   0.477   5.693
16625WAT     H250118   9.012   0.337   5.664
16626WAT      O50119   6.169   8.999   8.650
16626WAT     H150120   6.222   9.051   8.717
16626WAT     H250121   6.083   9.046   8.633
16627WAT      O50122   1.137   0.237   6.546
16627WAT     H150123   1.060   0.206   6.601
16627WAT     H250124   1.179   0.160   6.498
16628WAT      O50125   0.496   8.615   9.806
16628WAT     H150126   0.543   8.549   9.748
16628WAT     H250127   0.494   8.704   9.762
16629WAT      O50128   2.339   7.110   4.616
16629WAT     H150129   2.383   7.181   4.671
16629WAT     H250130   2.398   7.030   4.610
16630WAT      O50131   9.402   2.742   7.253
16630WAT     H150132   9.491   2.746   7.300
16630WAT     H250133   9.349   2.666   7.290
16631WAT      O50134   8.193   3.381   3.793
16631WAT     H150135   8.143   3.458   3.754
16631WAT     H250136   8.288   3.407   3.807
16632WAT      O50137   5.611   3.022   8.153
16632WAT     H150138   5.665   3.105   8.167
16632WAT     H250139   5.668   2.942   8.173
16633WAT      O50140   1.897   6.410   2.212
16633WAT     H150141   1.872   6.499   2.250
16633WAT     H250142   1.968   6.368   2.270
16634WAT      O50143   5.591   8.186   6.775
16634WAT     H150144   5.508   8.242   6.768
16634WAT     H250145   5.637   8.206   6.862
16635WAT      O50146   1.690   3.923   4.483
16635WAT     H150147   1.610   3.979   4.460
16635WAT     H250148   1.666   3.826   4.479
16636WAT      O50149   9.275   8.731   1.313
16636WAT     H150150   9.254   8.634   1.323
16636WAT     H250151   9.330   8.761   1.392
16637WAT      O50152   1.154   3.470   7.425
16637WAT     H150153   1.062   3.491   7.458
16637WAT     H250154   1.195   3.399   7.484
16638WAT      O50155   6.008   6.906   6.830
16638WAT     H150156   6.076   6.851   6.782
16638WAT     H250157   5.921   6.856   6.832
16639WAT      O50158   8.026   0.290   1.557
16639WAT     H150159   8.073   0.336   1.481
16639WAT     H250160   8.081   0.299   1.640
16640WAT      O50161   5.956   5.227   9.152
16640WAT     H150162   5.951   5.178   9.239
16640WAT     H250163   5.934   5.324   9.167
16641WAT      O50164   7.972   0.342   5.608
16641WAT     H150165   7.992   0.303   5.518
16641WAT     H250166   8.057   0.375   5.650
16642WAT      O50167   6.654   4.699   0.657
16642WAT     H150168   6.644   4.789   0.701
16642WAT     H250169   6.572   4.645   0.674
16643WAT      O50170   6.760   9.660   0.924
16643WAT     H150171   6.699   9.581   0.928
16643WAT     H250172   6.766   9.692   0.830
16644WAT      O50173   2.810   4.355   2.866
16644WAT     H150174   2.904   4.333   2.892
16644WAT     H250175   2.810   4.407   2.781
16645WAT      O50176   4.079   8.485   9.041
16645WAT     H150177   4.154   8.437   8.995
16645WAT     H250178   4.025   8.535   8.973
16646WAT      O50179   3.655   2.240   4.337
16646WAT     H150180   3.590   2.188   4.392
16646WAT     H250181   3.739   2.254   4.389
16647WAT      O50182   0.122   6.397   3.938
16647WAT     H150183   0.134   6.496   3.927
16647WAT     H250184   0.027   6.373   3.916
16648WAT      O50185   8.432   5.817   9.882
16648WAT     H150186   8.415   5.721   9.862
16648WAT     H250187   8.382   5.845   9.964
16649WAT      O50188   9.032   6.798   2.227
16649WAT     H150189   9.104   6.729   2.221
16649WAT     H250190   9.030   6.852   2.143
16650WAT      O50191   3.237   7.846   2.045
16650WAT     H150192   3.320   7.822   2.095
16650WAT     H250193   3.181   7.908   2.100
16651WAT      O50194   3.557   3.839   7.274
16651WAT     H150195   3.545   3.787   7.190
16651WAT     H250196   3.625   3.911   7.259
16652WAT      O50197   9.501   0.299   3.585
16652WAT     H150198   9.598   0.320   3.573
16652WAT     H250199   9.471   0.328   3.676
16653WAT      O50200   9.625   0.957   9.530
16653WAT     H150201   9.635   1.044   9.482
16653WAT     H250202   9.713   0.909   9.531
16654WAT      O50203   9.827   2.107   6.878
16654WAT     H150204   9.809   2.187   6.822
16654WAT     H250205   9.925   2.098   6.893
16655WAT      O50206   0.212   5.262   3.033
16655WAT     H150207   0.167   5.291   3.118
16655WAT     H250208   0.260   5.176   3.049
16656WAT      O50209   0.855   4.069   4.034
16656WAT     H150210   0.778   4.089   4.094
16656WAT     H250211   0.846   4.122   3.949
16657WAT      O50212   9.652   6.912   7.911
16657WAT     H150213   9.680   6.895   7.816
16657WAT     H250214   9.698   6.995   7.945
16658WAT      O50215   4.582   9.275   2.819
16658WAT     H150216   4.552   9.248   2.728
16658WAT     H250217   4.503   9.280   2.880
16659WAT      O50218   6.204   9.628   3.615
16659WAT     H150219   6.266   9.706   3.620
16659WAT     H250220   6.255   9.546   3.589
16660WAT      O50221   2.919   6.056   4.984
16660WAT     H150222   2.975   5.975   4.962
16660WAT     H250223   2.826   6.042   4.951
16661WAT      O50224   6.809   3.324   7.257
16661WAT     H150225   6.878   3.389   7.227
16661WAT     H250226   6.853   3.239   7.286
16662WAT      O50227   2.782   2.294   7.796
16662WAT     H150228   2.797   2.275   7.698
16662WAT     H250229   2.796   2.209   7.848
16663WAT      O50230   4.752   3.816   8.483
16663WAT     H150231   4.808   3.855   8.410
16663WAT     H250232   4.660   3.855   8.479
16664WAT      O50233   7.042   0.257   1.701
16664WAT     H150234   7.041   0.163   1.734
16664WAT     H250235   7.137   0.288   1.694
16665WAT      O50236   4.326   3.876   8.118
16665WAT     H150237   4.383   3.805   8.160
16665WAT     H250238   4.335   3.871   8.019
16666WAT      O50239   0.050   6.604   7.540
16666WAT     H150240   0.050   6.528   7.475
16666WAT     H250241   0.139   6.649   7.539
16667WAT      O50242   5.061   6.944   5.913
16667WAT     H150243   5.057   6.848   5.941
16667WAT     H250244   5.074   7.002   5.994
16668WAT      O50245   7.753   0.064   4.882
16668WAT     H150246   7.702  -0.005   4.935
16668WAT     H250247   7.738   0.048   4.784
16669WAT      O50248   7.805   5.564   6.237
16669WAT     H150249   7.856   5.496   6.185
16669WAT     H250250   7.864   5.605   6.306
16670WAT      O50251   3.800   5.774   5.860
16670WAT     H150252   3.722   5.766   5.798
16670WAT     H250253   3.850   5.688   5.861
16671WAT      O50254   4.046   7.009   2.992
16671WAT     H150255   4.035   6.982   2.896
16671WAT     H250256   3.966   6.979   3.044
16672WAT      O50257   6.506   8.420   3.801
16672WAT     H150258   6.508   8.420   3.701
16672WAT     H250259   6.517   8.326   3.835
16673WAT      O50260   1.620   9.757   2.009
16673WAT     H150261   1.640   9.673   2.059
16673WAT     H250262   1.521   9.769   2.002
16674WAT      O50263   8.504   4.029   6.629
16674WAT     H150264   8.583   4.012   6.570
16674WAT     H250265   8.499   3.957   6.699
16675WAT      O50266   2.654   5.365   2.008
16675WAT     H150267   2.732   5.395   1.952
16675WAT     H250268   2.688   5.316   2.088
16676WAT      O50269   2.460   8.885   9.173
16676WAT     H150270   2.529   8.953   9.151
16676WAT     H250271   2.468   8.808   9.110
16677WAT      O50272   4.410   5.217   1.434
16677WAT     H150273   4.372   5.261   1.516
16677WAT     H250274   4.480   5.277   1.393
16678WAT      O50275   9.753   6.516   7.087
16678WAT     H150276   9.712   6.570   7.014
16678WAT     H250277   9.689   6.445   7.116
16679WAT      O50278   5.267   2.789   8.790
16679WAT     H150279   5.240   2.861   8.854
16679WAT     H250280   5.255   2.700   8.834
16680WAT      O50281   2.995   7.458   6.643
16680WAT     H150282   2.918   7.466   6.705
16680WAT     H250283   3.077   7.496   6.687
16681WAT      O50284   4.444   2.475   4.986
16681WAT     H150285   4.441   2.478   4.886
16681WAT     H250286   4.397   2.555   5.023
16682WAT      O50287   6.060   7.201   3.789
16682WAT     H150288   6.090   7.295   3.806
16682WAT     H250289   6.084   7.174   3.695
16683WAT      O50290   2.883   7.520   1.811
16683WAT     H150291   2.865   7.429   1.850
16683WAT     H250292   2.975   7.549   1.837
16684WAT      O50293   6.988   7.637   0.883
16684WAT     H150294   7.024   7.573   0.952
16684WAT     H250295   7.034   7.621   0.796
16685WAT      O50296   3.483   8.486   7.819
16685WAT     H150297   3.408   8.498   7.884
16685WAT     H250298   3.506   8.574   7.778
16686WAT      O50299   7.987   5.295   9.786
16686WAT     H150300   8.051   5.275   9.712
16686WAT     H250301   7.895   5.267   9.758
16687WAT      O50302   5.153   0.242   2.536
16687WAT     H150303   5.064   0.216   2.499
16687WAT     H250304   5.225   0.201   2.480
16688WAT      O50305   4.683   6.470   4.663
16688WAT     H150306   4.658   6.566   4.659
16688WAT     H250307   4.601   6.413   4.658
16689WAT      O50308   6.296   2.559   4.966
16689WAT     H150309   6.310   2.642   5.019
16689WAT     H250310   6.356   2.559   4.886
16690WAT      O50311   2.312   4.083   8.252
16690WAT     H150312   2.267   4.000   8.219
16690WAT     H250313   2.307   4.087   8.352
16691WAT      O50314   4.996   2.980   1.119
16691WAT     H150315   5.038   3.004   1.032
16691WAT     H250316   4.918   3.041   1.136
16692WAT      O50317   8.134   6.165   3.663
16692WAT     H150318   8.174   6.226   3.595
16692WAT     H250319   8.195   6.157   3.742
16693WAT      O50320   9.734   0.348   8.971
16693WAT     H150321   9.691   0.437   8.986
16693WAT     H250322   9.833   0.361   8.961
16694WAT      O50323   5.462   2.522   5.044
16694WAT     H150324   5.411   2.450   5.092
16694WAT     H250325   5.413   2.608   5.051
16695WAT      O50326   8.153   3.963   2.255
16695WAT     H150327   8.235   3.921   2.293
16695WAT     H250328   8.169   3.991   2.161
16696WAT      O50329   0.292   2.315   2.740
16696WAT     H150330   0.323   2.305   2.834
16696WAT     H250331   0.241   2.400   2.729
16697WAT      O50332   5.509   4.096   7.436
16697WAT     H150333   5.488   4.187   7.401
16697WAT     H250334   5.443   4.070   7.506
16698WAT      O50335   6.613   9.728   9.258
16698WAT     H150336   6.607   9.820   9.297
16698WAT     H250337   6.649   9.665   9.327
16699WAT      O50338   4.825  -0.001   4.146
16699WAT     H150339   4.881   0.078   4.171
16699WAT     H250340   4.778   0.017   4.059
16700WAT      O50341   0.027   1.644   5.314
16700WAT     H150342  -0.053   1.586   5.297
16700WAT     H250343   0.109   1.596   5.282
16701WAT      O50344   7.034   6.448   7.628
16701WAT     H150345   7.043   6.463   7.530
16701WAT     H250346   7.116   6.400   7.662
16702WAT      O50347   7.005   2.548   7.960
16702WAT     H150348   7.027   2.625   8.021
16702WAT     H250349   7.087   2.520   7.912
16703WAT      O50350   6.349   6.728   8.193
16703WAT     H150351   6.399   6.675   8.125
16703WAT     H250352   6.407   6.743   8.273
16704WAT      O50353   6.867   8.307   1.345
16704WAT     H150354   6.889   8.397   1.307
16704WAT     H250355   6.789   8.268   1.297
16705WAT      O50356   0.271   0.707   0.607
16705WAT     H150357   0.262   0.643   0.531
16705WAT     H250358   0.288   0.657   0.691
16706WAT      O50359   2.269   5.495   6.973
16706WAT     H150360   2.183   5.540   6.947
16706WAT     H250361   2.302   5.534   7.059
16707WAT      O50362   2.617   1.567   1.229
16707WAT     H150363   2.686   1.639   1.234
16707WAT     H250364   2.578   1.565   1.137
16708WAT      O50365   0.764   2.381   5.409
16708WAT     H150366   0.706   2.453   5.372
16708WAT     H250367   0.777   2.310   5.340
16709WAT      O50368   0.183   5.178   1.315
16709WAT     H150369   0.150   5.272   1.315
16709WAT     H250370   0.106   5.115   1.320
16710WAT      O50371   7.397   9.344   7.094
16710WAT     H150372   7.487   9.345   7.052
16710WAT     H250373   7.331   9.391   7.035
16711WAT      O50374   7.654   1.041   6.533
16711WAT     H150375   7.729   0.981   6.505
16711WAT     H250376   7.622   1.094   6.454
16712WAT      O50377   8.707   1.289   4.279
16712WAT     H150378   8.787   1.347   4.294
16712WAT     H250379   8.627   1.346   4.263
16713WAT      O50380   1.927   9.382   5.714
16713WAT     H150381   1.919   9.438   5.796
16713WAT     H250382   1.839   9.341   5.693
16714WAT      O50383   6.082   7.002   7.517
16714WAT     H150384   6.034   7.025   7.432
16714WAT     H250385   6.136   6.919   7.503
16715WAT      O50386   5.473   5.142   0.612
16715WAT     H150387   5.471   5.056   0.665
16715WAT     H250388   5.476   5.121   0.515
16716WAT      O50389   7.061   7.125   1.712
16716WAT     H150390   7.119   7.140   1.792
16716WAT     H250391   6.965   7.137   1.736
16717WAT      O50392   4.206   1.627   4.321
16717WAT     H150393   4.136   1.649   4.253
16717WAT     H250394   4.248   1.539   4.299
16718WAT      O50395   2.681   7.585   0.281
16718WAT     H150396   2.605   7.524   0.260
16718WAT     H250397   2.703   7.639   0.200
16719WAT      O50398   8.106   2.526   7.482
16719WAT     H150399   8.140   2.449   7.536
16719WAT     H250400   8.181   2.563   7.427
16720WAT      O50401   1.644   3.338   2.021
16720WAT     H150402   1.734   3.321   1.983
16720WAT     H250403   1.653   3.382   2.110
16721WAT      O50404   9.736   8.047   8.109
16721WAT     H150405   9.722   8.059   8.010
16721WAT     H250406   9.691   7.963   8.139
16722WAT      O50407   2.964   9.755   8.286
16722WAT     H150408   3.002   9.835   8.332
16722WAT     H250409   2.925   9.783   8.198
16723WAT      O50410   0.591   8.296   1.234
16723WAT     H150411   0.511   8.325   1.182
16723WAT     H250412   0.588   8.335   1.326
16724WAT      O50413   3.745   8.246   1.261
16724WAT     H150414   3.828   8.211   1.305
16724WAT     H250415   3.665   8.203   1.303
16725WAT      O50416   7.237   3.632   8.951
16725WAT     H150417   7.228   3.702   9.021
16725WAT     H250418   7.304   3.661   8.883
16726WAT      O50419   9.876   5.732   9.526
16726WAT     H150420   9.962   5.781   9.543
16726WAT     H250421   9.819   5.735   9.607
16727WAT      O50422   6.782   9.641   8.587
16727WAT     H150423   6.848   9.567   8.573
16727WAT     H250424   6.793   9.679   8.679
16728WAT      O50425   5.659   8.427   0.629
16728WAT     H150426   5.751   8.467   0.626
16728WAT     H250427   5.591   8.496   0.607
16729WAT      O50428   3.371   5.036   3.995
16729WAT     H150429   3.290   5.092   3.977
16729WAT     H250430   3.452   5.081   3.957
16730WAT      O50431   0.626   6.582   3.291
16730WAT     H150432   0.640   6.516   3.365
16730WAT     H250433   0.574   6.660   3.327
16731WAT      O50434   9.269   1.239   1.466
16731WAT     H150435   9.197   1.305   1.489
16731WAT     H250436   9.312   1.266   1.380
16732WAT      O50437   7.346   5.553   8.010
16732WAT     H150438   7.327   5.473   8.066
16732WAT     H250439   7.373   5.630   8.068
16733WAT      O50440   3.337   7.475   2.652
16733WAT     H150441   3.378   7.385   2.642
16733WAT     H250442   3.267   7.488   2.583
16734WAT      O50443   3.339   9.719   0.738
16734WAT     H150444   3.280   9.637   0.744
16734WAT     H250445   3.287   9.799   0.768
16735WAT      O50446   2.953   1.231   0.485
16735WAT     H150447   2.903   1.238   0.571
16735WAT     H250448   3.007   1.147   0.483
16736WAT      O50449   0.372   0.053   8.380
16736WAT     H150450   0.330  -0.006   8.449
16736WAT     H250451   0.400  -0.001   8.301
16737WAT      O50452   8.733   3.416   6.632
16737WAT     H150453   8.738   3.510   6.668
16737WAT     H250454   8.824   3.375   6.633
16738WAT      O50455   2.640   2.617   1.831
16738WAT     H150456   2.604   2.532   1.791
16738WAT     H250457   2.740   2.618   1.821
16739WAT      O50458   0.432   4.223   1.256
16739WAT     H150459   0.383   4.268   1.181
16739WAT     H250460   0.366   4.188   1.323
16740WAT      O50461   3.426   1.819   4.515
16740WAT     H150462   3.354   1.889   4.510
16740WAT     H250463   3.470   1.825   4.605
16741WAT      O50464   4.344   0.616   5.906
16741WAT     H150465   4.261   0.573   5.943
16741WAT     H250466   4.405   0.545   5.871
16742WAT      O50467   5.888   6.446   4.411
16742WAT     H150468   5.983   6.467   4.389
16742WAT     H250469   5.877   6.442   4.510
16743WAT      O50470   3.745   2.784   1.466
16743WAT     H150471   3.805   2.778   1.386
16743WAT     H250472   3.691   2.700   1.472
16744WAT      O50473   8.084   3.625   7.805
16744WAT     H150474   8.047   3.542   7.848
16744WAT     H250475   8.047   3.633   7.713
16745WAT      O50476   6.015   7.908   2.513
16745WAT     H150477   5.992   7.811   2.507
16745WAT     H250478   5.937   7.962   2.482
16746WAT      O50479   1.485   2.293   8.491
16746WAT     H150480   1.572   2.257   8.456
16746WAT     H250481   1.442   2.224   8.549
16747WAT      O50482   7.729   0.758   1.812
16747WAT     H150483   7.776   0.844   1.793
16747WAT     H250484   7.796   0.685   1.824
16748WAT      O50485   6.974   9.541   3.945
16748WAT     H150486   6.937   9.454   3.912
16748WAT     H250487   6.968   9.545   4.044
16749WAT      O50488   9.537   8.947   0.548
16749WAT     H150489   9.526   8.890   0.630
16749WAT     H250490   9.459   8.932   0.487
16750WAT      O50491   1.189   7.893   8.979
16750WAT     H150492   1.157   7.804   8.949
16750WAT     H250493   1.135   7.923   9.058
16751WAT      O50494   6.508   3.804   9.397
16751WAT     H150495   6.586   3.807   9.334
16751WAT     H250496   6.521   3.869   9.471
16752WAT      O50497   1.465   0.107   8.021
16752WAT     H150498   1.488   0.094   7.924
16752WAT     H250499   1.502   0.194   8.053
16753WAT      O50500   5.194   3.421   7.501
16753WAT     H150501   5.200   3.504   7.556
16753WAT     H250502   5.261   3.426   7.426
16754WAT      O50503   4.935   0.267   4.249
16754WAT     H150504   4.984   0.292   4.332
16754WAT     H250505   4.942   0.342   4.183
16755WAT      O50506   8.124   8.910   9.027
16755WAT     H150507   8.109   8.816   8.997
16755WAT     H250508   8.035   8.956   9.036
16756WAT      O50509   3.331   5.447   1.488
16756WAT     H150510   3.299   5.443   1.583
16756WAT     H250511   3.429   5.430   1.485
16757WAT      O50512   7.888   2.367   5.364
16757WAT     H150513   7.937   2.410   5.439
16757WAT     H250514   7.952   2.341   5.292
16758WAT      O50515   6.506   5.919   3.453
16758WAT     H150516   6.420   5.869   3.452
16758WAT     H250517   6.496   6.004   3.400
16759WAT      O50518   1.108   7.303   6.711
16759WAT     H150519   1.143   7.262   6.795
16759WAT     H250520   1.178   7.299   6.641
16760WAT      O50521   0.144   2.746   3.069
16760WAT     H150522   0.200   2.733   3.151
16760WAT     H250523   0.177   2.687   2.995
16761WAT      O50524   7.835   4.238   7.728
16761WAT     H150525   7.749   4.224   7.680
16761WAT     H250526   7.888   4.153   7.728
16762WAT      O50527   5.021   2.920   6.169
16762WAT     H150528   4.923   2.911   6.150
16762WAT     H250529   5.035   2.978   6.249
16763WAT      O50530   9.690   7.440   4.920
16763WAT     H150531   9.640   7.398   4.995
16763WAT     H250532   9.696   7.539   4.935
16764WAT      O50533   0.037   3.834   1.327
16764WAT     H150534   0.062   3.916   1.276
16764WAT     H250535   0.117   3.799   1.375
16765WAT      O50536   2.122   7.393   6.656
16765WAT     H150537   2.085   7.486   6.657
16765WAT     H250538   2.103   7.351   6.568
16766WAT      O50539   0.019   7.891   5.085
16766WAT     H150540   0.000   7.984   5.054
16766WAT     H250541   0.102   7.857   5.040
16767WAT      O50542   1.025   1.320   7.066
16767WAT     H150543   1.059   1.409   7.035
16767WAT     H250544   0.928   1.327   7.088
16768WAT      O50545   3.458   1.716   3.009
16768WAT     H150546   3.441   1.662   3.091
16768WAT     H250547   3.553   1.748   3.009
16769WAT      O50548   6.187   8.602   5.948
16769WAT     H150549   6.237   8.672   5.897
16769WAT     H250550   6.117   8.645   6.005
16770WAT      O50551   0.344   7.329   5.571
16770WAT     H150552   0.360   7.397   5.499
16770WAT     H250553   0.411   7.342   5.644
16771WAT      O50554   8.549   8.716   7.509
16771WAT     H150555   8.564   8.814   7.515
16771WAT     H250556   8.611   8.668   7.570
16772WAT      O50557   2.090   2.537   3.427
16772WAT     H150558   2.121   2.526   3.521
16772WAT     H250559   2.168   2.531   3.365
16773WAT      O50560   4.634   9.374   1.557
16773WAT     H150561   4.648   9.324   1.642
16773WAT     H250562   4.536   9.380   1.537
16774WAT      O50563   6.712   1.319   8.278
16774WAT     H150564   6.810   1.333   8.293
16774WAT     H250565   6.691   1.335   8.181
16775WAT      O50566   0.203   0.589   3.012
16775WAT     H150567   0.160   0.594   3.102
16775WAT     H250568   0.289   0.538   3.018
16776WAT      O50569   1.864   9.231   9.097
16776WAT     H150570   1.917   9.173   9.159
16776WAT     H250571   1.781   9.183   9.068
16777WAT      O50572   3.149   8.746   7.533
16777WAT     H150573   3.223   8.681   7.516
16777WAT     H250574   3.182   8.817   7.596
16778WAT      O50575   6.572   9.749   3.356
16778WAT     H150576   6.570   9.737   3.257
16778WAT     H250577   6.666   9.740   3.389
16779WAT      O50578   6.958   4.660   7.415
16779WAT     H150579   7.036   4.698   7.364
16779WAT     H250580   6.908   4.596   7.357
16780WAT      O50581   7.004   1.861   2.957
16780WAT     H150582   6.904   1.852   2.952
16780WAT     H250583   7.035   1.830   3.047
16781WAT      O50584   2.463   6.760   1.688
16781WAT     H150585   2.450   6.856   1.715
16781WAT     H250586   2.441   6.701   1.766
16782WAT      O50587   1.035   3.672   3.909
16782WAT     H150588   1.063   3.591   3.962
16782WAT     H250589   1.106   3.694   3.842
16783WAT      O50590   2.496   4.754   6.189
16783WAT     H150591   2.398   4.770   6.190
16783WAT     H250592   2.522   4.710   6.103
16784WAT      O50593   0.025   4.187   0.659
16784WAT     H150594   0.053   4.099   0.697
16784WAT     H250595  -0.004   4.248   0.732
16785WAT      O50596   1.122   3.865   6.433
16785WAT     H150597   1.060   3.931   6.476
16785WAT     H250598   1.216   3.897   6.442
16786WAT      O50599   7.323   5.441   5.934
16786WAT     H150600   7.389   5.507   5.971
16786WAT     H250601   7.265   5.486   5.866
16787WAT      O50602   6.521   1.433   6.181
16787WAT     H150603   6.479   1.346   6.158
16787WAT     H250604   6.614   1.437   6.144
16788WAT      O50605   0.688   8.359   6.436
16788WAT     H150606   0.709   8.312   6.350
16788WAT     H250607   0.766   8.415   6.463
16789WAT      O50608   0.495   9.776   6.254
16789WAT     H150609   0.397   9.789   6.265
16789WAT     H250610   0.517   9.765   6.157
16790WAT      O50611   7.862   5.411   0.363
16790WAT     H150612   7.843   5.398   0.461
16790WAT     H250613   7.776   5.410   0.312
16791WAT      O50614   6.072   4.007   0.790
16791WAT     H150615   6.005   3.936   0.812
16791WAT     H250616   6.162   3.966   0.776
16792WAT      O50617   4.752   7.779   8.579
16792WAT     H150618   4.664   7.823   8.561
16792WAT     H250619   4.825   7.846   8.571
16793WAT      O50620   2.705   9.590   7.843
16793WAT     H150621   2.688   9.626   7.935
16793WAT     H250622   2.648   9.509   7.828
16794WAT      O50623   2.763   1.588   5.632
16794WAT     H150624   2.713   1.665   5.673
16794WAT     H250625   2.717   1.503   5.655
16795WAT      O50626   5.702   4.806   6.571
16795WAT     H150627   5.779   4.817   6.634
16795WAT     H250628   5.660   4.895   6.554
16796WAT      O50629   0.046   4.297   2.413
16796WAT     H150630  -0.051   4.274   2.421
16796WAT     H250631   0.067   4.321   2.318
16797WAT      O50632   8.896   2.616   8.972
16797WAT     H150633   8.899   2.668   8.886
16797WAT     H250634   8.965   2.651   9.035
16798WAT      O50635   9.046   3.855   8.512
16798WAT     H150636   9.044   3.921   8.587
16798WAT     H250637   8.998   3.772   8.540
16799WAT      O50638   5.014   0.695   2.215
16799WAT     H150639   4.990   0.614   2.161
16799WAT     H250640   5.111   0.693   2.236
16800WAT      O50641   4.926   8.111   9.797
16800WAT     H150642   4.880   8.125   9.885
16800WAT     H250643   4.882   8.168   9.727
16801WAT      O50644   0.848   7.982   5.908
16801WAT     H150645   0.788   8.018   5.836
16801WAT     H250646   0.933   8.035   5.910
16802WAT      O50647   6.293   3.610   6.982
16802WAT     H150648   6.263   3.699   7.015
16802WAT     H250649   6.356   3.569   7.048
16803WAT      O50650   4.764   2.925   3.364
16803WAT     H150651   4.694   2.941   3.294
16803WAT     H250652   4.848   2.892   3.320
16804WAT      O50653   8.379   2.394   6.103
16804WAT     H150654   8.342   2.361   6.016
16804WAT     H250655   8.479   2.402   6.095
16805WAT      O50656   4.916   7.122   8.761
16805WAT     H150657   4.970   7.143   8.680
16805WAT     H250658   4.843   7.189   8.771
16806WAT      O50659   4.818   1.453   5.360
16806WAT     H150660   4.902   1.433   5.410
16806WAT     H250661   4.774   1.533   5.399
16807WAT      O50662   7.780   3.243   6.397
16807WAT     H150663   7.794   3.313   6.467
16807WAT     H250664   7.689   3.254   6.356
16808WAT      O50665   3.110   3.559   7.837
16808WAT     H150666   3.164   3.632   7.880
16808WAT     H250667   3.117   3.476   7.891
16809WAT      O50668   4.199   1.307   0.544
16809WAT     H150669   4.234   1.214   0.536
16809WAT     H250670   4.230   1.347   0.630
16810WAT      O50671   7.141   2.325   2.842
16810WAT     H150672   7.205   2.279   2.779
16810WAT     H250673   7.088   2.256   2.891
16811WAT      O50674   2.039   7.765   7.376
16811WAT     H150675   1.952   7.768   7.325
16811WAT     H250676   2.086   7.679   7.357
16812WAT      O50677   9.137   8.221   7.672
16812WAT     H150678   9.094   8.140   7.634
16812WAT     H250679   9.070   8.295   7.678
16813WAT      O50680   2.492   0.903   7.365
16813WAT     H150681   2.578   0.892   7.415
16813WAT     H250682   2.435   0.822   7.379
16814WAT      O50683   0.962   6.554   7.318
16814WAT     H150684   0.888   6.488   7.306
16814WAT     H250685   1.017   6.558   7.235
16815WAT      O50686   5.722   0.799   6.673
16815WAT     H150687   5.743   0.770   6.580
16815WAT     H250688   5.790   0.866   6.703
16816WAT      O50689   6.563   3.289   4.513
16816WAT     H150690   6.605   3.275   4.423
16816WAT     H250691   6.469   3.254   4.512
16817WAT      O50692   9.173   2.196   7.951
16817WAT     H150693   9.101   2.127   7.950
16817WAT     H250694   9.133   2.286   7.941
16818WAT      O50695   9.076   7.993   8.038
16818WAT     H150696   9.006   7.984   7.968
16818WAT     H250697   9.166   8.003   7.994
16819WAT      O50698   0.086   7.494   4.877
16819WAT     H150699   0.005   7.469   4.929
16819WAT     H250700   0.060   7.546   4.796
16820WAT      O50701   4.996   9.829   7.207
16820WAT     H150702   4.911   9.862   7.166
16820WAT     H250703   5.016   9.883   7.289
16821WAT      O50704   6.852   3.740   8.136
16821WAT     H150705   6.927   3.676   8.122
16821WAT     H250706   6.771   3.707   8.087
16822WAT      O50707   1.980   8.783   9.635
16822WAT     H150708   1.916   8.706   9.635
16822WAT     H250709   2.066   8.754   9.593
16823WAT      O50710   3.672   5.866   7.134
16823WAT     H150711   3.677   5.926   7.214
16823WAT     H250712   3.761   5.820   7.122
16824WAT      O50713   4.872   2.993   6.701
16824WAT     H150714   4.939   2.975   6.773
16824WAT     H250715   4.834   3.085   6.712
16825WAT      O50716   0.661   6.411   4.898
16825WAT     H150717   0.608   6.331   4.868
16825WAT     H250718   0.725   6.437   4.825
16826WAT      O50719   7.026   6.659   0.309
16826WAT     H150720   7.104   6.598   0.299
16826WAT     H250721   6.952   6.612   0.357
16827WAT      O50722   1.941   6.220   8.462
16827WAT     H150723   1.927   6.121   8.457
16827WAT     H250724   2.017   6.241   8.524
16828WAT      O50725   8.595   9.823   9.641
16828WAT     H150726   8.534   9.793   9.715
16828WAT     H250727   8.553   9.900   9.592
16829WAT      O50728   8.224   7.996   4.891
16829WAT     H150729   8.170   8.046   4.822
16829WAT     H250730   8.255   8.060   4.961
16830WAT      O50731   7.454   2.510   3.237
16830WAT     H150732   7.482   2.492   3.332
16830WAT     H250733   7.473   2.606   3.215
16831WAT      O50734   1.972   3.898   1.058
16831WAT     H150735   1.978   3.897   0.958
16831WAT     H250736   1.898   3.837   1.087
16832WAT      O50737   0.860   5.930   0.079
16832WAT     H150738   0.851   6.023   0.115
16832WAT     H250739   0.815   5.866   0.141
16833WAT      O50740   8.064   6.422   5.381
16833WAT     H150741   8.048   6.361   5.458
16833WAT     H250742   8.133   6.382   5.321
16834WAT      O50743   8.004   9.197   2.354
16834WAT     H150744   7.996   9.264   2.428
16834WAT     H250745   8.083   9.220   2.297
16835WAT      O50746   4.999   2.917   2.514
16835WAT     H150747   4.908   2.889   2.545
16835WAT     H250748   4.990   2.977   2.435
16836WAT      O50749   4.285   8.940   8.051
16836WAT     H150750   4.264   8.842   8.059
16836WAT     H250751   4.208   8.987   8.009
16837WAT      O50752   1.112   5.830   2.095
16837WAT     H150753   1.015   5.852   2.103
16837WAT     H250754   1.141   5.776   2.175
16838WAT      O50755   0.282   3.746   6.238
16838WAT     H150756   0.330   3.667   6.276
16838WAT     H250757   0.282   3.741   6.138
16839WAT      O50758   5.551   8.924   9.370
16839WAT     H150759   5.487   8.907   9.446
16839WAT     H250760   5.512   8.886   9.286
16840WAT      O50761   2.494   2.982   5.954
16840WAT     H150762   2.446   2.896   5.969
16840WAT     H250763   2.490   3.038   6.037
16841WAT      O50764   8.781   4.641   0.050
16841WAT     H150765   8.698   4.685   0.016
16841WAT     H250766   8.759   4.583   0.127
16842WAT      O50767   2.599   1.580   3.312
16842WAT     H150768   2.630   1.673   3.291
16842WAT     H250769   2.515   1.584   3.366
16843WAT      O50770   2.752   3.392   3.270
16843WAT     H150771   2.731   3.459   3.198
16843WAT     H250772   2.850   3.397   3.291
16844WAT      O50773   6.751   7.207   2.150
16844WAT     H150774   6.775   7.293   2.196
16844WAT     H250775   6.830   7.146   2.151
16845WAT      O50776   7.336   4.917   9.723
16845WAT     H150777   7.424   4.893   9.763
16845WAT     H250778   7.346   4.999   9.666
16846WAT      O50779   3.715   3.296   6.549
16846WAT     H150780   3.683   3.202   6.541
16846WAT     H250781   3.640   3.359   6.528
16847WAT      O50782   9.526   5.938   7.351
16847WAT     H150783   9.467   5.882   7.409
16847WAT     H250784   9.616   5.947   7.393
16848WAT      O50785   5.573   6.961   5.347
16848WAT     H150786   5.501   7.028   5.328
16848WAT     H250787   5.662   7.006   5.343
16849WAT      O50788   7.054   3.314   7.855
16849WAT     H150789   6.965   3.359   7.865
16849WAT     H250790   7.070   3.292   7.759
16850WAT      O50791   0.338   6.228   2.796
16850WAT     H150792   0.352   6.271   2.707
16850WAT     H250793   0.243   6.244   2.825
16851WAT      O50794   4.969   5.282   3.947
16851WAT     H150795   4.938   5.366   3.990
16851WAT     H250796   4.894   5.242   3.894
16852WAT      O50797   6.695   3.117   6.618
16852WAT     H150798   6.716   3.208   6.653
16852WAT     H250799   6.737   3.049   6.678
16853WAT      O50800   8.651   8.591   5.889
16853WAT     H150801   8.629   8.626   5.980
16853WAT     H250802   8.730   8.531   5.896
16854WAT      O50803   1.725   2.389   1.112
16854WAT     H150804   1.668   2.462   1.074
16854WAT     H250805   1.778   2.426   1.188
16855WAT      O50806   6.461   4.759   3.513
16855WAT     H150807   6.463   4.858   3.516
16855WAT     H250808   6.550   4.724   3.482
16856WAT      O50809   9.399   9.461   5.959
16856WAT     H150810   9.379   9.559   5.968
16856WAT     H250811   9.490   9.449   5.920
16857WAT      O50812   2.451   1.434   4.648
16857WAT     H150813   2.532   1.395   4.605
16857WAT     H250814   2.404   1.494   4.583
16858WAT      O50815   2.040   7.421   4.406
16858WAT     H150816   1.945   7.423   4.372
16858WAT     H250817   2.042   7.455   4.500
16859WAT      O50818   3.511   8.391   9.639
16859WAT     H150819   3.420   8.419   9.607
16859WAT     H250820   3.503   8.307   9.693
16860WAT      O50821   5.575   6.421   4.153
16860WAT     H150822   5.498   6.464   4.106
16860WAT     H250823   5.628   6.367   4.087
16861WAT      O50824   5.460   0.610   0.949
16861WAT     H150825   5.559   0.592   0.952
16861WAT     H250826   5.422   0.571   0.865
16862WAT      O50827   4.913   7.051   0.391
16862WAT     H150828   4.854   6.978   0.425
16862WAT     H250829   4.892   7.069   0.295
16863WAT      O50830   0.124   7.098   6.407
16863WAT     H150831   0.181   7.093   6.489
16863WAT     H250832   0.173   7.059   6.330
16864WAT      O50833   2.602   7.280   0.596
16864WAT     H150834   2.540   7.311   0.668
16864WAT     H250835   2.654   7.358   0.562
16865WAT      O50836   9.131   0.855   8.117
16865WAT     H150837   9.137   0.843   8.018
16865WAT     H250838   9.173   0.943   8.142
16866WAT      O50839   3.269   9.091   7.393
16866WAT     H150840   3.213   9.150   7.334
16866WAT     H250841   3.211   9.052   7.465
16867WAT      O50842   8.437   5.711   7.866
16867WAT     H150843   8.356   5.669   7.906
16867WAT     H250844   8.425   5.811   7.863
16868WAT      O50845   4.500   6.406   7.745
16868WAT     H150846   4.520   6.364   7.834
16868WAT     H250847   4.462   6.337   7.684
16869WAT      O50848   0.959   8.660   2.732
16869WAT     H150849   1.012   8.634   2.812
16869WAT     H250850   0.985   8.752   2.702
16870WAT      O50851   4.991   1.001   1.239
16870WAT     H150852   5.066   1.034   1.296
16870WAT     H250853   5.010   0.909   1.208
16871WAT      O50854   2.519   2.090   8.524
16871WAT     H150855   2.469   2.008   8.495
16871WAT     H250856   2.556   2.077   8.615
16872WAT      O50857   4.103   7.218   6.547
16872WAT     H150858   4.162   7.139   6.562
16872WAT     H250859   4.085   7.229   6.450
16873WAT      O50860   1.482   3.421   0.175
16873WAT     H150861   1.418   3.463   0.239
16873WAT     H250862   1.480   3.470   0.088
16874WAT      O50863   8.248   1.841   8.069
16874WAT     H150864   8.188   1.808   7.997
16874WAT     H250865   8.262   1.768   8.137
16875WAT      O50866   4.053   7.033   6.970
16875WAT     H150867   3.987   6.984   6.913
16875WAT     H250868   4.144   6.995   6.957
16876WAT      O50869   3.315   3.753   5.518
16876WAT     H150870   3.260   3.782   5.596
16876WAT     H250871   3.298   3.814   5.440
16877WAT      O50872   3.388   6.103   8.788
16877WAT     H150873   3.387   6.135   8.693
16877WAT     H250874   3.310   6.142   8.837
16878WAT      O50875   7.044   1.999   6.006
16878WAT     H150876   7.123   2.020   5.949
16878WAT     H250877   6.960   2.027   5.959
16879WAT      O50878   0.156   7.643   8.509
16879WAT     H150879   0.117   7.658   8.419
16879WAT     H250880   0.226   7.713   8.528
16880WAT      O50881   1.808   0.977   9.775
16880WAT     H150882   1.818   1.073   9.750
16880WAT     H250883   1.715   0.959   9.805
16881WAT      O50884   1.846   7.990   9.861
16881WAT     H150885   1.768   7.984   9.924
16881WAT     H250886   1.897   8.074   9.880
16882WAT      O50887   7.596   9.310   6.912
16882WAT     H150888   7.685   9.340   6.879
16882WAT     H250889   7.583   9.213   6.889
16883WAT      O50890   0.870   1.295   2.739
16883WAT     H150891   0.907   1.204   2.723
16883WAT     H250892   0.866   1.345   2.652
16884WAT      O50893   4.000   7.853   7.140
16884WAT     H150894   3.981   7.912   7.218
16884WAT     H250895   4.012   7.909   7.058
16885WAT      O50896   2.666   0.606   9.003
16885WAT     H150897   2.694   0.512   8.986
16885WAT     H250898   2.619   0.612   9.091
16886WAT      O50899   5.331   2.344   1.935
16886WAT     H150900   5.405   2.409   1.951
16886WAT     H250901   5.243   2.388   1.955
16887WAT      O50902   5.504   6.856   2.701
16887WAT     H150903   5.603   6.865   2.701
16887WAT     H250904   5.462   6.944   2.726
16888WAT      O50905   5.647   1.467   8.948
16888WAT     H150906   5.734   1.498   8.987
16888WAT     H250907   5.638   1.368   8.960
16889WAT      O50908   7.511   2.859   7.406
16889WAT     H150909   7.420   2.827   7.381
16889WAT     H250910   7.529   2.947   7.364
16890WAT      O50911   0.706   6.391   6.840
16890WAT     H150912   0.803   6.413   6.853
16890WAT     H250913   0.697   6.316   6.774
16891WAT      O50914   9.451   0.850   5.375
16891WAT     H150915   9.359   0.823   5.348
16891WAT     H250916   9.449   0.941   5.417
16892WAT      O50917   8.324   7.995   0.055
16892WAT     H150918   8.339   8.092   0.040
16892WAT     H250919   8.262   7.960  -0.015
16893WAT      O50920   9.348   3.308   1.366
16893WAT     H150921   9.337   3.215   1.399
16893WAT     H250922   9.394   3.363   1.436
16894WAT      O50923   3.837   5.066   8.273
16894WAT     H150924   3.874   5.144   8.324
16894WAT     H250925   3.911   5.018   8.227
16895WAT      O50926   3.576   5.889   6.272
16895WAT     H150927   3.632   5.935   6.341
16895WAT     H250928   3.479   5.896   6.298
16896WAT      O50929   5.657   9.380   8.043
16896WAT     H150930   5.610   9.467   8.030
16896WAT     H250931   5.616   9.332   8.120
16897WAT      O50932   2.668   1.217   2.050
16897WAT     H150933   2.662   1.117   2.048
16897WAT     H250934   2.588   1.254   2.097
16898WAT      O50935   5.555   9.380   0.089
16898WAT     H150936   5.581   9.395   0.184
16898WAT     H250937   5.634   9.348   0.037
16899WAT      O50938   3.184   3.462   9.295
16899WAT     H150939   3.271   3.418   9.272
16899WAT     H250940   3.171   3.541   9.237
16900WAT      O50941   9.654   8.015   3.815
16900WAT     H150942   9.697   8.041   3.729
16900WAT     H250943   9.682   8.078   3.887
16901WAT      O50944   9.379   3.345   4.936
16901WAT     H150945   9.474   3.322   4.956
16901WAT     H250946   9.363   3.442   4.956
16902WAT      O50947   8.992   5.200   6.344
16902WAT     H150948   9.083   5.236   6.326
16902WAT     H250949   8.953   5.163   6.260
16903WAT      O50950   4.018   4.143   7.029
16903WAT     H150951   4.116   4.132   7.050
16903WAT     H250952   3.964   4.113   7.108
16904WAT      O50953   1.770   7.165   8.974
16904WAT     H150954   1.716   7.100   9.027
16904WAT     H250955   1.818   7.117   8.900
16905WAT      O50956   8.662   0.598   6.130
16905WAT     H150957   8.745   0.640   6.092
16905WAT     H250958   8.680   0.501   6.147
16906WAT      O50959   3.423   6.430   1.685
16906WAT     H150960   3.363   6.474   1.618
16906WAT     H250961   3.391   6.453   1.778
16907WAT      O50962   0.799   8.943   2.227
16907WAT     H150963   0.795   8.860   2.172
16907WAT     H250964   0.710   8.957   2.271
16908WAT      O50965   0.396   6.582   7.928
16908WAT     H150966   0.430   6.662   7.879
16908WAT     H250967   0.466   6.510   7.925
16909WAT      O50968   9.072   5.958   6.569
16909WAT     H150969   8.981   5.991   6.541
16909WAT     H250970   9.103   6.010   6.648
16910WAT      O50971   9.190   4.596   5.112
16910WAT     H150972   9.219   4.500   5.118
16910WAT     H250973   9.252   4.646   5.052
16911WAT      O50974   5.243   5.303   1.703
16911WAT     H150975   5.331   5.257   1.701
16911WAT     H250976   5.175   5.248   1.654
16912WAT      O50977   2.146   2.426   8.308
16912WAT     H150978   2.085   2.389   8.238
16912WAT     H250979   2.230   2.459   8.265
16913WAT      O50980   4.068   6.345   2.938
16913WAT     H150981   4.054   6.443   2.924
16913WAT     H250982   3.989   6.294   2.904
16914WAT      O50983   1.892   9.022   7.050
16914WAT     H150984   1.827   8.978   6.989
16914WAT     H250985   1.941   8.953   7.103
16915WAT      O50986   8.192   5.834   4.265
16915WAT     H150987   8.098   5.853   4.235
16915WAT     H250988   8.206   5.871   4.357
16916WAT      O50989   0.868   6.834   7.770
16916WAT     H150990   0.950   6.787   7.736
16916WAT     H250991   0.789   6.806   7.716
16917WAT      O50992   7.342   0.414   6.812
16917WAT     H150993   7.289   0.455   6.886
16917WAT     H250994   7.285   0.351   6.761
16918WAT      O50995   4.181   1.114   4.618
16918WAT     H150996   4.241   1.186   4.584
16918WAT     H250997   4.163   1.130   4.715
16919WAT      O50998   7.117   7.292   7.182
16919WAT     H150999   7.036   7.233   7.183
16919WAT     H251000   7.131   7.328   7.090
16920WAT      O51001   1.185   5.081   4.541
16920WAT     H151002   1.200   5.100   4.444
16920WAT     H251003   1.229   5.152   4.596
16921WAT      O51004   7.987   7.146   3.965
16921WAT     H151005   7.988   7.077   3.893
16921WAT     H251006   8.047   7.117   4.039
16922WAT      O51007   5.011   0.616   6.931
16922WAT     H151008   5.047   0.534   6.887
16922WAT     H251009   4.971   0.591   7.020
16923WAT      O51010   4.913   9.723   6.011
16923WAT     H151011   4.894   9.631   5.978
16923WAT     H251012   4.908   9.724   6.111
16924WAT      O51013   0.508   2.359   1.175
16924WAT     H151014   0.492   2.301   1.255
16924WAT     H251015   0.458   2.445   1.185
16925WAT      O51016   7.210   2.576   2.264
16925WAT     H151017   7.176   2.596   2.172
16925WAT     H251018   7.306   2.603   2.270
16926WAT      O51019   0.916   6.398   2.291
16926WAT     H151020   1.006   6.396   2.334
16926WAT     H251021   0.864   6.475   2.328
16927WAT      O51022   2.482   2.868   8.364
16927WAT     H151023   2.528   2.957   8.358
16927WAT     H251024   2.432   2.851   8.279
16928WAT      O51025   6.585   0.893   8.304
16928WAT     H151026   6.636   0.810   8.284
16928WAT     H251027   6.498   0.869   8.348
16929WAT      O51028   6.094   0.619   0.974
16929WAT     H151029   6.184   0.656   0.995
16929WAT     H251030   6.036   0.691   0.936
16930WAT      O51031   8.372   4.451   6.364
16930WAT     H151032   8.337   4.440   6.457
16930WAT     H251033   8.297   4.444   6.298
16931WAT      O51034   6.403   0.907   3.755
16931WAT     H151035   6.314   0.940   3.726
16931WAT     H251036   6.394   0.815   3.793
16932WAT      O51037   9.378   3.978   4.325
16932WAT     H151038   9.369   4.062   4.379
16932WAT     H251039   9.471   3.942   4.334
16933WAT      O51040   7.152   5.568   8.277
16933WAT     H151041   7.237   5.549   8.326
16933WAT     H251042   7.120   5.661   8.300
16934WAT      O51043   7.559   8.778   1.501
16934WAT     H151044   7.506   8.696   1.481
16934WAT     H251045   7.501   8.846   1.544
16935WAT      O51046   5.790   7.979   7.832
16935WAT     H151047   5.863   8.005   7.769
16935WAT     H251048   5.709   8.035   7.814
16936WAT      O51049   5.341   7.485   6.309
16936WAT     H151050   5.317   7.396   6.348
16936WAT     H251051   5.323   7.485   6.211
16937WAT      O51052   5.813   6.240   9.555
16937WAT     H151053   5.790   6.143   9.539
16937WAT     H251054   5.851   6.250   9.647
16938WAT      O51055   9.050   8.713   7.138
16938WAT     H151056   8.981   8.775   7.103
16938WAT     H251057   9.020   8.618   7.124
16939WAT      O51058   3.947   6.060   7.633
16939WAT     H151059   4.023   6.112   7.593
16939WAT     H251060   3.897   6.118   7.697
16940WAT      O51061   7.246   1.826   1.558
16940WAT     H151062   7.306   1.781   1.625
16940WAT     H251063   7.212   1.758   1.493
16941WAT      O51064   6.184   4.711   6.101
16941WAT     H151065   6.247   4.643   6.064
16941WAT     H251066   6.168   4.692   6.198
16942WAT      O51067   5.945   4.539   6.546
16942WAT     H151068   5.944   4.552   6.645
16942WAT     H251069   5.953   4.442   6.525
16943WAT      O51070   1.205   3.303   8.633
16943WAT     H151071   1.174   3.310   8.728
16943WAT     H251072   1.292   3.254   8.630
16944WAT      O51073   9.734   8.539   8.484
16944WAT     H151074   9.777   8.489   8.409
16944WAT     H251075   9.739   8.637   8.466
16945WAT      O51076   3.528   0.210   4.131
16945WAT     H151077   3.485   0.282   4.184
16945WAT     H251078   3.601   0.168   4.186
16946WAT      O51079   1.402   0.508   3.996
16946WAT     H151080   1.480   0.500   4.058
16946WAT     H251081   1.391   0.603   3.968
16947WAT      O51082   9.121   8.106   1.379
16947WAT     H151083   9.088   8.046   1.453
16947WAT     H251084   9.189   8.168   1.415
16948WAT      O51085   7.082   7.298   3.988
16948WAT     H151086   7.023   7.230   3.944
16948WAT     H251087   7.033   7.340   4.064
16949WAT      O51088   5.144   5.578   9.577
16949WAT     H151089   5.181   5.529   9.499
16949WAT     H251090   5.089   5.515   9.633
16950WAT      O51091   0.868   0.982   5.697
16950WAT     H151092   0.821   1.068   5.713
16950WAT     H251093   0.816   0.926   5.633
16951WAT      O51094   8.120   6.792   8.567
16951WAT     H151095   8.090   6.864   8.505
16951WAT     H251096   8.190   6.828   8.628
16952WAT      O51097   2.813   7.989   4.131
16952WAT     H151098   2.741   7.990   4.063
16952WAT     H251099   2.779   8.029   4.217
16953WAT      O51100   6.514   6.731   7.404
16953WAT     H151101   6.553   6.823   7.406
16953WAT     H251102   6.546   6.683   7.322
16954WAT      O51103   4.183   6.593   2.118
16954WAT     H151104   4.084   6.584   2.106
16954WAT     H251105   4.213   6.681   2.081
16955WAT      O51106   2.324   1.545   4.391
16955WAT     H151107   2.253   1.485   4.427
16955WAT     H251108   2.292   1.640   4.390
16956WAT      O51109   7.662   5.642   9.776
16956WAT     H151110   7.740   5.631   9.838
16956WAT     H251111   7.686   5.703   9.701
16957WAT      O51112   8.753   7.536   8.746
16957WAT     H151113   8.665   7.496   8.724
16957WAT     H251114   8.816   7.522   8.669
16958WAT      O51115   9.296   2.927   4.057
16958WAT     H151116   9.212   2.872   4.064
16958WAT     H251117   9.364   2.876   4.005
16959WAT      O51118   4.299   9.679   0.911
16959WAT     H151119   4.202   9.669   0.931
16959WAT     H251120   4.313   9.759   0.853
16960WAT      O51121   8.978   4.739   8.839
16960WAT     H151122   9.028   4.719   8.923
16960WAT     H251123   9.024   4.813   8.790
16961WAT      O51124   3.190   8.745   7.931
16961WAT     H151125   3.155   8.764   8.023
16961WAT     H251126   3.161   8.817   7.868
16962WAT      O51127   0.842   5.330   0.560
16962WAT     H151128   0.756   5.291   0.594
16962WAT     H251129   0.856   5.420   0.600
16963WAT      O51130   0.411   9.253   9.066
16963WAT     H151131   0.429   9.261   9.164
16963WAT     H251132   0.496   9.260   9.015
16964WAT      O51133   4.706   4.601   3.577
16964WAT     H151134   4.794   4.554   3.570
16964WAT     H251135   4.715   4.678   3.641
16965WAT      O51136   5.042   7.762   0.594
16965WAT     H151137   5.102   7.693   0.553
16965WAT     H251138   5.001   7.818   0.522
16966WAT      O51139   4.071   6.234   5.157
16966WAT     H151140   4.164   6.239   5.121
16966WAT     H251141   4.024   6.156   5.116
16967WAT      O51142   0.354   8.586   1.859
16967WAT     H151143   0.302   8.621   1.937
16967WAT     H251144   0.449   8.618   1.866
16968WAT      O51145   6.248   4.767   7.738
16968WAT     H151146   6.150   4.778   7.722
16968WAT     H251147   6.296   4.850   7.708
16969WAT      O51148   7.722   8.414   9.669
16969WAT     H151149   7.625   8.435   9.685
16969WAT     H251150   7.762   8.485   9.612
16970WAT      O51151   1.361   0.365   5.644
16970WAT     H151152   1.287   0.330   5.587
16970WAT     H251153   1.322   0.407   5.726
16971WAT      O51154   2.595   2.160   1.921
16971WAT     H151155   2.613   2.099   1.998
16971WAT     H251156   2.543   2.240   1.953
16972WAT      O51157   5.718   2.715   3.088
16972WAT     H151158   5.721   2.697   2.989
16972WAT     H251159   5.767   2.642   3.136
16973WAT      O51160   0.586   7.835   5.114
16973WAT     H151161   0.520   7.834   5.039
16973WAT     H251162   0.675   7.802   5.081
16974WAT      O51163   1.429   6.951   3.052
16974WAT     H151164   1.449   6.870   2.996
16974WAT     H251165   1.364   7.010   3.004
16975WAT      O51166   2.489   9.127   0.030
16975WAT     H151167   2.526   9.193  -0.035
16975WAT     H251168   2.395   9.104   0.003
16976WAT      O51169   9.010   1.991   9.319
16976WAT     H151170   9.056   2.025   9.402
16976WAT     H251171   8.927   2.045   9.303
16977WAT      O51172   3.543   8.020   7.030
16977WAT     H151173   3.584   8.091   7.088
16977WAT     H251174   3.502   7.949   7.088
16978WAT      O51175   3.501   3.499   1.277
16978WAT     H151176   3.565   3.422   1.281
16978WAT     H251177   3.552   3.582   1.254
16979WAT      O51178   6.713   2.983   8.455
16979WAT     H151179   6.759   2.913   8.400
16979WAT     H251180   6.703   2.950   8.549
16980WAT      O51181   0.088   6.434   5.716
16980WAT     H151182   0.054   6.354   5.766
16980WAT     H251183   0.138   6.494   5.778
16981WAT      O51184   4.802   7.097   7.719
16981WAT     H151185   4.794   7.160   7.641
16981WAT     H251186   4.773   7.143   7.802
16982WAT      O51187   7.204   7.531   6.049
16982WAT     H151188   7.253   7.474   5.984
16982WAT     H251189   7.268   7.565   6.119
16983WAT      O51190   0.767   1.333   3.167
16983WAT     H151191   0.863   1.316   3.188
16983WAT     H251192   0.716   1.344   3.253
16984WAT      O51193   8.929   6.513   1.966
16984WAT     H151194   9.009   6.499   2.023
16984WAT     H251195   8.894   6.425   1.933
16985WAT      O51196   0.555   3.466   4.874
16985WAT     H151197   0.476   3.419   4.834
16985WAT     H251198   0.539   3.480   4.972
16986WAT      O51199   7.679   4.725   0.239
16986WAT     H151200   7.580   4.714   0.231
16986WAT     H251201   7.699   4.811   0.287
16987WAT      O51202   7.709   2.544   2.594
16987WAT     H151203   7.661   2.589   2.518
16987WAT     H251204   7.658   2.558   2.679
16988WAT      O51205   2.468   0.888   4.888
16988WAT     H151206   2.457   0.976   4.935
16988WAT     H251207   2.514   0.903   4.800
16989WAT      O51208   4.363   3.458   6.702
16989WAT     H151209   4.291   3.410   6.651
16989WAT     H251210   4.395   3.536   6.649
16990WAT      O51211   1.844   5.740   5.170
16990WAT     H151212   1.803   5.831   5.165
16990WAT     H251213   1.772   5.670   5.174
16991WAT      O51214   1.677   1.739   6.078
16991WAT     H151215   1.717   1.805   6.014
16991WAT     H251216   1.606   1.687   6.030
16992WAT      O51217   8.635   0.753   5.628
16992WAT     H151218   8.569   0.780   5.558
16992WAT     H251219   8.591   0.692   5.694
16993WAT      O51220   9.740   3.909   5.754
16993WAT     H151221   9.645   3.899   5.726
16993WAT     H251222   9.759   3.851   5.833
16994WAT      O51223   7.501   8.081   0.432
16994WAT     H151224   7.407   8.109   0.411
16994WAT     H251225   7.529   8.120   0.520
16995WAT      O51226   3.103   9.769   1.755
16995WAT     H151227   3.013   9.749   1.716
16995WAT     H251228   3.165   9.798   1.682
16996WAT      O51229   2.593   9.054   0.274
16996WAT     H151230   2.668   8.995   0.245
16996WAT     H251231   2.558   9.105   0.195
16997WAT      O51232   1.026   4.542   8.055
16997WAT     H151233   0.956   4.521   7.987
16997WAT     H251234   0.986   4.593   8.130
16998WAT      O51235   1.507   9.061   8.055
16998WAT     H151236   1.555   8.974   8.067
16998WAT     H251237   1.431   9.066   8.119
16999WAT      O51238   1.546   9.818   0.066
16999WAT     H151239   1.479   9.794  -0.004
16999WAT     H251240   1.576   9.912   0.053
17000WAT      O51241   2.646   7.534   1.963
17000WAT     H151242   2.721   7.539   1.898
17000WAT     H251243   2.628   7.438   1.987
17001WAT      O51244   5.279   2.885   6.945
17001WAT     H151245   5.273   2.854   6.851
17001WAT     H251246   5.355   2.950   6.954
17002WAT      O51247   9.855   1.344   7.888
17002WAT     H151248   9.886   1.425   7.938
17002WAT     H251249   9.906   1.337   7.803
17003WAT      O51250   0.498   4.171   0.215
17003WAT     H151251   0.538   4.180   0.307
17003WAT     H251252   0.542   4.096   0.166
17004WAT      O51253   3.304   7.017   3.151
17004WAT     H151254   3.252   7.101   3.161
17004WAT     H251255   3.309   6.971   3.240
17005WAT      O51256   6.519   8.489   5.939
17005WAT     H151257   6.558   8.580   5.952
17005WAT     H251258   6.421   8.497   5.918
17006WAT      O51259   8.833   5.911   0.413
17006WAT     H151260   8.919   5.957   0.433
17006WAT     H251261   8.784   5.961   0.341
17007WAT      O51262   8.959   4.769   5.471
17007WAT     H151263   9.040   4.787   5.415
17007WAT     H251264   8.903   4.851   5.477
17008WAT      O51265   2.592   0.282   9.493
17008WAT     H151266   2.598   0.221   9.414
17008WAT     H251267   2.564   0.373   9.463
17009WAT      O51268   8.137   7.800   7.374
17009WAT     H151269   8.203   7.857   7.422
17009WAT     H251270   8.144   7.817   7.275
17010WAT      O51271   9.781   7.017   8.259
17010WAT     H151272   9.760   6.938   8.318
17010WAT     H251273   9.820   6.985   8.173
17011WAT      O51274   7.929   5.956   1.951
17011WAT     H151275   7.916   5.868   1.998
17011WAT     H251276   7.978   5.941   1.866
17012WAT      O51277   0.359   4.653   7.026
17012WAT     H151278   0.302   4.728   7.058
17012WAT     H251279   0.357   4.578   7.092
17013WAT      O51280   0.013   8.582   7.607
17013WAT     H151281   0.014   8.486   7.635
17013WAT     H251282   0.059   8.592   7.519
17014WAT      O51283   2.627   9.717   5.665
17014WAT     H151284   2.695   9.716   5.739
17014WAT     H251285   2.577   9.803   5.668
17015WAT      O51286   8.969   1.232   4.103
17015WAT     H151287   8.966   1.326   4.135
17015WAT     H251288   8.881   1.207   4.064
17016WAT      O51289   5.711   8.392   8.496
17016WAT     H151290   5.786   8.334   8.463
17016WAT     H251291   5.745   8.486   8.508
17017WAT      O51292   1.924   2.800   8.510
17017WAT     H151293   1.849   2.734   8.518
17017WAT     H251294   2.006   2.754   8.476
17018WAT      O51295   2.318   0.059   1.477
17018WAT     H151296   2.258   0.128   1.438
17018WAT     H251297   2.347   0.088   1.569
17019WAT      O51298   5.002   5.604   1.369
17019WAT     H151299   4.989   5.656   1.453
17019WAT     H251300   5.028   5.510   1.390
17020WAT      O51301   1.031   8.341   7.591
17020WAT     H151302   0.952   8.395   7.621
17020WAT     H251303   1.005   8.245   7.585
17021WAT      O51304   9.152   4.957   7.389
17021WAT     H151305   9.228   4.998   7.338
17021WAT     H251306   9.188   4.908   7.469
17022WAT      O51307   9.661   6.726   9.783
17022WAT     H151308   9.735   6.782   9.820
17022WAT     H251309   9.664   6.635   9.823
17023WAT      O51310   2.262   5.086   2.962
17023WAT     H151311   2.361   5.088   2.952
17023WAT     H251312   2.238   5.093   3.058
17024WAT      O51313   6.405   4.504   8.501
17024WAT     H151314   6.353   4.425   8.535
17024WAT     H251315   6.416   4.496   8.402
17025WAT      O51316   6.829   6.195   3.384
17025WAT     H151317   6.743   6.202   3.433
17025WAT     H251318   6.903   6.233   3.440
17026WAT      O51319   3.276   4.307   3.983
17026WAT     H151320   3.324   4.228   4.022
17026WAT     H251321   3.263   4.377   4.053
17027WAT      O51322   1.740   4.040   7.104
17027WAT     H151323   1.777   3.987   7.180
17027WAT     H251324   1.793   4.124   7.093
17028WAT      O51325   4.191   0.816   3.836
17028WAT     H151326   4.140   0.781   3.914
17028WAT     H251327   4.214   0.912   3.851
17029WAT      O51328   3.218   7.903   2.491
17029WAT     H151329   3.294   7.958   2.525
17029WAT     H251330   3.141   7.910   2.554
17030WAT      O51331   3.416   8.520   4.302
17030WAT     H151332   3.428   8.522   4.401
17030WAT     H251333   3.335   8.467   4.279
17031WAT      O51334   8.280   2.314   4.897
17031WAT     H151335   8.216   2.299   4.972
17031WAT     H251336   8.351   2.244   4.898
17032WAT      O51337   6.416   0.179   0.731
17032WAT     H151338   6.393   0.090   0.772
17032WAT     H251339   6.435   0.245   0.804
17033WAT      O51340   3.000   0.803   2.710
17033WAT     H151341   3.033   0.755   2.791
17033WAT     H251342   2.927   0.866   2.737
17034WAT      O51343   4.097   6.630   9.432
17034WAT     H151344   4.032   6.704   9.418
17034WAT     H251345   4.126   6.628   9.528
17035WAT      O51346   0.994   3.779   7.333
17035WAT     H151347   1.006   3.691   7.287
17035WAT     H251348   1.036   3.775   7.423
17036WAT      O51349   9.203   3.545   5.985
17036WAT     H151350   9.257   3.556   6.068
17036WAT     H251351   9.220   3.454   5.946
17037WAT      O51352   3.250   4.773   1.389
17037WAT     H151353   3.181   4.705   1.363
17037WAT     H251354   3.212   4.833   1.460
17038WAT      O51355   9.044   4.622   7.523
17038WAT     H151356   9.050   4.616   7.424
17038WAT     H251357   8.981   4.552   7.558
17039WAT      O51358   8.245   1.043   2.538
17039WAT     H151359   8.187   0.991   2.601
17039WAT     H251360   8.284   0.981   2.471
17040WAT      O51361   3.616   7.577   3.303
17040WAT     H151362   3.619   7.551   3.399
17040WAT     H251363   3.522   7.596   3.276
17041WAT      O51364   8.993   2.934   4.310
17041WAT     H151365   9.008   3.008   4.376
17041WAT     H251366   8.933   2.965   4.237
17042WAT      O51367   2.858   6.295   2.840
17042WAT     H151368   2.854   6.392   2.866
17042WAT     H251369   2.903   6.243   2.913
17043WAT      O51370   0.278   2.440   2.173
17043WAT     H151371   0.258   2.399   2.262
17043WAT     H251372   0.358   2.396   2.133
17044WAT      O51373   9.198   2.109   8.233
17044WAT     H151374   9.102   2.097   8.259
17044WAT     H251375   9.203   2.145   8.140
17045WAT      O51376   3.090   7.242   7.840
17045WAT     H151377   3.007   7.187   7.854
17045WAT     H251378   3.157   7.219   7.910
17046WAT      O51379   1.248   9.239   9.393
17046WAT     H151380   1.296   9.311   9.343
17046WAT     H251381   1.163   9.216   9.346
17047WAT      O51382   5.952   7.711   8.636
17047WAT     H151383   5.857   7.736   8.653
17047WAT     H251384   5.956   7.628   8.582
17048WAT      O51385   8.496   6.177   6.010
17048WAT     H151386   8.414   6.226   5.982
17048WAT     H251387   8.476   6.122   6.091
17049WAT      O51388   4.685   9.396   2.227
17049WAT     H151389   4.753   9.458   2.187
17049WAT     H251390   4.695   9.396   2.327
17050WAT      O51391   8.918   2.192   0.706
17050WAT     H151392   8.980   2.221   0.632
17050WAT     H251393   8.825   2.185   0.670
17051WAT      O51394   7.788   4.712   8.641
17051WAT     H151395   7.724   4.754   8.576
17051WAT     H251396   7.772   4.751   8.732
17052WAT      O51397   5.260   5.333   7.736
17052WAT     H151398   5.327   5.260   7.721
17052WAT     H251399   5.290   5.390   7.813
17053WAT      O51400   7.287   7.380   0.817
17053WAT     H151401   7.377   7.423   0.829
17053WAT     H251402   7.238   7.425   0.743
17054WAT      O51403   7.072   7.268   1.246
17054WAT     H151404   7.146   7.215   1.287
17054WAT     H251405   7.080   7.364   1.273
17055WAT      O51406   7.261   1.066   4.494
17055WAT     H151407   7.337   1.039   4.554
17055WAT     H251408   7.202   1.131   4.541
17056WAT      O51409   4.607   3.116   1.436
17056WAT     H151410   4.589   3.037   1.378
17056WAT     H251411   4.583   3.093   1.531
17057WAT      O51412   7.077   7.899   3.571
17057WAT     H151413   7.075   7.951   3.486
17057WAT     H251414   7.164   7.852   3.580
17058WAT      O51415   5.841   0.407   7.406
17058WAT     H151416   5.871   0.437   7.315
17058WAT     H251417   5.741   0.413   7.411
17059WAT      O51418   1.616   9.165   7.438
17059WAT     H151419   1.553   9.111   7.493
17059WAT     H251420   1.564   9.222   7.375
17060WAT      O51421   3.634   2.998   5.492
17060WAT     H151422   3.550   3.003   5.546
17060WAT     H251423   3.642   3.080   5.435
17061WAT      O51424   2.296   7.376   1.123
17061WAT     H151425   2.373   7.426   1.162
17061WAT     H251426   2.236   7.345   1.196
17062WAT      O51427   3.237   5.566   3.142
17062WAT     H151428   3.244   5.549   3.044
17062WAT     H251429   3.312   5.627   3.171
17063WAT      O51430   2.250   0.168   2.681
17063WAT     H151431   2.215   0.084   2.724
17063WAT     H251432   2.312   0.214   2.744
17064WAT      O51433   0.320   5.615   9.015
17064WAT     H151434   0.272   5.699   8.989
17064WAT     H251435   0.373   5.581   8.938
17065WAT      O51436   3.826   4.359   8.120
17065WAT     H151437   3.785   4.295   8.185
17065WAT     H251438   3.755   4.401   8.065
17066WAT      O51439   1.729   7.427   8.992
17066WAT     H151440   1.686   7.433   9.082
17066WAT     H251441   1.742   7.331   8.967
17067WAT      O51442   4.930   9.037   9.643
17067WAT     H151443   4.906   9.072   9.733
17067WAT     H251444   4.850   9.036   9.584
17068WAT      O51445   1.380   7.866   5.201
17068WAT     H151446   1.402   7.950   5.150
17068WAT     H251447   1.465   7.825   5.234
17069WAT      O51448   3.632   2.442   8.377
17069WAT     H151449   3.612   2.353   8.337
17069WAT     H251450   3.694   2.431   8.455
17070WAT      O51451   3.035   1.714   8.641
17070WAT     H151452   3.008   1.761   8.726
17070WAT     H251453   3.105   1.647   8.661
17071WAT      O51454   6.958   7.627   5.193
17071WAT     H151455   6.999   7.573   5.266
17071WAT     H251456   7.013   7.709   5.177
17072WAT      O51457   3.056   3.032   1.550
17072WAT     H151458   3.127   3.014   1.619
17072WAT     H251459   2.967   3.005   1.586
17073WAT      O51460   9.760   8.763   6.728
17073WAT     H151461   9.854   8.768   6.762
17073WAT     H251462   9.696   8.781   6.804
17074WAT      O51463   5.040   3.735   7.248
17074WAT     H151464   5.073   3.753   7.155
17074WAT     H251465   5.111   3.760   7.313
17075WAT      O51466   0.207   9.037   4.994
17075WAT     H151467   0.151   8.980   5.055
17075WAT     H251468   0.152   9.112   4.958
17076WAT      O51469   1.233   2.022   8.885
17076WAT     H151470   1.262   1.958   8.957
17076WAT     H251471   1.171   2.090   8.924
17077WAT      O51472   5.187   9.840   4.478
17077WAT     H151473   5.245   9.800   4.548
17077WAT     H251474   5.093   9.806   4.489
17078WAT      O51475   2.801   2.354   9.402
17078WAT     H151476   2.886   2.397   9.369
17078WAT     H251477   2.809   2.255   9.394
17079WAT      O51478   0.436   8.735   0.136
17079WAT     H151479   0.453   8.666   0.066
17079WAT     H251480   0.438   8.826   0.095
17080WAT      O51481   0.722   3.152   2.200
17080WAT     H151482   0.791   3.173   2.131
17080WAT     H251483   0.719   3.225   2.268
17081WAT      O51484   2.247   3.969   0.117
17081WAT     H151485   2.163   4.003   0.074
17081WAT     H251486   2.229   3.878   0.155
17082WAT      O51487   6.851   6.718   9.671
17082WAT     H151488   6.810   6.658   9.740
17082WAT     H251489   6.787   6.792   9.648
17083WAT      O51490   2.812   2.770   7.685
17083WAT     H151491   2.837   2.813   7.771
17083WAT     H251492   2.757   2.834   7.630
17084WAT      O51493   7.156   8.619   4.787
17084WAT     H151494   7.137   8.716   4.768
17084WAT     H251495   7.072   8.566   4.774
17085WAT      O51496   0.581   3.234   5.233
17085WAT     H151497   0.568   3.326   5.197
17085WAT     H251498   0.575   3.236   5.333
17086WAT      O51499   2.694   6.268   9.178
17086WAT     H151500   2.777   6.214   9.165
17086WAT     H251501   2.615   6.207   9.185
17087WAT      O51502   9.048   8.516   8.899
17087WAT     H151503   8.986   8.549   8.970
17087WAT     H251504   9.018   8.426   8.867
17088WAT      O51505   4.302   9.263   6.967
17088WAT     H151506   4.289   9.204   7.047
17088WAT     H251507   4.238   9.340   6.972
17089WAT      O51508   4.467   4.836   2.848
17089WAT     H151509   4.513   4.755   2.813
17089WAT     H251510   4.385   4.855   2.793
17090WAT      O51511   9.779   5.226   5.057
17090WAT     H151512   9.762   5.305   4.999
17090WAT     H251513   9.703   5.215   5.121
17091WAT      O51514   5.493   4.191   2.618
17091WAT     H151515   5.502   4.239   2.531
17091WAT     H251516   5.404   4.212   2.659
17092WAT      O51517   9.452   2.845   9.857
17092WAT     H151518   9.493   2.778   9.919
17092WAT     H251519   9.463   2.815   9.762
17093WAT      O51520   2.801   6.164   9.548
17093WAT     H151521   2.708   6.150   9.514
17093WAT     H251522   2.798   6.195   9.643
17094WAT      O51523   3.380   6.274   6.137
17094WAT     H151524   3.389   6.335   6.059
17094WAT     H251525   3.286   6.240   6.142
17095WAT      O51526   6.194   0.802   2.763
17095WAT     H151527   6.215   0.759   2.850
17095WAT     H251528   6.150   0.891   2.779
17096WAT      O51529   2.813   8.785   6.440
17096WAT     H151530   2.719   8.755   6.456
17096WAT     H251531   2.876   8.722   6.485
17097WAT      O51532   0.146   3.039   0.029
17097WAT     H151533   0.150   3.016  -0.068
17097WAT     H251534   0.210   2.981   0.080
17098WAT      O51535   9.768   2.790   5.663
17098WAT     H151536   9.726   2.721   5.604
17098WAT     H251537   9.701   2.860   5.687
17099WAT      O51538   7.729   4.555   7.443
17099WAT     H151539   7.742   4.564   7.344
17099WAT     H251540   7.680   4.635   7.477
17100WAT      O51541   1.785   1.431   2.084
17100WAT     H151542   1.747   1.504   2.028
17100WAT     H251543   1.873   1.402   2.045
17101WAT      O51544   1.201   1.880   4.078
17101WAT     H151545   1.239   1.911   4.165
17101WAT     H251546   1.182   1.960   4.020
17102WAT      O51547   7.077   3.980   5.992
17102WAT     H151548   7.087   3.885   6.021
17102WAT     H251549   7.136   4.038   6.048
17103WAT      O51550   5.982   4.309   5.110
17103WAT     H151551   5.998   4.273   5.018
17103WAT     H251552   6.069   4.319   5.158
17104WAT      O51553   7.509   9.460   8.548
17104WAT     H151554   7.572   9.523   8.502
17104WAT     H251555   7.474   9.504   8.630
17105WAT      O51556   5.064   3.330   8.160
17105WAT     H151557   5.087   3.371   8.248
17105WAT     H251558   5.149   3.309   8.110
17106WAT      O51559   8.758   3.401   3.983
17106WAT     H151560   8.698   3.330   3.946
17106WAT     H251561   8.831   3.421   3.917
17107WAT      O51562   0.870   0.589   4.059
17107WAT     H151563   0.778   0.552   4.046
17107WAT     H251564   0.926   0.566   3.979
17108WAT      O51565   5.065   3.168   5.586
17108WAT     H151566   5.102   3.236   5.523
17108WAT     H251567   5.013   3.100   5.535
17109WAT      O51568   7.979   7.356   1.103
17109WAT     H151569   8.047   7.393   1.040
17109WAT     H251570   7.920   7.429   1.137
17110WAT      O51571   3.203   6.701   2.209
17110WAT     H151572   3.276   6.724   2.272
17110WAT     H251573   3.239   6.695   2.116
17111WAT      O51574   1.272   1.757   7.545
17111WAT     H151575   1.326   1.686   7.590
17111WAT     H251576   1.303   1.847   7.576
17112WAT      O51577   5.575   4.012   6.881
17112WAT     H151578   5.618   3.923   6.868
17112WAT     H251579   5.535   4.017   6.973
17113WAT      O51580   4.232   5.191   7.538
17113WAT     H151581   4.286   5.107   7.546
17113WAT     H251582   4.257   5.254   7.612
17114WAT      O51583   0.324   7.405   3.601
17114WAT     H151584   0.415   7.436   3.629
17114WAT     H251585   0.255   7.461   3.647
17115WAT      O51586   2.873   3.128   9.507
17115WAT     H151587   2.942   3.080   9.561
17115WAT     H251588   2.917   3.194   9.447
17116WAT      O51589   2.378   2.512   5.706
17116WAT     H151590   2.458   2.572   5.696
17116WAT     H251591   2.319   2.523   5.626
17117WAT      O51592   7.608   6.534   6.681
17117WAT     H151593   7.563   6.574   6.761
17117WAT     H251594   7.668   6.459   6.710
17118WAT      O51595   2.289   9.762   0.091
17118WAT     H151596   2.340   9.725   0.168
17118WAT     H251597   2.345   9.828   0.042
17119WAT      O51598   3.852   3.014   7.287
17119WAT     H151599   3.935   3.060   7.320
17119WAT     H251600   3.836   2.931   7.341
17120WAT      O51601   7.044   7.022   8.542
17120WAT     H151602   7.130   6.991   8.583
17120WAT     H251603   7.058   7.110   8.496
17121WAT      O51604   6.381   9.040   2.698
17121WAT     H151605   6.390   8.950   2.742
17121WAT     H251606   6.286   9.071   2.706
17122WAT      O51607   4.081   3.836   4.073
17122WAT     H151608   4.030   3.909   4.028
17122WAT     H251609   4.022   3.755   4.082
17123WAT      O51610   3.135   1.876   1.946
17123WAT     H151611   3.184   1.919   2.021
17123WAT     H251612   3.057   1.824   1.982
17124WAT      O51613   4.182   2.451   7.765
17124WAT     H151614   4.132   2.538   7.763
17124WAT     H251615   4.275   2.465   7.731
17125WAT      O51616   4.541   2.418   2.734
17125WAT     H151617   4.571   2.322   2.735
17125WAT     H251618   4.450   2.424   2.694
17126WAT      O51619   2.039   1.109   4.604
17126WAT     H151620   1.952   1.087   4.559
17126WAT     H251621   2.021   1.150   4.693
17127WAT      O51622   2.489   8.300   1.386
17127WAT     H151623   2.398   8.314   1.427
17127WAT     H251624   2.501   8.363   1.310
17128WAT      O51625   5.518   1.727   8.674
17128WAT     H151626   5.443   1.691   8.619
17128WAT     H251627   5.536   1.664   8.751
17129WAT      O51628   2.729   1.542   8.257
17129WAT     H151629   2.722   1.535   8.157
17129WAT     H251630   2.668   1.475   8.299
17130WAT      O51631   2.005   6.494   6.638
17130WAT     H151632   2.017   6.395   6.627
17130WAT     H251633   2.018   6.518   6.734
17131WAT      O51634   4.862   5.229   5.919
17131WAT     H151635   4.945   5.188   5.956
17131WAT     H251636   4.886   5.298   5.851
17132WAT      O51637   8.054   2.314   5.918
17132WAT     H151638   8.000   2.231   5.932
17132WAT     H251639   8.056   2.367   6.003
17133WAT      O51640   8.194   1.360   8.340
17133WAT     H151641   8.108   1.410   8.347
17133WAT     H251642   8.250   1.379   8.421
17134WAT      O51643   2.991   9.113   7.325
17134WAT     H151644   2.968   9.083   7.233
17134WAT     H251645   3.002   9.212   7.327
17135WAT      O51646   2.715   6.995   6.970
17135WAT     H151647   2.754   6.909   6.937
17135WAT     H251648   2.736   7.005   7.068
17136WAT      O51649   0.832   3.859   4.433
17136WAT     H151650   0.818   3.771   4.479
17136WAT     H251651   0.846   3.843   4.335
17137WAT      O51652   2.403   6.303   0.367
17137WAT     H151653   2.381   6.310   0.464
17137WAT     H251654   2.457   6.383   0.339
17138WAT      O51655   2.302   1.805   2.750
17138WAT     H151656   2.382   1.801   2.689
17138WAT     H251657   2.334   1.816   2.844
17139WAT      O51658   8.755   9.411   7.396
17139WAT     H151659   8.818   9.482   7.366
17139WAT     H251660   8.765   9.395   7.494
17140WAT      O51661   5.051   4.593   2.801
17140WAT     H151662   5.135   4.543   2.822
17140WAT     H251663   5.061   4.640   2.714
17141WAT      O51664   4.730   4.118   7.771
17141WAT     H151665   4.743   4.091   7.676
17141WAT     H251666   4.706   4.215   7.776
17142WAT      O51667   2.583   2.497   7.790
17142WAT     H151668   2.668   2.445   7.791
17142WAT     H251669   2.510   2.442   7.830
17143WAT      O51670   6.367   2.501   3.330
17143WAT     H151671   6.290   2.543   3.378
17143WAT     H251672   6.358   2.517   3.232
17144WAT      O51673   3.469   1.129   9.422
17144WAT     H151674   3.522   1.156   9.502
17144WAT     H251675   3.503   1.178   9.342
17145WAT      O51676   5.032   0.839   8.777
17145WAT     H151677   5.123   0.801   8.792
17145WAT     H251678   4.968   0.798   8.842
17146WAT      O51679   8.600   5.460   9.417
17146WAT     H151680   8.582   5.530   9.348
17146WAT     H251681   8.650   5.384   9.375
17147WAT      O51682   4.240   3.308   3.486
17147WAT     H151683   4.214   3.353   3.401
17147WAT     H251684   4.160   3.263   3.526
17148WAT      O51685   3.582   7.960   2.183
17148WAT     H151686   3.555   8.050   2.149
17148WAT     H251687   3.509   7.923   2.241
17149WAT      O51688   1.793   6.635   5.784
17149WAT     H151689   1.698   6.647   5.753
17149WAT     H251690   1.848   6.598   5.710
17150WAT      O51691   2.801   5.918   1.850
17150WAT     H151692   2.892   5.892   1.818
17150WAT     H251693   2.785   5.880   1.941
17151WAT      O51694   1.852   9.828   2.937
17151WAT     H151695   1.909   9.889   2.994
17151WAT     H251696   1.774   9.879   2.902
17152WAT      O51697   7.179   8.098   5.510
17152WAT     H151698   7.279   8.102   5.515
17152WAT     H251699   7.141   8.186   5.537
17153WAT      O51700   4.261   2.245   6.079
17153WAT     H151701   4.256   2.154   6.038
17153WAT     H251702   4.204   2.248   6.161
17154WAT      O51703   6.040   8.029   7.699
17154WAT     H151704   6.026   7.961   7.628
17154WAT     H251705   6.078   8.112   7.659
17155WAT      O51706   5.243   7.613   7.336
17155WAT     H151707   5.313   7.682   7.355
17155WAT     H251708   5.191   7.640   7.254
17156WAT      O51709   3.899   7.533   4.234
17156WAT     H151710   3.834   7.559   4.306
17156WAT     H251711   3.977   7.595   4.237
17157WAT      O51712   0.678   7.720   0.193
17157WAT     H151713   0.776   7.739   0.203
17157WAT     H251714   0.653   7.720   0.097
17158WAT      O51715   2.983   2.831   3.406
17158WAT     H151716   2.934   2.827   3.493
17158WAT     H251717   3.075   2.793   3.418
17159WAT      O51718   6.235   5.392   1.000
17159WAT     H151719   6.241   5.401   1.100
17159WAT     H251720   6.295   5.317   0.970
17160WAT      O51721   6.751   9.747   0.662
17160WAT     H151722   6.707   9.757   0.572
17160WAT     H251723   6.800   9.831   0.684
17161WAT      O51724   3.465   3.398   3.502
17161WAT     H151725   3.412   3.353   3.430
17161WAT     H251726   3.416   3.479   3.533
17162WAT      O51727   6.693   4.655   9.593
17162WAT     H151728   6.741   4.658   9.681
17162WAT     H251729   6.665   4.747   9.567
17163WAT      O51730   5.780   5.687   1.154
17163WAT     H151731   5.810   5.617   1.220
17163WAT     H251732   5.789   5.651   1.061
17164WAT      O51733   1.066   5.465   9.361
17164WAT     H151734   1.152   5.449   9.314
17164WAT     H251735   0.990   5.451   9.298
17165WAT      O51736   9.783   0.343   4.181
17165WAT     H151737   9.778   0.443   4.190
17165WAT     H251738   9.702   0.302   4.222
17166WAT      O51739   7.774   0.315   6.757
17166WAT     H151740   7.712   0.393   6.759
17166WAT     H251741   7.758   0.257   6.838
17167WAT      O51742   1.238   5.994   9.169
17167WAT     H151743   1.256   6.088   9.139
17167WAT     H251744   1.149   5.989   9.213
17168WAT      O51745   6.741   6.134   3.753
17168WAT     H151746   6.676   6.146   3.677
17168WAT     H251747   6.722   6.201   3.824
17169WAT      O51748   6.654   5.664   2.993
17169WAT     H151749   6.644   5.589   2.927
17169WAT     H251750   6.678   5.748   2.945
17170WAT      O51751   0.725   6.703   1.952
17170WAT     H151752   0.763   6.731   1.864
17170WAT     H251753   0.716   6.783   2.011
17171WAT      O51754   0.505   8.639   5.314
17171WAT     H151755   0.571   8.565   5.309
17171WAT     H251756   0.449   8.629   5.396
17172WAT      O51757   0.729   7.976   8.063
17172WAT     H151758   0.639   8.005   8.095
17172WAT     H251759   0.733   7.984   7.963
17173WAT      O51760   5.782   8.412   4.689
17173WAT     H151761   5.742   8.495   4.729
17173WAT     H251762   5.772   8.415   4.590
17174WAT      O51763   4.797   6.890   3.561
17174WAT     H151764   4.717   6.912   3.616
17174WAT     H251765   4.787   6.932   3.471
17175WAT      O51766   2.360   7.315   8.096
17175WAT     H151767   2.306   7.399   8.090
17175WAT     H251768   2.422   7.321   8.174
17176WAT      O51769   6.423   4.216   7.685
17176WAT     H151770   6.407   4.240   7.780
17176WAT     H251771   6.355   4.262   7.627
17177WAT      O51772   2.675   2.957   5.353
17177WAT     H151773   2.757   2.962   5.296
17177WAT     H251774   2.647   2.861   5.361
17178WAT      O51775   8.764   7.362   9.041
17178WAT     H151776   8.698   7.320   8.980
17178WAT     H251777   8.839   7.401   8.987
17179WAT      O51778   0.072   5.915   1.999
17179WAT     H151779   0.144   5.848   2.017
17179WAT     H251780  -0.018   5.871   2.012
17180WAT      O51781   5.067   0.268   8.640
17180WAT     H151782   5.059   0.367   8.651
17180WAT     H251783   5.068   0.246   8.543
17181WAT      O51784   7.193   1.751   2.244
17181WAT     H151785   7.129   1.817   2.283
17181WAT     H251786   7.261   1.727   2.313
17182WAT      O51787   4.545   3.242   9.268
17182WAT     H151788   4.478   3.170   9.286
17182WAT     H251789   4.589   3.226   9.180
17183WAT      O51790   7.812   1.382   8.657
17183WAT     H151791   7.750   1.339   8.723
17183WAT     H251792   7.879   1.315   8.625
17184WAT      O51793   5.916   8.698   9.017
17184WAT     H151794   5.865   8.749   9.086
17184WAT     H251795   6.006   8.675   9.052
17185WAT      O51796   0.536   0.879   7.231
17185WAT     H151797   0.553   0.928   7.317
17185WAT     H251798   0.477   0.800   7.249
17186WAT      O51799   6.895   8.028   1.717
17186WAT     H151800   6.948   8.070   1.643
17186WAT     H251801   6.880   7.931   1.697
17187WAT      O51802   1.453   5.612   0.424
17187WAT     H151803   1.393   5.539   0.392
17187WAT     H251804   1.412   5.657   0.503
17188WAT      O51805   1.668   9.214   1.524
17188WAT     H151806   1.745   9.229   1.462
17188WAT     H251807   1.700   9.169   1.607
17189WAT      O51808   4.857   5.793   9.038
17189WAT     H151809   4.944   5.837   9.063
17189WAT     H251810   4.800   5.785   9.120
17190WAT      O51811   6.411   2.232   3.300
17190WAT     H151812   6.317   2.210   3.274
17190WAT     H251813   6.414   2.325   3.338
17191WAT      O51814   5.099   4.028   3.783
17191WAT     H151815   5.131   4.123   3.780
17191WAT     H251816   5.175   3.967   3.760
17192WAT      O51817   0.415   0.137   4.273
17192WAT     H151818   0.467   0.214   4.311
17192WAT     H251819   0.318   0.148   4.294
17193WAT      O51820   2.712   4.373   5.193
17193WAT     H151821   2.679   4.457   5.236
17193WAT     H251822   2.680   4.369   5.099
17194WAT      O51823   5.318   7.989   8.616
17194WAT     H151824   5.292   7.905   8.569
17194WAT     H251825   5.241   8.021   8.672
17195WAT      O51826   6.547   7.138   8.776
17195WAT     H151827   6.453   7.172   8.786
17195WAT     H251828   6.545   7.041   8.754
17196WAT      O51829   2.211   6.171   5.463
17196WAT     H151830   2.223   6.260   5.420
17196WAT     H251831   2.236   6.098   5.399
17197WAT      O51832   0.072   5.052   8.330
17197WAT     H151833   0.020   5.137   8.328
17197WAT     H251834   0.162   5.067   8.287
17198WAT      O51835   8.237   5.851   4.773
17198WAT     H151836   8.142   5.856   4.805
17198WAT     H251837   8.295   5.909   4.831
17199WAT      O51838   7.214   1.103   9.009
17199WAT     H151839   7.314   1.114   9.009
17199WAT     H251840   7.192   1.006   9.020
17200WAT      O51841   8.728   6.328   2.397
17200WAT     H151842   8.804   6.393   2.396
17200WAT     H251843   8.755   6.245   2.349
17201WAT      O51844   4.975   8.313   2.969
17201WAT     H151845   5.005   8.370   2.892
17201WAT     H251846   4.880   8.285   2.954
17202WAT      O51847   1.826   9.643   4.137
17202WAT     H151848   1.924   9.657   4.118
17202WAT     H251849   1.811   9.644   4.236
17203WAT      O51850   4.294   4.001   3.659
17203WAT     H151851   4.310   4.043   3.748
17203WAT     H251852   4.196   3.980   3.649
17204WAT      O51853   2.771   4.879   5.491
17204WAT     H151854   2.811   4.875   5.583
17204WAT     H251855   2.841   4.856   5.423
17205WAT      O51856   5.850   7.063   3.812
17205WAT     H151857   5.804   7.072   3.724
17205WAT     H251858   5.933   7.119   3.813
17206WAT      O51859   5.827   5.444   7.610
17206WAT     H151860   5.780   5.490   7.535
17206WAT     H251861   5.891   5.377   7.573
17207WAT      O51862   3.401   2.899   5.651
17207WAT     H151863   3.406   2.944   5.740
17207WAT     H251864   3.356   2.959   5.585
17208WAT      O51865   1.301   0.330   1.467
17208WAT     H151866   1.301   0.237   1.429
17208WAT     H251867   1.298   0.326   1.566
17209WAT      O51868   0.785   8.060   0.814
17209WAT     H151869   0.883   8.048   0.796
17209WAT     H251870   0.773   8.116   0.896
17210WAT      O51871   7.002   8.924   6.844
17210WAT     H151872   7.026   9.000   6.904
17210WAT     H251873   6.930   8.869   6.886
17211WAT      O51874   7.137   5.261   4.718
17211WAT     H151875   7.209   5.255   4.787
17211WAT     H251876   7.048   5.265   4.763
17212WAT      O51877   0.626   8.627   1.812
17212WAT     H151878   0.629   8.527   1.810
17212WAT     H251879   0.601   8.662   1.722
17213WAT      O51880   0.219   7.460   8.748
17213WAT     H151881   0.204   7.519   8.669
17213WAT     H251882   0.131   7.435   8.789
17214WAT      O51883   2.264   7.981   8.496
17214WAT     H151884   2.234   8.052   8.560
17214WAT     H251885   2.189   7.960   8.433
17215WAT      O51886   8.402   0.125   2.294
17215WAT     H151887   8.366   0.201   2.349
17215WAT     H251888   8.371   0.135   2.200
17216WAT      O51889   3.991   4.333   9.815
17216WAT     H151890   4.074   4.356   9.866
17216WAT     H251891   3.989   4.235   9.796
17217WAT      O51892   6.628   2.964   7.301
17217WAT     H151893   6.594   2.871   7.319
17217WAT     H251894   6.660   2.970   7.207
17218WAT      O51895   2.593   3.794   4.202
17218WAT     H151896   2.538   3.776   4.120
17218WAT     H251897   2.677   3.739   4.198
17219WAT      O51898   0.157   5.658   6.324
17219WAT     H151899   0.133   5.658   6.421
17219WAT     H251900   0.256   5.648   6.314
17220WAT      O51901   3.606   7.499   1.402
17220WAT     H151902   3.564   7.584   1.373
17220WAT     H251903   3.675   7.518   1.472
17221WAT      O51904   0.216   8.683   6.130
17221WAT     H151905   0.191   8.588   6.112
17221WAT     H251906   0.155   8.721   6.200
17222WAT      O51907   4.452   8.184   9.360
17222WAT     H151908   4.365   8.189   9.409
17222WAT     H251909   4.435   8.176   9.262
17223WAT      O51910   8.495   4.495   0.457
17223WAT     H151911   8.514   4.545   0.541
17223WAT     H251912   8.397   4.494   0.439
17224WAT      O51913   8.992   6.488   5.212
17224WAT     H151914   9.045   6.571   5.230
17224WAT     H251915   9.041   6.409   5.248
17225WAT      O51916   5.852   9.454   6.101
17225WAT     H151917   5.869   9.368   6.150
17225WAT     H251918   5.817   9.522   6.165
17226WAT      O51919   7.603   6.487   8.857
17226WAT     H151920   7.509   6.454   8.855
17226WAT     H251921   7.641   6.485   8.764
17227WAT      O51922   4.047   0.509   9.642
17227WAT     H151923   4.002   0.589   9.682
17227WAT     H251924   4.087   0.534   9.554
17228WAT      O51925   9.826   6.322   6.189
17228WAT     H151926   9.731   6.294   6.203
17228WAT     H251927   9.886   6.243   6.204
17229WAT      O51928   8.957   5.107   2.022
17229WAT     H151929   8.953   5.175   2.095
17229WAT     H251930   9.021   5.137   1.951
17230WAT      O51931   8.363   4.669   4.495
17230WAT     H151932   8.329   4.630   4.580
17230WAT     H251933   8.295   4.658   4.423
17231WAT      O51934   6.561   3.395   7.365
17231WAT     H151935   6.645   3.365   7.318
17231WAT     H251936   6.583   3.466   7.431
17232WAT      O51937   1.936   8.994   3.675
17232WAT     H151938   1.862   8.947   3.626
17232WAT     H251939   1.994   9.043   3.609
17233WAT      O51940   2.391   2.704   8.797
17233WAT     H151941   2.361   2.718   8.703
17233WAT     H251942   2.311   2.693   8.856
17234WAT      O51943   8.094   4.652   4.812
17234WAT     H151944   8.069   4.621   4.904
17234WAT     H251945   8.120   4.749   4.816
17235WAT      O51946   3.182   1.227   3.794
17235WAT     H151947   3.198   1.175   3.710
17235WAT     H251948   3.106   1.290   3.780
17236WAT      O51949   5.972   3.826   7.091
17236WAT     H151950   6.071   3.833   7.092
17236WAT     H251951   5.932   3.912   7.123
17237WAT      O51952   8.585   7.099   2.736
17237WAT     H151953   8.627   7.053   2.658
17237WAT     H251954   8.639   7.082   2.818
17238WAT      O51955   6.330   6.418   1.293
17238WAT     H151956   6.424   6.452   1.294
17238WAT     H251957   6.269   6.490   1.259
17239WAT      O51958   3.826   7.643   9.086
17239WAT     H151959   3.762   7.578   9.128
17239WAT     H251960   3.918   7.604   9.087
17240WAT      O51961   5.479   7.848   1.262
17240WAT     H151962   5.557   7.869   1.203
17240WAT     H251963   5.494   7.758   1.304
17241WAT      O51964   4.558   4.799   8.239
17241WAT     H151965   4.630   4.867   8.226
17241WAT     H251966   4.592   4.709   8.212
17242WAT      O51967   7.107   6.911   1.238
17242WAT     H151968   7.015   6.948   1.252
17242WAT     H251969   7.174   6.980   1.266
17243WAT      O51970   7.950   0.006   4.389
17243WAT     H151971   7.991  -0.081   4.358
17243WAT     H251972   8.018   0.079   4.381
17244WAT      O51973   1.240   8.656   4.954
17244WAT     H151974   1.286   8.652   4.865
17244WAT     H251975   1.156   8.602   4.951
17245WAT      O51976   0.351   2.374   5.746
17245WAT     H151977   0.296   2.293   5.767
17245WAT     H251978   0.383   2.369   5.652
17246WAT      O51979   2.624   9.497   3.381
17246WAT     H151980   2.688   9.486   3.305
17246WAT     H251981   2.535   9.459   3.354
17247WAT      O51982   8.773   8.679   1.790
17247WAT     H151983   8.775   8.767   1.837
17247WAT     H251984   8.857   8.667   1.738
17248WAT      O51985   8.380   2.916   7.161
17248WAT     H151986   8.384   3.012   7.189
17248WAT     H251987   8.455   2.866   7.205
17249WAT      O51988   9.559   9.213   0.936
17249WAT     H151989   9.621   9.292   0.932
17249WAT     H251990   9.466   9.243   0.914
17250WAT      O51991   6.998   3.136   7.395
17250WAT     H151992   7.041   3.071   7.332
17250WAT     H251993   6.948   3.086   7.465
17251WAT      O51994   0.657   1.917   1.523
17251WAT     H151995   0.697   1.982   1.588
17251WAT     H251996   0.594   1.857   1.571
17252WAT      O51997   1.046   4.596   9.133
17252WAT     H151998   0.991   4.671   9.095
17252WAT     H251999   1.006   4.509   9.105
17253WAT      O52000   9.321   7.750   3.142
17253WAT     H152001   9.288   7.742   3.236
17253WAT     H252002   9.402   7.693   3.130
17254WAT      O52003   8.785   3.833   1.455
17254WAT     H152004   8.754   3.806   1.546
17254WAT     H252005   8.877   3.797   1.439
17255WAT      O52006   0.531   8.460   8.073
17255WAT     H152007   0.462   8.532   8.076
17255WAT     H252008   0.498   8.380   8.124
17256WAT      O52009   2.248   1.167   8.543
17256WAT     H152010   2.165   1.167   8.488
17256WAT     H252011   2.229   1.126   8.632
17257WAT      O52012   2.928   9.350   8.582
17257WAT     H152013   2.966   9.258   8.591
17257WAT     H252014   2.956   9.389   8.494
17258WAT      O52015   2.203   6.254   7.457
17258WAT     H152016   2.267   6.330   7.443
17258WAT     H252017   2.232   6.200   7.536
17259WAT      O52018   6.623   3.731   5.136
17259WAT     H152019   6.652   3.637   5.119
17259WAT     H252020   6.640   3.786   5.054
17260WAT      O52021   6.586   9.272   6.323
17260WAT     H152022   6.607   9.174   6.317
17260WAT     H252023   6.578   9.298   6.419
17261WAT      O52024   6.748   8.848   3.216
17261WAT     H152025   6.826   8.851   3.279
17261WAT     H252026   6.716   8.753   3.208
17262WAT      O52027   2.254   9.038   8.328
17262WAT     H152028   2.165   9.075   8.302
17262WAT     H252029   2.245   8.986   8.413
17263WAT      O52030   5.392   9.248   2.423
17263WAT     H152031   5.369   9.173   2.361
17263WAT     H252032   5.345   9.332   2.393
17264WAT      O52033   7.045   3.966   3.896
17264WAT     H152034   7.013   4.060   3.911
17264WAT     H252035   7.029   3.913   3.979
17265WAT      O52036   9.857   3.642   0.155
17265WAT     H152037   9.856   3.732   0.197
17265WAT     H252038   9.940   3.633   0.099
17266WAT      O52039   8.565   7.634   1.001
17266WAT     H152040   8.536   7.717   0.953
17266WAT     H252041   8.625   7.581   0.942
17267WAT      O52042   2.975   4.661   0.669
17267WAT     H152043   2.913   4.606   0.725
17267WAT     H252044   2.927   4.743   0.638
17268WAT      O52045   7.441   1.479   8.847
17268WAT     H152046   7.486   1.564   8.873
17268WAT     H252047   7.386   1.494   8.765
17269WAT      O52048   7.161   6.162   7.125
17269WAT     H152049   7.163   6.209   7.037
17269WAT     H252050   7.242   6.185   7.178
17270WAT      O52051   9.530   4.420   3.220
17270WAT     H152052   9.472   4.342   3.247
17270WAT     H252053   9.624   4.389   3.208
17271WAT      O52054   9.301   4.190   7.998
17271WAT     H152055   9.233   4.181   8.071
17271WAT     H252056   9.271   4.140   7.918
17272WAT      O52057   4.919   3.392   7.458
17272WAT     H152058   4.896   3.485   7.487
17272WAT     H252059   5.018   3.378   7.467
17273WAT      O52060   9.545   1.632   7.839
17273WAT     H152061   9.489   1.576   7.777
17273WAT     H252062   9.541   1.593   7.931
17274WAT      O52063   5.713   1.385   2.405
17274WAT     H152064   5.794   1.331   2.423
17274WAT     H252065   5.648   1.374   2.481
17275WAT      O52066   5.357   8.514   1.051
17275WAT     H152067   5.346   8.441   0.984
17275WAT     H252068   5.449   8.551   1.045
17276WAT      O52069   3.617   7.220   1.851
17276WAT     H152070   3.609   7.245   1.754
17276WAT     H252071   3.669   7.135   1.859
17277WAT      O52072   2.127   3.332   0.429
17277WAT     H152073   2.083   3.246   0.401
17277WAT     H252074   2.199   3.311   0.495
17278WAT      O52075   9.777   2.514   2.331
17278WAT     H152076   9.790   2.453   2.409
17278WAT     H252077   9.680   2.521   2.309
17279WAT      O52078   5.907   0.463   7.132
17279WAT     H152079   5.836   0.532   7.118
17279WAT     H252080   5.904   0.396   7.058
17280WAT      O52081   5.228   9.079   3.666
17280WAT     H152082   5.265   9.141   3.735
17280WAT     H252083   5.152   9.027   3.705
17281WAT      O52084   3.260   3.898   1.980
17281WAT     H152085   3.272   3.804   1.950
17281WAT     H252086   3.243   3.899   2.079
17282WAT      O52087   7.275   2.937   0.151
17282WAT     H152088   7.263   2.964   0.056
17282WAT     H252089   7.198   2.879   0.178
17283WAT      O52090   2.169   2.834   5.823
17283WAT     H152091   2.228   2.826   5.903
17283WAT     H252092   2.224   2.820   5.740
17284WAT      O52093   2.662   5.307   6.581
17284WAT     H152094   2.756   5.291   6.609
17284WAT     H252095   2.619   5.221   6.555
17285WAT      O52096   3.326   6.781   5.314
17285WAT     H152097   3.400   6.781   5.247
17285WAT     H252098   3.363   6.803   5.404
17286WAT      O52099   3.425   4.579   1.456
17286WAT     H152100   3.389   4.672   1.448
17286WAT     H252101   3.484   4.559   1.378
17287WAT      O52102   0.737   1.428   4.358
17287WAT     H152103   0.705   1.389   4.445
17287WAT     H252104   0.774   1.520   4.375
17288WAT      O52105   8.281   9.615   8.760
17288WAT     H152106   8.339   9.535   8.745
17288WAT     H252107   8.337   9.693   8.788
17289WAT      O52108   5.033   5.638   3.190
17289WAT     H152109   5.110   5.690   3.155
17289WAT     H252110   5.058   5.542   3.198
17290WAT      O52111   9.135   2.248   4.597
17290WAT     H152112   9.166   2.327   4.544
17290WAT     H252113   9.067   2.197   4.544
17291WAT      O52114   7.234   6.286   8.527
17291WAT     H152115   7.289   6.317   8.450
17291WAT     H252116   7.275   6.205   8.568
17292WAT      O52117   7.798   6.193   6.117
17292WAT     H152118   7.833   6.156   6.203
17292WAT     H252119   7.854   6.160   6.041
17293WAT      O52120   4.787   6.787   7.997
17293WAT     H152121   4.856   6.794   8.069
17293WAT     H252122   4.832   6.790   7.907
17294WAT      O52123   3.416   5.444   2.897
17294WAT     H152124   3.496   5.455   2.957
17294WAT     H252125   3.412   5.519   2.831
17295WAT      O52126   2.530   0.985   0.439
17295WAT     H152127   2.612   0.983   0.497
17295WAT     H252128   2.554   1.019   0.348
17296WAT      O52129   8.958   3.271   4.841
17296WAT     H152130   8.887   3.327   4.797
17296WAT     H252131   8.930   3.175   4.838
17297WAT      O52132   5.230   6.768   1.987
17297WAT     H152133   5.167   6.836   1.951
17297WAT     H252134   5.182   6.708   2.050
17298WAT      O52135   4.735   4.670   8.568
17298WAT     H152136   4.748   4.767   8.591
17298WAT     H252137   4.641   4.656   8.536
17299WAT      O52138   4.889   8.775   1.382
17299WAT     H152139   4.818   8.844   1.395
17299WAT     H252140   4.919   8.775   1.287
17300WAT      O52141   4.028   9.830   7.924
17300WAT     H152142   3.949   9.828   7.985
17300WAT     H252143   4.000   9.806   7.831
17301WAT      O52144   2.979   7.990   7.271
17301WAT     H152145   2.921   7.909   7.271
17301WAT     H252146   2.929   8.067   7.309
17302WAT      O52147   5.415   8.915   9.622
17302WAT     H152148   5.342   8.982   9.615
17302WAT     H252149   5.386   8.840   9.681
17303WAT      O52150   4.027   3.211   3.616
17303WAT     H152151   3.951   3.269   3.644
17303WAT     H252152   4.052   3.150   3.691
17304WAT      O52153   0.449   9.083   0.332
17304WAT     H152154   0.433   9.013   0.262
17304WAT     H252155   0.361   9.109   0.373
17305WAT      O52156   5.846   7.686   4.898
17305WAT     H152157   5.859   7.732   4.985
17305WAT     H252158   5.910   7.610   4.889
17306WAT      O52159   0.655   5.444   6.603
17306WAT     H152160   0.732   5.497   6.638
17306WAT     H252161   0.659   5.351   6.640
17307WAT      O52162   4.243   2.341   5.105
17307WAT     H152163   4.328   2.372   5.063
17307WAT     H252164   4.215   2.407   5.175
17308WAT      O52165   7.524   0.045   1.883
17308WAT     H152166   7.521   0.133   1.834
17308WAT     H252167   7.597  -0.011   1.845
17309WAT      O52168   9.762   1.027   8.292
17309WAT     H152169   9.748   1.091   8.216
17309WAT     H252170   9.690   0.958   8.291
17310WAT      O52171   5.367   7.107   2.704
17310WAT     H152172   5.399   7.146   2.790
17310WAT     H252173   5.267   7.109   2.702
17311WAT      O52174   7.912   2.160   8.136
17311WAT     H152175   7.982   2.230   8.124
17311WAT     H252176   7.940   2.097   8.208
17312WAT      O52177   0.582   7.693   5.675
17312WAT     H152178   0.624   7.688   5.584
17312WAT     H252179   0.632   7.633   5.738
17313WAT      O52180   8.793   7.084   1.758
17313WAT     H152181   8.869   7.100   1.694
17313WAT     H252182   8.800   7.147   1.835
17314WAT      O52183   5.377   1.716   1.371
17314WAT     H152184   5.412   1.644   1.311
17314WAT     H252185   5.287   1.745   1.339
17315WAT      O52186   5.828   5.528   3.360
17315WAT     H152187   5.766   5.503   3.286
17315WAT     H252188   5.806   5.475   3.442
17316WAT      O52189   3.780   0.138   4.207
17316WAT     H152190   3.851   0.105   4.269
17316WAT     H252191   3.816   0.215   4.154
17317WAT      O52192   4.525   0.839   8.179
17317WAT     H152193   4.563   0.754   8.142
17317WAT     H252194   4.523   0.909   8.108
17318WAT      O52195   1.568   6.165   2.240
17318WAT     H152196   1.520   6.122   2.316
17318WAT     H252197   1.591   6.097   2.171
17319WAT      O52198   3.226   5.197   5.397
17319WAT     H152199   3.297   5.186   5.466
17319WAT     H252200   3.151   5.134   5.416
17320WAT      O52201   2.757   4.580   9.851
17320WAT     H152202   2.777   4.565   9.754
17320WAT     H252203   2.689   4.514   9.881
17321WAT      O52204   9.095   4.237   3.369
17321WAT     H152205   9.057   4.170   3.305
17321WAT     H252206   9.195   4.230   3.369
17322WAT      O52207   9.082   0.051   0.818
17322WAT     H152208   9.004   0.057   0.756
17322WAT     H252209   9.167   0.066   0.767
17323WAT      O52210   8.810   0.593   2.409
17323WAT     H152211   8.773   0.501   2.420
17323WAT     H252212   8.880   0.609   2.478
17324WAT      O52213   0.722   0.349   6.041
17324WAT     H152214   0.757   0.290   6.114
17324WAT     H252215   0.678   0.430   6.081
17325WAT      O52216   9.769   2.254   8.693
17325WAT     H152217   9.862   2.233   8.663
17325WAT     H252218   9.768   2.343   8.739
17326WAT      O52219   7.482   3.710   2.545
17326WAT     H152220   7.428   3.679   2.466
17326WAT     H252221   7.448   3.666   2.627
17327WAT      O52222   7.499   9.386   4.031
17327WAT     H152223   7.414   9.340   4.004
17327WAT     H252224   7.543   9.333   4.104
17328WAT      O52225   2.508   7.224   0.951
17328WAT     H152226   2.434   7.234   0.885
17328WAT     H252227   2.577   7.161   0.914
17329WAT      O52228   8.152   2.534   8.975
17329WAT     H152229   8.072   2.591   8.954
17329WAT     H252230   8.195   2.567   9.059
17330WAT      O52231   2.163   7.761   1.200
17330WAT     H152232   2.199   7.853   1.186
17330WAT     H252233   2.135   7.749   1.295
17331WAT      O52234   6.673   0.362   2.314
17331WAT     H152235   6.737   0.397   2.382
17331WAT     H252236   6.722   0.339   2.230
17332WAT      O52237   2.393   7.965   4.465
17332WAT     H152238   2.321   8.017   4.512
17332WAT     H252239   2.478   7.971   4.518
17333WAT      O52240   5.052   5.591   2.676
17333WAT     H152241   5.135   5.604   2.730
17333WAT     H252242   5.077   5.555   2.586
17334WAT      O52243   9.453   6.692   2.108
17334WAT     H152244   9.412   6.778   2.138
17334WAT     H252245   9.385   6.618   2.116
17335WAT      O52246   6.859   7.703   4.145
17335WAT     H152247   6.883   7.753   4.228
17335WAT     H252248   6.919   7.731   4.071
17336WAT      O52249   1.984   2.330   1.473
17336WAT     H152250   1.942   2.288   1.553
17336WAT     H252251   1.982   2.265   1.396
17337WAT      O52252   4.452   1.073   5.854
17337WAT     H152253   4.405   1.082   5.767
17337WAT     H252254   4.426   0.987   5.898
17338WAT      O52255   1.377   0.932   6.459
17338WAT     H152256   1.465   0.923   6.412
17338WAT     H252257   1.350   0.845   6.499
17339WAT      O52258   1.889   5.593   3.633
17339WAT     H152259   1.870   5.630   3.542
17339WAT     H252260   1.954   5.518   3.625
17340WAT      O52261   5.604   2.396   0.025
17340WAT     H152262   5.539   2.471   0.029
17340WAT     H252263   5.679   2.419  -0.037
17341WAT      O52264   5.885   2.026   5.430
17341WAT     H152265   5.905   2.068   5.519
17341WAT     H252266   5.856   1.931   5.444
17342WAT      O52267   2.252   6.594   3.279
17342WAT     H152268   2.317   6.670   3.269
17342WAT     H252269   2.159   6.629   3.270
17343WAT      O52270   2.943   4.836   0.270
17343WAT     H152271   3.038   4.804   0.268
17343WAT     H252272   2.915   4.849   0.365
17344WAT      O52273   4.740   8.249   1.819
17344WAT     H152274   4.791   8.173   1.778
17344WAT     H252275   4.717   8.227   1.914
17345WAT      O52276   0.896   5.170   4.276
17345WAT     H152277   0.826   5.190   4.208
17345WAT     H252278   0.928   5.255   4.317
17346WAT      O52279   8.766   4.281   7.271
17346WAT     H152280   8.798   4.374   7.255
17346WAT     H252281   8.814   4.242   7.349
17347WAT      O52282   6.640   2.598   4.154
17347WAT     H152283   6.674   2.523   4.098
17347WAT     H252284   6.716   2.638   4.206
17348WAT      O52285   6.556   5.792   3.709
17348WAT     H152286   6.535   5.843   3.626
17348WAT     H252287   6.504   5.831   3.786
17349WAT      O52288   4.746   3.462   4.153
17349WAT     H152289   4.808   3.537   4.177
17349WAT     H252290   4.761   3.437   4.058
17350WAT      O52291   7.785   1.494   6.060
17350WAT     H152292   7.745   1.419   6.007
17350WAT     H252293   7.828   1.458   6.142
17351WAT      O52294   4.142   8.766   9.307
17351WAT     H152295   4.187   8.711   9.237
17351WAT     H252296   4.150   8.863   9.284
17352WAT      O52297   2.827   6.616   1.138
17352WAT     H152298   2.739   6.572   1.122
17352WAT     H252299   2.827   6.660   1.228
17353WAT      O52300   3.452   6.038   1.021
17353WAT     H152301   3.475   6.130   0.988
17353WAT     H252302   3.395   5.992   0.953
17354WAT      O52303   1.266   7.605   9.666
17354WAT     H152304   1.302   7.661   9.740
17354WAT     H252305   1.237   7.664   9.591
17355WAT      O52306   2.779   1.865   8.354
17355WAT     H152307   2.752   1.815   8.272
17355WAT     H252308   2.747   1.816   8.435
17356WAT      O52309   8.046   8.977   4.759
17356WAT     H152310   7.946   8.985   4.758
17356WAT     H252311   8.085   9.044   4.696
17357WAT      O52312   9.432   0.890   4.656
17357WAT     H152313   9.528   0.880   4.633
17357WAT     H252314   9.423   0.910   4.754
17358WAT      O52315   3.154   0.929   2.530
17358WAT     H152316   3.096   0.945   2.451
17358WAT     H252317   3.104   0.874   2.597
17359WAT      O52318   0.056   4.148   3.750
17359WAT     H152319   0.074   4.059   3.793
17359WAT     H252320   0.025   4.133   3.656
17360WAT      O52321   1.120   8.970   0.754
17360WAT     H152322   1.080   9.059   0.779
17360WAT     H252323   1.055   8.921   0.694
17361WAT      O52324   2.403   4.454   0.507
17361WAT     H152325   2.384   4.381   0.572
17361WAT     H252326   2.337   4.528   0.518
17362WAT      O52327   6.120   6.201   7.757
17362WAT     H152328   6.087   6.147   7.680
17362WAT     H252329   6.145   6.293   7.725
17363WAT      O52330   5.070   4.938   6.349
17363WAT     H152331   5.136   4.866   6.370
17363WAT     H252332   4.978   4.909   6.377
17364WAT      O52333   7.641   3.734   2.844
17364WAT     H152334   7.551   3.696   2.820
17364WAT     H252335   7.640   3.833   2.829
17365WAT      O52336   7.534   9.072   9.202
17365WAT     H152337   7.542   9.016   9.120
17365WAT     H252338   7.538   9.168   9.177
17366WAT      O52339   4.258   2.945   2.683
17366WAT     H152340   4.325   2.883   2.722
17366WAT     H252341   4.304   3.029   2.654
17367WAT      O52342   7.455   1.889   7.998
17367WAT     H152343   7.488   1.969   8.048
17367WAT     H252344   7.367   1.860   8.036
17368WAT      O52345   4.821   3.933   0.111
17368WAT     H152346   4.744   3.872   0.093
17368WAT     H252347   4.864   3.958   0.024
17369WAT      O52348   6.906   2.659   9.244
17369WAT     H152349   6.887   2.573   9.292
17369WAT     H252350   6.979   2.708   9.291
17370WAT      O52351   5.600   1.201   8.992
17370WAT     H152352   5.500   1.198   8.988
17370WAT     H252353   5.631   1.182   9.085
17371WAT      O52354   7.184   8.157   6.413
17371WAT     H152355   7.211   8.193   6.502
17371WAT     H252356   7.261   8.110   6.371
17372WAT      O52357   9.758   7.506   6.979
17372WAT     H152358   9.711   7.431   6.931
17372WAT     H252359   9.854   7.509   6.949
17373WAT      O52360   0.523   8.882   5.158
17373WAT     H152361   0.501   8.847   5.067
17373WAT     H252362   0.520   8.807   5.224
17374WAT      O52363   2.457   4.686   8.531
17374WAT     H152364   2.543   4.635   8.529
17374WAT     H252365   2.473   4.776   8.573
17375WAT      O52366   3.398   9.055   1.385
17375WAT     H152367   3.426   9.139   1.431
17375WAT     H252368   3.308   9.069   1.343
17376WAT      O52369   7.286   9.206   3.176
17376WAT     H152370   7.236   9.156   3.104
17376WAT     H252371   7.220   9.247   3.239
17377WAT      O52372   1.440   9.080   2.670
17377WAT     H152373   1.451   9.176   2.696
17377WAT     H252374   1.470   9.067   2.575
17378WAT      O52375   9.169   1.277   6.676
17378WAT     H152376   9.225   1.210   6.628
17378WAT     H252377   9.211   1.368   6.667
17379WAT      O52378   9.137   1.553   7.839
17379WAT     H152379   9.073   1.484   7.807
17379WAT     H252380   9.229   1.532   7.805
17380WAT      O52381   7.133   5.429   1.743
17380WAT     H152382   7.202   5.427   1.815
17380WAT     H252383   7.045   5.402   1.780
17381WAT      O52384   3.003   5.145   3.871
17381WAT     H152385   3.045   5.094   3.795
17381WAT     H252386   2.904   5.137   3.866
17382WAT      O52387   8.123   2.487   2.690
17382WAT     H152388   8.062   2.448   2.759
17382WAT     H252389   8.104   2.584   2.680
17383WAT      O52390   3.262   2.546   9.823
17383WAT     H152391   3.306   2.577   9.738
17383WAT     H252392   3.182   2.602   9.841
17384WAT      O52393   1.458   1.917   3.780
17384WAT     H152394   1.525   1.901   3.852
17384WAT     H252395   1.445   2.016   3.767
17385WAT      O52396   4.643   7.941   5.380
17385WAT     H152397   4.682   7.887   5.306
17385WAT     H252398   4.582   8.011   5.341
17386WAT      O52399   1.628   2.213   4.380
17386WAT     H152400   1.581   2.300   4.393
17386WAT     H252401   1.642   2.197   4.283
17387WAT      O52402   5.998   7.744   4.159
17387WAT     H152403   5.898   7.741   4.161
17387WAT     H252404   6.035   7.675   4.221
17388WAT      O52405   8.887   5.089   6.139
17388WAT     H152406   8.850   5.127   6.054
17388WAT     H252407   8.824   5.020   6.174
17389WAT      O52408   6.964   5.579   4.118
17389WAT     H152409   6.937   5.541   4.207
17389WAT     H252410   7.013   5.664   4.132
17390WAT      O52411   0.324   2.766   3.289
17390WAT     H152412   0.378   2.682   3.295
17390WAT     H252413   0.382   2.845   3.307
17391WAT      O52414   6.269   7.809   6.594
17391WAT     H152415   6.258   7.892   6.540
17391WAT     H252416   6.188   7.795   6.650
17392WAT      O52417   1.836   7.952   6.665
17392WAT     H152418   1.881   7.865   6.643
17392WAT     H252419   1.872   7.987   6.751
17393WAT      O52420   6.508   3.791   8.602
17393WAT     H152421   6.436   3.785   8.533
17393WAT     H252422   6.521   3.887   8.629
17394WAT      O52423   5.710   2.701   9.587
17394WAT     H152424   5.730   2.614   9.631
17394WAT     H252425   5.768   2.773   9.625
17395WAT      O52426   0.956   2.546   3.122
17395WAT     H152427   1.050   2.560   3.089
17395WAT     H252428   0.924   2.630   3.167
17396WAT      O52429   0.800   8.729   1.989
17396WAT     H152430   0.727   8.705   1.926
17396WAT     H252431   0.855   8.804   1.952
17397WAT      O52432   4.392   5.110   0.654
17397WAT     H152433   4.309   5.137   0.703
17397WAT     H252434   4.386   5.138   0.559
17398WAT      O52435   2.817   1.719   3.537
17398WAT     H152436   2.917   1.726   3.532
17398WAT     H252437   2.790   1.623   3.543
17399WAT      O52438   4.877   0.200   2.452
17399WAT     H152439   4.828   0.284   2.474
17399WAT     H252440   4.837   0.159   2.370
17400WAT      O52441   9.546   2.384   6.037
17400WAT     H152442   9.637   2.398   5.997
17400WAT     H252443   9.494   2.322   5.978
17401WAT      O52444   2.017   3.808   2.059
17401WAT     H152445   2.012   3.879   1.989
17401WAT     H252446   2.092   3.829   2.122
17402WAT      O52447   6.877   9.182   1.373
17402WAT     H152448   6.904   9.229   1.457
17402WAT     H252449   6.920   9.091   1.370
17403WAT      O52450   0.394   4.641   4.110
17403WAT     H152451   0.330   4.611   4.181
17403WAT     H252452   0.469   4.576   4.102
17404WAT      O52453   8.178   8.090   5.990
17404WAT     H152454   8.093   8.045   6.019
17404WAT     H252455   8.158   8.184   5.964
17405WAT      O52456   1.377   0.810   8.232
17405WAT     H152457   1.393   0.734   8.169
17405WAT     H252458   1.281   0.837   8.229
17406WAT      O52459   0.749   0.198   8.352
17406WAT     H152460   0.788   0.187   8.443
17406WAT     H252461   0.734   0.108   8.311
17407WAT      O52462   0.950   6.686   2.703
17407WAT     H152463   0.929   6.673   2.800
17407WAT     H252464   0.942   6.783   2.680
17408WAT      O52465   9.003   5.164   6.863
17408WAT     H152466   9.073   5.228   6.896
17408WAT     H252467   9.001   5.165   6.763
17409WAT      O52468   7.624   2.821   5.679
17409WAT     H152469   7.554   2.785   5.741
17409WAT     H252470   7.662   2.747   5.624
17410WAT      O52471   0.954   8.028   3.487
17410WAT     H152472   0.906   8.082   3.418
17410WAT     H252473   0.969   7.935   3.451
17411WAT      O52474   1.785   1.246   8.155
17411WAT     H152475   1.759   1.200   8.070
17411WAT     H252476   1.727   1.212   8.230
17412WAT      O52477   6.591   2.300   8.473
17412WAT     H152478   6.607   2.396   8.491
17412WAT     H252479   6.494   2.286   8.450
17413WAT      O52480   9.454   7.874   7.784
17413WAT     H152481   9.472   7.814   7.706
17413WAT     H252482   9.502   7.961   7.770
17414WAT      O52483   1.766   0.091   1.146
17414WAT     H152484   1.786   0.087   1.244
17414WAT     H252485   1.685   0.036   1.126
17415WAT      O52486   8.615   8.244   6.674
17415WAT     H152487   8.694   8.266   6.731
17415WAT     H252488   8.538   8.303   6.699
17416WAT      O52489   4.778   5.112   2.487
17416WAT     H152490   4.871   5.110   2.450
17416WAT     H252491   4.712   5.109   2.412
17417WAT      O52492   8.660   6.876   1.460
17417WAT     H152493   8.594   6.814   1.502
17417WAT     H252494   8.748   6.869   1.507
17418WAT      O52495   2.621   4.997   5.094
17418WAT     H152496   2.615   5.065   5.021
17418WAT     H252497   2.571   4.915   5.067
17419WAT      O52498   4.896   1.789   6.864
17419WAT     H152499   4.990   1.756   6.852
17419WAT     H252500   4.837   1.711   6.888
17420WAT      O52501   3.547   1.534   1.843
17420WAT     H152502   3.583   1.453   1.888
17420WAT     H252503   3.540   1.609   1.909
17421WAT      O52504   1.219   9.344   8.167
17421WAT     H152505   1.255   9.395   8.089
17421WAT     H252506   1.193   9.409   8.240
17422WAT      O52507   1.306   3.506   2.740
17422WAT     H152508   1.318   3.577   2.809
17422WAT     H252509   1.338   3.418   2.777
17423WAT      O52510   0.148   5.373   8.641
17423WAT     H152511   0.204   5.454   8.656
17423WAT     H252512   0.076   5.369   8.710
17424WAT      O52513   9.582   3.432   0.852
17424WAT     H152514   9.660   3.431   0.789
17424WAT     H252515   9.497   3.437   0.799
17425WAT      O52516   5.112   8.127   3.129
17425WAT     H152517   5.074   8.190   3.061
17425WAT     H252518   5.049   8.051   3.143
17426WAT      O52519   6.231   6.745   0.594
17426WAT     H152520   6.146   6.742   0.647
17426WAT     H252521   6.212   6.786   0.505
17427WAT      O52522   9.267   2.608   2.783
17427WAT     H152523   9.217   2.522   2.797
17427WAT     H252524   9.239   2.650   2.697
17428WAT      O52525   8.995   5.442   5.521
17428WAT     H152526   9.062   5.375   5.488
17428WAT     H252527   8.919   5.393   5.564
17429WAT      O52528   7.339   2.479   7.490
17429WAT     H152529   7.260   2.537   7.510
17429WAT     H252530   7.416   2.507   7.547
17430WAT      O52531   7.284   1.814   0.357
17430WAT     H152532   7.371   1.830   0.310
17430WAT     H252533   7.213   1.796   0.289
17431WAT      O52534   2.755   2.218   4.419
17431WAT     H152535   2.763   2.275   4.337
17431WAT     H252536   2.829   2.240   4.482
17432WAT      O52537   7.547   0.413   0.087
17432WAT     H152538   7.547   0.440  -0.009
17432WAT     H252539   7.638   0.426   0.125
17433WAT      O52540   8.452   0.831   8.329
17433WAT     H152541   8.451   0.731   8.327
17433WAT     H252542   8.470   0.861   8.423
17434WAT      O52543   5.370   4.361   6.166
17434WAT     H152544   5.338   4.296   6.235
17434WAT     H252545   5.305   4.362   6.090
17435WAT      O52546   1.772   4.765   6.304
17435WAT     H152547   1.824   4.767   6.219
17435WAT     H252548   1.682   4.807   6.290
17436WAT      O52549   7.888   6.733   3.171
17436WAT     H152550   7.835   6.812   3.203
17436WAT     H252551   7.981   6.739   3.207
17437WAT      O52552   1.984   0.873   6.164
17437WAT     H152553   1.977   0.785   6.212
17437WAT     H252554   1.969   0.858   6.066
17438WAT      O52555   5.183   7.444   9.749
17438WAT     H152556   5.219   7.527   9.707
17438WAT     H252557   5.259   7.383   9.773
17439WAT      O52558   8.698   8.299   2.095
17439WAT     H152559   8.752   8.281   2.012
17439WAT     H252560   8.734   8.246   2.171
17440WAT      O52561   1.689   0.576   8.292
17440WAT     H152562   1.673   0.634   8.212
17440WAT     H252563   1.654   0.622   8.374
17441WAT      O52564   9.044   4.299   6.809
17441WAT     H152565   9.023   4.239   6.732
17441WAT     H252566   9.082   4.384   6.775
17442WAT      O52567   1.165   4.168   4.247
17442WAT     H152568   1.151   4.266   4.235
17442WAT     H252569   1.152   4.121   4.160
17443WAT      O52570   5.902   6.895   0.796
17443WAT     H152571   5.824   6.879   0.856
17443WAT     H252572   5.948   6.808   0.778
17444WAT      O52573   8.073   0.216   9.675
17444WAT     H152574   8.031   0.305   9.657
17444WAT     H252575   8.029   0.173   9.754
17445WAT      O52576   3.163   4.852   7.425
17445WAT     H152577   3.217   4.771   7.402
17445WAT     H252578   3.222   4.922   7.464
17446WAT      O52579   1.618   6.767   9.310
17446WAT     H152580   1.698   6.732   9.261
17446WAT     H252581   1.648   6.820   9.389
17447WAT      O52582   9.267   4.334   5.129
17447WAT     H152583   9.340   4.347   5.062
17447WAT     H252584   9.278   4.245   5.173
17448WAT      O52585   7.532   8.098   5.912
17448WAT     H152586   7.514   8.000   5.918
17448WAT     H252587   7.568   8.131   5.999
17449WAT      O52588   9.442   3.536   1.214
17449WAT     H152589   9.502   3.567   1.140
17449WAT     H252590   9.469   3.444   1.242
17450WAT      O52591   3.393   4.508   6.163
17450WAT     H152592   3.345   4.449   6.099
17450WAT     H252593   3.327   4.554   6.222
17451WAT      O52594   7.579   0.837   2.799
17451WAT     H152595   7.671   0.851   2.761
17451WAT     H252596   7.511   0.855   2.727
17452WAT      O52597   2.327   4.740   1.352
17452WAT     H152598   2.320   4.777   1.259
17452WAT     H252599   2.315   4.815   1.417
17453WAT      O52600   2.634   6.822   9.051
17453WAT     H152601   2.583   6.876   9.118
17453WAT     H252602   2.667   6.738   9.093
17454WAT      O52603   4.491   5.986   8.862
17454WAT     H152604   4.503   6.068   8.918
17454WAT     H252605   4.479   5.907   8.921
17455WAT      O52606   7.105   5.829   8.349
17455WAT     H152607   7.046   5.856   8.425
17455WAT     H252608   7.091   5.892   8.272
17456WAT      O52609   3.843   3.098   7.009
17456WAT     H152610   3.938   3.106   6.977
17456WAT     H252611   3.842   3.069   7.104
17457WAT      O52612   5.147   4.549   7.189
17457WAT     H152613   5.048   4.542   7.182
17457WAT     H252614   5.176   4.642   7.165
17458WAT      O52615   1.731   2.962   9.763
17458WAT     H152616   1.800   2.925   9.701
17458WAT     H252617   1.766   2.962   9.857
17459WAT      O52618   6.640   7.976   5.611
17459WAT     H152619   6.561   8.030   5.584
17459WAT     H252620   6.656   7.903   5.545
17460WAT      O52621   6.361   0.081   3.375
17460WAT     H152622   6.275   0.064   3.327
17460WAT     H252623   6.424   0.005   3.357
17461WAT      O52624   8.056   8.101   1.044
17461WAT     H152625   8.123   8.164   1.082
17461WAT     H252626   8.078   8.084   0.947
17462WAT      O52627   7.073   7.340   9.129
17462WAT     H152628   7.039   7.305   9.217
17462WAT     H252629   7.059   7.438   9.125
17463WAT      O52630   0.055   6.446   8.197
17463WAT     H152631  -0.037   6.452   8.158
17463WAT     H252632   0.047   6.436   8.296
17464WAT      O52633   8.635   8.966   7.568
17464WAT     H152634   8.590   9.022   7.499
17464WAT     H252635   8.588   8.977   7.656
17465WAT      O52636   8.215   0.411   5.716
17465WAT     H152637   8.213   0.375   5.809
17465WAT     H252638   8.310   0.418   5.685
17466WAT      O52639   1.484   3.479   0.815
17466WAT     H152640   1.510   3.385   0.836
17466WAT     H252641   1.387   3.492   0.835
17467WAT      O52642   1.037   6.141   4.451
17467WAT     H152643   1.084   6.229   4.441
17467WAT     H252644   1.071   6.095   4.532
17468WAT      O52645   9.084   6.448   3.993
17468WAT     H152646   9.028   6.439   4.075
17468WAT     H252647   9.123   6.540   3.989
17469WAT      O52648   9.482   0.886   1.368
17469WAT     H152649   9.518   0.823   1.299
17469WAT     H252650   9.388   0.859   1.392
17470WAT      O52651   9.429   0.144   9.664
17470WAT     H152652   9.387   0.118   9.751
17470WAT     H252653   9.518   0.100   9.655
17471WAT      O52654   5.202   5.576   1.755
17471WAT     H152655   5.284   5.627   1.783
17471WAT     H252656   5.226   5.481   1.738
17472WAT      O52657   1.182   2.625   3.017
17472WAT     H152658   1.232   2.693   2.964
17472WAT     H252659   1.185   2.537   2.969
17473WAT      O52660   1.479   3.541   7.228
17473WAT     H152661   1.437   3.524   7.139
17473WAT     H252662   1.577   3.554   7.217
17474WAT      O52663   3.532   8.271   6.495
17474WAT     H152664   3.582   8.271   6.408
17474WAT     H252665   3.552   8.187   6.544
17475WAT      O52666   0.370   4.357   4.345
17475WAT     H152667   0.343   4.269   4.385
17475WAT     H252668   0.293   4.394   4.293
17476WAT      O52669   4.643   8.544   6.456
17476WAT     H152670   4.660   8.464   6.399
17476WAT     H252671   4.678   8.626   6.410
17477WAT      O52672   6.297   5.999   5.530
17477WAT     H152673   6.239   6.013   5.449
17477WAT     H252674   6.391   6.023   5.507
17478WAT      O52675   6.457   1.857   2.008
17478WAT     H152676   6.394   1.926   2.044
17478WAT     H252677   6.410   1.799   1.943
17479WAT      O52678   1.928   9.771   3.920
17479WAT     H152679   1.865   9.702   3.955
17479WAT     H252680   1.891   9.810   3.835
17480WAT      O52681   8.181   9.474   1.777
17480WAT     H152682   8.117   9.421   1.833
17480WAT     H252683   8.201   9.423   1.693
17481WAT      O52684   3.292   2.977   9.187
17481WAT     H152685   3.355   3.012   9.118
17481WAT     H252686   3.343   2.951   9.269
17482WAT      O52687   8.657   6.024   9.280
17482WAT     H152688   8.655   5.985   9.372
17482WAT     H252689   8.569   6.008   9.235
17483WAT      O52690   1.458   8.948   6.162
17483WAT     H152691   1.495   9.040   6.175
17483WAT     H252692   1.359   8.952   6.154
17484WAT      O52693   1.250   4.339   9.444
17484WAT     H152694   1.251   4.251   9.492
17484WAT     H252695   1.317   4.400   9.485
17485WAT      O52696   0.479   3.079   6.125
17485WAT     H152697   0.538   3.145   6.079
17485WAT     H252698   0.522   2.988   6.123
17486WAT      O52699   4.929   2.326   0.133
17486WAT     H152700   4.853   2.286   0.183
17486WAT     H252701   4.970   2.256   0.074
17487WAT      O52702   0.738   1.583   5.108
17487WAT     H152703   0.833   1.611   5.105
17487WAT     H252704   0.719   1.538   5.195
17488WAT      O52705   8.163   9.801   5.266
17488WAT     H152706   8.200   9.727   5.210
17488WAT     H252707   8.084   9.841   5.220
17489WAT      O52708   3.740   1.575   7.012
17489WAT     H152709   3.757   1.547   6.918
17489WAT     H252710   3.642   1.583   7.027
17490WAT      O52711   6.394   3.166   1.454
17490WAT     H152712   6.371   3.262   1.439
17490WAT     H252713   6.324   3.108   1.413
17491WAT      O52714   3.265   2.144   8.691
17491WAT     H152715   3.233   2.141   8.596
17491WAT     H252716   3.329   2.220   8.702
17492WAT      O52717   4.864   1.299   7.494
17492WAT     H152718   4.837   1.391   7.522
17492WAT     H252719   4.918   1.257   7.566
17493WAT      O52720   5.765   2.044   6.203
17493WAT     H152721   5.767   1.968   6.138
17493WAT     H252722   5.678   2.092   6.195
17494WAT      O52723   3.487   7.226   0.847
17494WAT     H152724   3.477   7.306   0.905
17494WAT     H252725   3.551   7.247   0.772
17495WAT      O52726   8.147   5.507   7.379
17495WAT     H152727   8.055   5.484   7.411
17495WAT     H252728   8.150   5.500   7.279
17496WAT      O52729   4.691   7.885   9.299
17496WAT     H152730   4.671   7.946   9.223
17496WAT     H252731   4.678   7.934   9.386
17497WAT      O52732   0.358   9.560   8.880
17497WAT     H152733   0.279   9.586   8.935
17497WAT     H252734   0.345   9.467   8.844
17498WAT      O52735   7.463   5.391   9.232
17498WAT     H152736   7.428   5.393   9.139
17498WAT     H252737   7.542   5.453   9.240
17499WAT      O52738   2.750   0.401   8.122
17499WAT     H152739   2.828   0.343   8.098
17499WAT     H252740   2.665   0.350   8.107
17500WAT      O52741   5.722   5.996   1.768
17500WAT     H152742   5.799   5.959   1.819
17500WAT     H252743   5.752   6.019   1.675
17501WAT      O52744   8.556   5.086   8.659
17501WAT     H152745   8.517   4.995   8.664
17501WAT     H252746   8.513   5.145   8.727
17502WAT      O52747   3.388   3.845   8.725
17502WAT     H152748   3.426   3.809   8.640
17502WAT     H252749   3.417   3.939   8.738
17503WAT      O52750   0.556   1.808   7.355
17503WAT     H152751   0.561   1.865   7.436
17503WAT     H252752   0.636   1.747   7.352
17504WAT      O52753   4.111   8.590   1.375
17504WAT     H152754   4.125   8.491   1.375
17504WAT     H252755   4.131   8.627   1.285
17505WAT      O52756   9.791   8.405   8.211
17505WAT     H152757   9.845   8.321   8.221
17505WAT     H252758   9.694   8.382   8.214
17506WAT      O52759   1.281   1.029   8.725
17506WAT     H152760   1.290   0.985   8.636
17506WAT     H252761   1.297   1.127   8.716
17507WAT      O52762   7.538   3.101   1.819
17507WAT     H152763   7.529   3.045   1.737
17507WAT     H252764   7.511   3.047   1.899
17508WAT      O52765   8.986   1.358   4.897
17508WAT     H152766   8.998   1.363   4.797
17508WAT     H252767   9.002   1.264   4.928
17509WAT      O52768   0.892   0.101   8.592
17509WAT     H152769   0.852   0.019   8.634
17509WAT     H252770   0.883   0.178   8.654
17510WAT      O52771   3.217   3.677   0.983
17510WAT     H152772   3.242   3.688   0.887
17510WAT     H252773   3.203   3.580   1.004
17511WAT      O52774   1.638   3.059   4.652
17511WAT     H152775   1.684   3.014   4.575
17511WAT     H252776   1.679   3.149   4.667
17512WAT      O52777   7.775   5.340   4.469
17512WAT     H152778   7.762   5.389   4.383
17512WAT     H252779   7.696   5.282   4.486
17513WAT      O52780   0.670   0.848   9.303
17513WAT     H152781   0.574   0.873   9.314
17513WAT     H252782   0.706   0.888   9.218
17514WAT      O52783   7.509   1.492   4.779
17514WAT     H152784   7.538   1.552   4.854
17514WAT     H252785   7.587   1.439   4.746
17515WAT      O52786   2.586   8.331   0.657
17515WAT     H152787   2.618   8.268   0.728
17515WAT     H252788   2.563   8.279   0.575
17516WAT      O52789   3.988   7.444   7.330
17516WAT     H152790   3.918   7.381   7.364
17516WAT     H252791   3.994   7.523   7.391
17517WAT      O52792   4.399   0.302   1.273
17517WAT     H152793   4.422   0.221   1.327
17517WAT     H252794   4.325   0.353   1.318
17518WAT      O52795   0.684   2.078   6.369
17518WAT     H152796   0.651   2.048   6.280
17518WAT     H252797   0.678   2.002   6.434
17519WAT      O52798   3.341   3.355   7.824
17519WAT     H152799   3.278   3.370   7.900
17519WAT     H252800   3.336   3.433   7.761
17520WAT      O52801   5.531   7.191   8.759
17520WAT     H152802   5.570   7.153   8.843
17520WAT     H252803   5.529   7.120   8.688
17521WAT      O52804   4.987   1.256   0.799
17521WAT     H152805   5.011   1.335   0.855
17521WAT     H252806   4.957   1.181   0.858
17522WAT      O52807   9.326   1.788   1.843
17522WAT     H152808   9.249   1.847   1.866
17522WAT     H252809   9.294   1.712   1.787
17523WAT      O52810   7.488   1.134   4.282
17523WAT     H152811   7.469   1.215   4.226
17523WAT     H252812   7.421   1.127   4.355
17524WAT      O52813   2.979   5.167   0.879
17524WAT     H152814   3.017   5.075   0.889
17524WAT     H252815   2.971   5.189   0.782
17525WAT      O52816   9.226   9.360   7.402
17525WAT     H152817   9.203   9.274   7.447
17525WAT     H252818   9.243   9.343   7.305
17526WAT      O52819   9.396   1.469   3.869
17526WAT     H152820   9.389   1.466   3.969
17526WAT     H252821   9.415   1.563   3.840
17527WAT      O52822   4.829   4.942   8.627
17527WAT     H152823   4.909   4.952   8.567
17527WAT     H252824   4.786   5.031   8.641
17528WAT      O52825   8.016   5.027   3.733
17528WAT     H152826   7.951   5.098   3.706
17528WAT     H252827   7.966   4.942   3.751
17529WAT      O52828   6.285   2.999   7.307
17529WAT     H152829   6.304   2.939   7.385
17529WAT     H252830   6.245   2.945   7.233
17530WAT      O52831   4.837   1.691   2.062
17530WAT     H152832   4.906   1.674   2.132
17530WAT     H252833   4.841   1.619   1.992
17531WAT      O52834   4.972   8.307   7.294
17531WAT     H152835   4.962   8.208   7.282
17531WAT     H252836   4.925   8.334   7.378
17532WAT      O52837   7.742   9.831   4.124
17532WAT     H152838   7.816   9.801   4.185
17532WAT     H252839   7.681   9.754   4.106
17533WAT      O52840   7.447   5.249   2.303
17533WAT     H152841   7.365   5.217   2.254
17533WAT     H252842   7.517   5.179   2.300
17534WAT      O52843   6.810   2.246   3.041
17534WAT     H152844   6.906   2.226   3.021
17534WAT     H252845   6.771   2.173   3.096
17535WAT      O52846   9.404   5.104   3.660
17535WAT     H152847   9.353   5.085   3.744
17535WAT     H252848   9.428   5.018   3.615
17536WAT      O52849   6.092   3.785   2.548
17536WAT     H152850   6.164   3.842   2.590
17536WAT     H252851   6.127   3.693   2.533
17537WAT      O52852   5.275   9.221   2.059
17537WAT     H152853   5.314   9.190   1.972
17537WAT     H252854   5.291   9.152   2.129
17538WAT      O52855   9.168   3.374   5.310
17538WAT     H152856   9.189   3.469   5.290
17538WAT     H252857   9.129   3.331   5.228
17539WAT      O52858   0.992   4.012   9.336
17539WAT     H152859   0.944   3.928   9.363
17539WAT     H252860   0.934   4.091   9.352
17540WAT      O52861   2.680   1.142   5.476
17540WAT     H152862   2.586   1.172   5.491
17540WAT     H252863   2.742   1.219   5.494
17541WAT      O52864   4.949   3.999   9.755
17541WAT     H152865   4.948   3.904   9.726
17541WAT     H252866   4.866   4.045   9.723
17542WAT      O52867   1.629   9.795   7.422
17542WAT     H152868   1.704   9.856   7.445
17542WAT     H252869   1.642   9.707   7.468
17543WAT      O52870   3.476   5.211   6.050
17543WAT     H152871   3.478   5.119   6.090
17543WAT     H252872   3.387   5.253   6.069
17544WAT      O52873   4.858   0.131   6.434
17544WAT     H152874   4.931   0.197   6.451
17544WAT     H252875   4.773   0.164   6.475
17545WAT      O52876   8.305   4.309   8.546
17545WAT     H152877   8.365   4.231   8.561
17545WAT     H252878   8.358   4.385   8.507
17546WAT      O52879   6.193   0.068   9.199
17546WAT     H152880   6.287   0.065   9.166
17546WAT     H252881   6.193   0.056   9.299
17547WAT      O52882   4.867   4.444   8.487
17547WAT     H152883   4.950   4.423   8.539
17547WAT     H252884   4.843   4.540   8.499
17548WAT      O52885   6.542   8.113   1.257
17548WAT     H152886   6.474   8.181   1.285
17548WAT     H252887   6.564   8.125   1.160
17549WAT      O52888   1.476   2.691   6.616
17549WAT     H152889   1.478   2.759   6.542
17549WAT     H252890   1.392   2.637   6.609
17550WAT      O52891   0.487   0.346   2.613
17550WAT     H152892   0.549   0.272   2.589
17550WAT     H252893   0.503   0.424   2.553
17551WAT      O52894   9.628   3.708   7.935
17551WAT     H152895   9.582   3.785   7.979
17551WAT     H252896   9.682   3.658   8.003
17552WAT      O52897   1.337   7.459   0.875
17552WAT     H152898   1.405   7.395   0.839
17552WAT     H252899   1.328   7.537   0.813
17553WAT      O52900   3.771   2.727   9.018
17553WAT     H152901   3.767   2.633   9.052
17553WAT     H252902   3.680   2.767   9.020
17554WAT      O52903   6.550   7.449   5.710
17554WAT     H152904   6.540   7.422   5.614
17554WAT     H252905   6.497   7.386   5.767
17555WAT      O52906   1.399   4.638   8.323
17555WAT     H152907   1.305   4.669   8.316
17555WAT     H252908   1.461   4.717   8.318
17556WAT      O52909   6.563   6.130   1.967
17556WAT     H152910   6.465   6.154   1.968
17556WAT     H252911   6.609   6.179   2.040
17557WAT      O52912   2.833   1.642   4.520
17557WAT     H152913   2.881   1.654   4.433
17557WAT     H252914   2.893   1.596   4.585
17558WAT      O52915   7.181   2.447   7.765
17558WAT     H152916   7.250   2.517   7.748
17558WAT     H252917   7.106   2.457   7.700
17559WAT      O52918   0.820   8.940   8.929
17559WAT     H152919   0.742   8.891   8.890
17559WAT     H252920   0.858   9.002   8.860
17560WAT      O52921   4.648   1.413   5.728
17560WAT     H152922   4.744   1.402   5.700
17560WAT     H252923   4.589   1.408   5.648
17561WAT      O52924   3.083   5.911   0.452
17561WAT     H152925   3.104   5.929   0.548
17561WAT     H252926   2.996   5.953   0.428
17562WAT      O52927   4.590   8.757   7.890
17562WAT     H152928   4.574   8.795   7.981
17562WAT     H252929   4.528   8.799   7.825
17563WAT      O52930   1.687   6.371   2.029
17563WAT     H152931   1.729   6.332   2.111
17563WAT     H252932   1.731   6.458   2.007
17564WAT      O52933   6.882   1.136   1.851
17564WAT     H152934   6.892   1.037   1.858
17564WAT     H252935   6.808   1.166   1.912
17565WAT      O52936   4.496   3.297   6.050
17565WAT     H152937   4.489   3.320   5.952
17565WAT     H252938   4.494   3.381   6.104
17566WAT      O52939   5.564   0.653   0.105
17566WAT     H152940   5.562   0.596   0.023
17566WAT     H252941   5.596   0.745   0.080
17567WAT      O52942   8.861   7.494   3.642
17567WAT     H152943   8.934   7.427   3.654
17567WAT     H252944   8.900   7.586   3.636
17568WAT      O52945   1.867   8.997   9.544
17568WAT     H152946   1.912   8.925   9.598
17568WAT     H252947   1.829   9.065   9.606
17569WAT      O52948   8.222   0.810   4.429
17569WAT     H152949   8.140   0.798   4.373
17569WAT     H252950   8.208   0.886   4.493
17570WAT      O52951   1.284   4.994   8.092
17570WAT     H152952   1.383   4.985   8.086
17570WAT     H252953   1.259   5.091   8.080
17571WAT      O52954   4.196   4.451   0.979
17571WAT     H152955   4.213   4.363   0.935
17571WAT     H252956   4.204   4.441   1.078
17572WAT      O52957   3.964   3.022   1.123
17572WAT     H152958   3.928   2.957   1.190
17572WAT     H252959   4.064   3.022   1.127
17573WAT      O52960   9.276   6.154   5.030
17573WAT     H152961   9.349   6.217   5.004
17573WAT     H252962   9.194   6.172   4.976
17574WAT      O52963   7.161   9.704   5.500
17574WAT     H152964   7.099   9.626   5.492
17574WAT     H252965   7.238   9.679   5.560
17575WAT      O52966   9.332   2.273   7.310
17575WAT     H152967   9.428   2.248   7.324
17575WAT     H252968   9.281   2.194   7.275
17576WAT      O52969   5.297   6.634   1.409
17576WAT     H152970   5.350   6.591   1.336
17576WAT     H252971   5.220   6.684   1.370
17577WAT      O52972   9.497   3.150   8.243
17577WAT     H152973   9.542   3.188   8.324
17577WAT     H252974   9.536   3.060   8.223
17578WAT      O52975   3.180   6.467   8.944
17578WAT     H152976   3.259   6.526   8.927
17578WAT     H252977   3.103   6.499   8.889
17579WAT      O52978   0.287   8.212   7.152
17579WAT     H152979   0.339   8.296   7.170
17579WAT     H252980   0.218   8.230   7.082
17580WAT      O52981   2.750   2.431   8.696
17580WAT     H152982   2.754   2.479   8.609
17580WAT     H252983   2.660   2.446   8.738
17581WAT      O52984   8.456   3.383   7.995
17581WAT     H152985   8.362   3.383   8.029
17581WAT     H252986   8.512   3.442   8.053
17582WAT      O52987   9.325   4.883   2.738
17582WAT     H152988   9.419   4.858   2.760
17582WAT     H252989   9.283   4.812   2.683
17583WAT      O52990   0.336   0.930   5.287
17583WAT     H152991   0.352   0.961   5.194
17583WAT     H252992   0.380   0.841   5.301
17584WAT      O52993   2.229   8.191   8.874
17584WAT     H152994   2.182   8.175   8.787
17584WAT     H252995   2.178   8.258   8.928
17585WAT      O52996   7.404   6.837   3.177
17585WAT     H152997   7.335   6.899   3.211
17585WAT     H252998   7.406   6.754   3.233
17586WAT      O52999   5.514   9.382   9.058
17586WAT     H153000   5.450   9.446   9.016
17586WAT     H253001   5.594   9.371   8.999
17587WAT      O53002   1.562   2.369   7.254
17587WAT     H153003   1.501   2.420   7.194
17587WAT     H253004   1.577   2.421   7.338
17588WAT      O53005   5.678   4.205   8.899
17588WAT     H153006   5.753   4.218   8.964
17588WAT     H253007   5.656   4.107   8.894
17589WAT      O53008   9.742   8.291   7.444
17589WAT     H153009   9.815   8.273   7.511
17589WAT     H253010   9.767   8.250   7.357
17590WAT      O53011   7.026   6.074   4.735
17590WAT     H153012   7.043   6.024   4.820
17590WAT     H253013   6.931   6.103   4.731
17591WAT      O53014   0.374   2.274   7.093
17591WAT     H153015   0.460   2.239   7.129
17591WAT     H253016   0.391   2.360   7.046
17592WAT      O53017   1.065   5.353   1.084
17592WAT     H153018   1.097   5.402   1.165
17592WAT     H253019   0.988   5.403   1.044
17593WAT      O53020   2.883   4.624   7.269
17593WAT     H153021   2.832   4.705   7.239
17593WAT     H253022   2.975   4.626   7.230
17594WAT      O53023   0.289   5.505   0.384
17594WAT     H153024   0.294   5.590   0.332
17594WAT     H253025   0.294   5.525   0.482
17595WAT      O53026   5.387   5.683   9.573
17595WAT     H153027   5.395   5.718   9.480
17595WAT     H253028   5.301   5.635   9.584
17596WAT      O53029   7.119   7.626   8.501
17596WAT     H153030   7.146   7.647   8.407
17596WAT     H253031   7.197   7.586   8.549
17597WAT      O53032   4.173   7.921   9.048
17597WAT     H153033   4.090   7.904   9.101
17597WAT     H253034   4.150   7.923   8.950
17598WAT      O53035   1.649   8.841   1.091
17598WAT     H153036   1.561   8.795   1.083
17598WAT     H253037   1.647   8.906   1.167
17599WAT      O53038   8.442   4.354   7.013
17599WAT     H153039   8.492   4.295   7.077
17599WAT     H253040   8.397   4.297   6.945
17600WAT      O53041   4.004   9.307   9.470
17600WAT     H153042   3.910   9.281   9.494
17600WAT     H253043   4.059   9.312   9.554
17601WAT      O53044   5.065   6.012   5.000
17601WAT     H153045   5.047   6.099   5.047
17601WAT     H253046   5.086   5.941   5.067
17602WAT      O53047   1.757   8.562   6.568
17602WAT     H153048   1.754   8.528   6.474
17602WAT     H253049   1.823   8.508   6.621
17603WAT      O53050   0.743   7.943   1.715
17603WAT     H153051   0.685   7.886   1.772
17603WAT     H253052   0.793   8.009   1.772
17604WAT      O53053   1.703   1.349   0.865
17604WAT     H153054   1.704   1.444   0.833
17604WAT     H253055   1.773   1.297   0.817
17605WAT      O53056   1.841   2.258   1.983
17605WAT     H153057   1.823   2.169   1.940
17605WAT     H253058   1.854   2.246   2.081
17606WAT      O53059   7.524   3.324   9.110
17606WAT     H153060   7.583   3.399   9.142
17606WAT     H253061   7.441   3.362   9.070
17607WAT      O53062   4.161   0.150   5.834
17607WAT     H153063   4.244   0.182   5.790
17607WAT     H253064   4.176   0.143   5.933
17608WAT      O53065   3.473   4.932   0.876
17608WAT     H153066   3.400   4.984   0.920
17608WAT     H253067   3.443   4.838   0.861
17609WAT      O53068   0.324   4.795   2.926
17609WAT     H153069   0.336   4.707   2.880
17609WAT     H253070   0.226   4.813   2.939
17610WAT      O53071   0.775   4.953   3.297
17610WAT     H153072   0.688   4.905   3.306
17610WAT     H253073   0.829   4.939   3.380
17611WAT      O53074   6.043   2.540   1.400
17611WAT     H153075   6.081   2.633   1.392
17611WAT     H253076   5.957   2.535   1.349
17612WAT      O53077   8.581   7.822   7.867
17612WAT     H153078   8.592   7.902   7.808
17612WAT     H253079   8.578   7.851   7.962
17613WAT      O53080   1.376   8.804   2.292
17613WAT     H153081   1.363   8.863   2.212
17613WAT     H253082   1.289   8.758   2.314
17614WAT      O53083   8.333   8.741   8.003
17614WAT     H153084   8.299   8.650   7.979
17614WAT     H253085   8.432   8.744   7.990
17615WAT      O53086   3.014   0.323   7.353
17615WAT     H153087   3.105   0.283   7.365
17615WAT     H253088   3.008   0.368   7.264
17616WAT      O53089   2.916   7.112   7.186
17616WAT     H153090   2.911   7.155   7.096
17616WAT     H253091   2.980   7.036   7.184
17617WAT      O53092   6.772   3.035   6.374
17617WAT     H153093   6.700   2.977   6.338
17617WAT     H253094   6.743   3.075   6.461
17618WAT      O53095   6.191   9.544   9.881
17618WAT     H153096   6.189   9.548   9.781
17618WAT     H253097   6.118   9.484   9.914
17619WAT      O53098   5.303   6.410   3.341
17619WAT     H153099   5.283   6.390   3.437
17619WAT     H253100   5.218   6.405   3.288
17620WAT      O53101   1.004   3.579   2.655
17620WAT     H153102   0.997   3.516   2.732
17620WAT     H253103   1.086   3.635   2.666
17621WAT      O53104   5.638   9.350   0.347
17621WAT     H153105   5.620   9.302   0.433
17621WAT     H253106   5.728   9.394   0.352
17622WAT      O53107   9.026   7.541   4.116
17622WAT     H153108   9.099   7.599   4.153
17622WAT     H253109   9.045   7.445   4.140
17623WAT      O53110   3.847   2.621   4.986
17623WAT     H153111   3.764   2.574   4.957
17623WAT     H253112   3.883   2.577   5.069
17624WAT      O53113   3.462   1.618   7.094
17624WAT     H153114   3.435   1.523   7.114
17624WAT     H253115   3.434   1.677   7.170
17625WAT      O53116   8.585   2.458   6.461
17625WAT     H153117   8.492   2.427   6.477
17625WAT     H253118   8.648   2.380   6.465
17626WAT      O53119   5.279   9.173   4.681
17626WAT     H153120   5.280   9.267   4.715
17626WAT     H253121   5.303   9.173   4.584
17627WAT      O53122   1.023   1.509   6.576
17627WAT     H153123   0.941   1.479   6.526
17627WAT     H253124   0.996   1.567   6.653
17628WAT      O53125   6.774   6.170   7.437
17628WAT     H153126   6.686   6.132   7.465
17628WAT     H253127   6.764   6.268   7.419
17629WAT      O53128   3.691   4.755   1.346
17629WAT     H153129   3.739   4.743   1.433
17629WAT     H253130   3.616   4.821   1.358
17630WAT      O53131   3.195   2.865   6.587
17630WAT     H153132   3.115   2.918   6.556
17630WAT     H253133   3.235   2.909   6.667
17631WAT      O53134   5.585   1.531   6.401
17631WAT     H153135   5.672   1.490   6.427
17631WAT     H253136   5.510   1.483   6.446
17632WAT      O53137   8.330   0.922   3.554
17632WAT     H153138   8.231   0.926   3.571
17632WAT     H253139   8.368   0.841   3.598
17633WAT      O53140   2.401   5.176   5.578
17633WAT     H153141   2.492   5.202   5.611
17633WAT     H253142   2.335   5.182   5.653
17634WAT      O53143   1.598   2.465   7.540
17634WAT     H153144   1.565   2.426   7.626
17634WAT     H253145   1.554   2.554   7.524
17635WAT      O53146   6.302   4.185   5.677
17635WAT     H153147   6.374   4.133   5.724
17635WAT     H253148   6.247   4.122   5.623
17636WAT      O53149   9.427   9.652   8.970
17636WAT     H153150   9.484   9.570   8.977
17636WAT     H253151   9.391   9.676   9.060
17637WAT      O53152   8.846   3.965   1.141
17637WAT     H153153   8.913   4.011   1.199
17637WAT     H253154   8.859   3.866   1.147
17638WAT      O53155   7.586   1.635   9.035
17638WAT     H153156   7.646   1.569   9.079
17638WAT     H253157   7.535   1.686   9.104
17639WAT      O53158   5.470   9.597   9.696
17639WAT     H153159   5.415   9.613   9.614
17639WAT     H253160   5.410   9.582   9.774
17640WAT      O53161   2.603   6.101   6.887
17640WAT     H153162   2.651   6.067   6.806
17640WAT     H253163   2.663   6.095   6.967
17641WAT      O53164   3.631   4.923   5.494
17641WAT     H153165   3.606   4.899   5.588
17641WAT     H253166   3.730   4.910   5.482
17642WAT      O53167   2.181   7.139   5.603
17642WAT     H153168   2.180   7.215   5.538
17642WAT     H253169   2.111   7.072   5.576
17643WAT      O53170   4.331   6.808   0.681
17643WAT     H153171   4.347   6.889   0.626
17643WAT     H253172   4.398   6.803   0.755
17644WAT      O53173   6.681   3.542   4.572
17644WAT     H153174   6.682   3.510   4.667
17644WAT     H253175   6.634   3.474   4.515
17645WAT      O53176   3.692   0.941   2.863
17645WAT     H153177   3.789   0.965   2.867
17645WAT     H253178   3.671   0.875   2.935
17646WAT      O53179   4.745   0.566   3.552
17646WAT     H153180   4.682   0.512   3.608
17646WAT     H253181   4.698   0.597   3.469
17647WAT      O53182   8.136   7.747   0.782
17647WAT     H153183   8.073   7.671   0.767
17647WAT     H253184   8.203   7.749   0.708
17648WAT      O53185   9.444   0.917   5.760
17648WAT     H153186   9.449   0.998   5.701
17648WAT     H253187   9.465   0.836   5.706
17649WAT      O53188   1.578   4.875   2.253
17649WAT     H153189   1.567   4.960   2.203
17649WAT     H253190   1.595   4.800   2.189
17650WAT      O53191   2.552   2.416   1.138
17650WAT     H153192   2.465   2.454   1.105
17650WAT     H253193   2.542   2.318   1.154
17651WAT      O53194   3.149   4.429   7.400
17651WAT     H153195   3.066   4.422   7.345
17651WAT     H253196   3.152   4.353   7.465
17652WAT      O53197   5.546   6.861   9.511
17652WAT     H153198   5.512   6.941   9.462
17652WAT     H253199   5.534   6.780   9.453
17653WAT      O53200   1.960   8.640   4.690
17653WAT     H153201   1.878   8.599   4.649
17653WAT     H253202   1.932   8.697   4.768
17654WAT      O53203   2.569   0.850   2.745
17654WAT     H153204   2.565   0.752   2.728
17654WAT     H253205   2.478   0.890   2.735
17655WAT      O53206   9.164   0.140   5.714
17655WAT     H153207   9.119   0.176   5.632
17655WAT     H253208   9.113   0.171   5.795
17656WAT      O53209   6.704   7.723   9.458
17656WAT     H153210   6.679   7.676   9.543
17656WAT     H253211   6.622   7.762   9.416
17657WAT      O53212   8.595   3.054   0.989
17657WAT     H153213   8.690   3.075   1.014
17657WAT     H253214   8.588   2.958   0.961
17658WAT      O53215   0.188   8.117   4.678
17658WAT     H153216   0.264   8.165   4.635
17658WAT     H253217   0.104   8.170   4.667
17659WAT      O53218   4.782   3.650   0.993
17659WAT     H153219   4.841   3.627   0.916
17659WAT     H253220   4.753   3.567   1.039
17660WAT      O53221   7.821   1.026   5.562
17660WAT     H153222   7.823   0.929   5.586
17660WAT     H253223   7.914   1.062   5.565
17661WAT      O53224   1.308   8.794   0.863
17661WAT     H153225   1.363   8.866   0.905
17661WAT     H253226   1.230   8.834   0.816
17662WAT      O53227   5.256   0.897   6.998
17662WAT     H153228   5.290   0.962   6.930
17662WAT     H253229   5.156   0.894   6.993
17663WAT      O53230   2.322   1.399   3.924
17663WAT     H153231   2.369   1.312   3.937
17663WAT     H253232   2.241   1.402   3.983
17664WAT      O53233   4.055   0.796   8.094
17664WAT     H153234   4.116   0.725   8.059
17664WAT     H253235   4.051   0.871   8.028
17665WAT      O53236   9.098   1.931   0.631
17665WAT     H153237   9.115   1.856   0.694
17665WAT     H253238   9.005   1.966   0.644
17666WAT      O53239   0.589   1.666   3.216
17666WAT     H153240   0.513   1.604   3.236
17666WAT     H253241   0.580   1.749   3.271
17667WAT      O53242   1.136   5.328   7.510
17667WAT     H153243   1.064   5.263   7.485
17667WAT     H253244   1.203   5.282   7.568
17668WAT      O53245   7.427   0.250   5.441
17668WAT     H153246   7.459   0.231   5.534
17668WAT     H253247   7.351   0.189   5.418
17669WAT      O53248   5.097   2.505   8.587
17669WAT     H153249   5.079   2.438   8.659
17669WAT     H253250   5.125   2.591   8.628
17670WAT      O53251   7.072   8.919   8.819
17670WAT     H153252   6.985   8.949   8.779
17670WAT     H253253   7.119   8.858   8.755
17671WAT      O53254   2.148   6.402   0.356
17671WAT     H153255   2.131   6.447   0.443
17671WAT     H253256   2.241   6.367   0.354
17672WAT      O53257   0.206   7.731   5.367
17672WAT     H153258   0.145   7.693   5.298
17672WAT     H253259   0.267   7.660   5.401
17673WAT      O53260   8.973   4.467   9.823
17673WAT     H153261   8.910   4.536   9.861
17673WAT     H253262   9.061   4.474   9.871
17674WAT      O53263   2.296   0.921   7.856
17674WAT     H153264   2.313   0.880   7.766
17674WAT     H253265   2.235   0.861   7.909
17675WAT      O53266   4.842   9.040   4.847
17675WAT     H153267   4.847   8.961   4.786
17675WAT     H253268   4.933   9.059   4.885
17676WAT      O53269   6.865   3.115   4.957
17676WAT     H153270   6.839   3.019   4.970
17676WAT     H253271   6.799   3.159   4.895
17677WAT      O53272   6.153   0.676   4.019
17677WAT     H153273   6.153   0.581   4.050
17677WAT     H253274   6.071   0.722   4.053
17678WAT      O53275   0.281   6.231   1.845
17678WAT     H153276   0.250   6.321   1.815
17678WAT     H253277   0.244   6.211   1.936
17679WAT      O53278   2.406   9.098   5.945
17679WAT     H153279   2.432   9.192   5.921
17679WAT     H253280   2.487   9.040   5.945
17680WAT      O53281   6.847   9.086   2.554
17680WAT     H153282   6.849   9.113   2.650
17680WAT     H253283   6.933   9.043   2.529
17681WAT      O53284   4.593   8.037   6.305
17681WAT     H153285   4.552   7.957   6.348
17681WAT     H253286   4.536   8.066   6.228
17682WAT      O53287   2.092   1.927   6.770
17682WAT     H153288   1.999   1.947   6.800
17682WAT     H253289   2.094   1.838   6.725
17683WAT      O53290   9.170   3.356   4.715
17683WAT     H153291   9.081   3.331   4.752
17683WAT     H253292   9.236   3.366   4.790
17684WAT      O53293   5.308   2.031   6.108
17684WAT     H153294   5.369   2.110   6.120
17684WAT     H253295   5.300   2.010   6.011
17685WAT      O53296   2.356   0.535   7.902
17685WAT     H153297   2.357   0.436   7.910
17685WAT     H253298   2.386   0.561   7.810
17686WAT      O53299   7.744   8.004   8.686
17686WAT     H153300   7.671   8.005   8.755
17686WAT     H253301   7.746   8.093   8.639
17687WAT      O53302   2.221   2.776   0.215
17687WAT     H153303   2.269   2.702   0.166
17687WAT     H253304   2.141   2.738   0.261
17688WAT      O53305   7.987   2.994   7.048
17688WAT     H153306   7.984   3.038   7.137
17688WAT     H253307   8.051   3.043   6.989
17689WAT      O53308   1.924   8.446   1.257
17689WAT     H153309   1.962   8.438   1.349
17689WAT     H253310   1.974   8.386   1.195
17690WAT      O53311   4.137   7.686   2.551
17690WAT     H153312   4.228   7.695   2.590
17690WAT     H253313   4.136   7.726   2.459
17691WAT      O53314   8.115   8.849   1.778
17691WAT     H153315   8.079   8.912   1.710
17691WAT     H253316   8.140   8.899   1.861
17692WAT      O53317   6.829   3.624   7.798
17692WAT     H153318   6.747   3.678   7.776
17692WAT     H253319   6.801   3.535   7.834
17693WAT      O53320   7.929   8.469   8.668
17693WAT     H153321   7.905   8.460   8.765
17693WAT     H253322   7.992   8.546   8.657
17694WAT      O53323   1.680   5.448   9.055
17694WAT     H153324   1.603   5.511   9.055
17694WAT     H253325   1.717   5.439   9.148
17695WAT      O53326   2.109   3.206   9.117
17695WAT     H153327   2.138   3.123   9.164
17695WAT     H253328   2.011   3.218   9.128
17696WAT      O53329   3.608   6.213   7.536
17696WAT     H153330   3.532   6.187   7.596
17696WAT     H253331   3.635   6.307   7.555
17697WAT      O53332   6.486   6.977   2.851
17697WAT     H153333   6.429   6.989   2.770
17697WAT     H253334   6.573   7.026   2.838
17698WAT      O53335   4.907   3.445   2.066
17698WAT     H153336   4.863   3.430   2.154
17698WAT     H253337   4.889   3.538   2.034
17699WAT      O53338   0.137   5.557   5.895
17699WAT     H153339   0.093   5.493   5.958
17699WAT     H253340   0.093   5.646   5.901
17700WAT      O53341   5.653   2.700   5.182
17700WAT     H153342   5.612   2.626   5.129
17700WAT     H253343   5.749   2.710   5.156
17701WAT      O53344   1.160   3.990   8.232
17701WAT     H153345   1.258   3.977   8.217
17701WAT     H253346   1.136   4.086   8.217
17702WAT      O53347   8.767   5.408   8.745
17702WAT     H153348   8.765   5.308   8.751
17702WAT     H253349   8.743   5.437   8.652
17703WAT      O53350   3.329   3.652   6.213
17703WAT     H153351   3.416   3.637   6.261
17703WAT     H253352   3.285   3.734   6.249
17704WAT      O53353   7.205   1.827   3.504
17704WAT     H153354   7.147   1.754   3.541
17704WAT     H253355   7.238   1.884   3.580
17705WAT      O53356   1.354   3.458   2.467
17705WAT     H153357   1.364   3.361   2.444
17705WAT     H253358   1.340   3.468   2.565
17706WAT      O53359   2.103   1.863   7.356
17706WAT     H153360   2.096   1.862   7.257
17706WAT     H253361   2.146   1.778   7.387
17707WAT      O53362   3.511   1.525   0.150
17707WAT     H153363   3.424   1.477   0.153
17707WAT     H253364   3.541   1.534   0.055
17708WAT      O53365   0.692   5.830   2.779
17708WAT     H153366   0.633   5.907   2.803
17708WAT     H253367   0.669   5.751   2.835
17709WAT      O53368   1.544   6.081   1.508
17709WAT     H153369   1.547   6.007   1.440
17709WAT     H253370   1.511   6.165   1.464
17710WAT      O53371   8.191   3.134   7.768
17710WAT     H153372   8.104   3.111   7.812
17710WAT     H253373   8.258   3.064   7.788
17711WAT      O53374   6.879   2.607   4.309
17711WAT     H153375   6.846   2.574   4.398
17711WAT     H253376   6.953   2.673   4.323
17712WAT      O53377   3.483   9.011   7.256
17712WAT     H153378   3.391   9.034   7.286
17712WAT     H253379   3.538   8.984   7.335
17713WAT      O53380   5.168   7.722   5.059
17713WAT     H153381   5.086   7.773   5.034
17713WAT     H253382   5.200   7.669   4.979
17714WAT      O53383   6.125   6.215   5.648
17714WAT     H153384   6.205   6.155   5.651
17714WAT     H253385   6.150   6.301   5.603
17715WAT      O53386   9.155   9.622   5.058
17715WAT     H153387   9.165   9.721   5.058
17715WAT     H253388   9.060   9.598   5.079
17716WAT      O53389   2.020   8.256   9.235
17716WAT     H153390   1.930   8.224   9.265
17716WAT     H253391   2.015   8.281   9.138
17717WAT      O53392   0.237   2.292   9.639
17717WAT     H153393   0.173   2.330   9.705
17717WAT     H253394   0.325   2.276   9.683
17718WAT      O53395   7.710   5.227   9.749
17718WAT     H153396   7.693   5.145   9.693
17718WAT     H253397   7.663   5.305   9.708
17719WAT      O53398   8.726   1.695   7.736
17719WAT     H153399   8.758   1.785   7.705
17719WAT     H253400   8.735   1.690   7.835
17720WAT      O53401   0.316   1.792   0.943
17720WAT     H153402   0.403   1.779   0.991
17720WAT     H253403   0.245   1.736   0.986
17721WAT      O53404   0.035   8.720   1.166
17721WAT     H153405  -0.059   8.690   1.150
17721WAT     H253406   0.068   8.768   1.084
17722WAT      O53407   6.123   2.285   0.658
17722WAT     H153408   6.094   2.322   0.569
17722WAT     H253409   6.088   2.192   0.668
17723WAT      O53410   4.178   5.573   2.363
17723WAT     H153411   4.185   5.496   2.299
17723WAT     H253412   4.261   5.578   2.419
17724WAT      O53413   6.627   4.309   1.517
17724WAT     H153414   6.557   4.365   1.561
17724WAT     H253415   6.636   4.336   1.421
17725WAT      O53416   1.037   5.757   3.220
17725WAT     H153417   1.025   5.832   3.155
17725WAT     H253418   1.027   5.791   3.314
17726WAT      O53419   4.775   7.426   4.609
17726WAT     H153420   4.834   7.352   4.576
17726WAT     H253421   4.695   7.434   4.549
17727WAT      O53422   2.784   6.326   5.558
17727WAT     H153423   2.814   6.421   5.564
17727WAT     H253424   2.863   6.266   5.559
17728WAT      O53425   3.560   4.775   1.843
17728WAT     H153426   3.529   4.860   1.800
17728WAT     H253427   3.608   4.796   1.928
17729WAT      O53428   5.264   2.205   0.477
17729WAT     H153429   5.269   2.258   0.393
17729WAT     H253430   5.170   2.179   0.496
17730WAT      O53431   1.838   1.472   1.784
17730WAT     H153432   1.883   1.440   1.701
17730WAT     H253433   1.775   1.546   1.762
17731WAT      O53434   2.496   2.957   0.330
17731WAT     H153435   2.483   2.905   0.245
17731WAT     H253436   2.498   3.055   0.309
17732WAT      O53437   0.241   9.454   3.724
17732WAT     H153438   0.261   9.550   3.745
17732WAT     H253439   0.319   9.414   3.676
17733WAT      O53440   4.397   5.727   6.266
17733WAT     H153441   4.378   5.824   6.282
17733WAT     H253442   4.481   5.718   6.212
17734WAT      O53443   5.188   0.360   8.219
17734WAT     H153444   5.282   0.381   8.191
17734WAT     H253445   5.137   0.445   8.231
17735WAT      O53446   9.282   6.717   2.842
17735WAT     H153447   9.273   6.677   2.751
17735WAT     H253448   9.239   6.807   2.843
17736WAT      O53449   4.841   3.247   8.698
17736WAT     H153450   4.871   3.335   8.735
17736WAT     H253451   4.761   3.261   8.640
17737WAT      O53452   1.951   4.096   2.397
17737WAT     H153453   1.881   4.027   2.414
17737WAT     H253454   1.971   4.145   2.482
17738WAT      O53455   7.079   8.640   7.664
17738WAT     H153456   7.154   8.595   7.615
17738WAT     H253457   7.069   8.734   7.631
17739WAT      O53458   0.064   5.666   8.735
17739WAT     H153459   0.059   5.716   8.649
17739WAT     H253460   0.107   5.724   8.805
17740WAT      O53461   7.624   5.207   1.932
17740WAT     H153462   7.631   5.284   1.996
17740WAT     H253463   7.530   5.173   1.931
17741WAT      O53464   4.015   1.408   2.234
17741WAT     H153465   4.017   1.337   2.303
17741WAT     H253466   3.933   1.397   2.177
17742WAT      O53467   3.953   5.307   3.675
17742WAT     H153468   3.926   5.211   3.682
17742WAT     H253469   3.871   5.364   3.673
17743WAT      O53470   4.260   1.631   9.118
17743WAT     H153471   4.347   1.665   9.153
17743WAT     H253472   4.192   1.629   9.192
17744WAT      O53473   8.685   4.152   4.912
17744WAT     H153474   8.710   4.249   4.902
17744WAT     H253475   8.590   4.140   4.884
17745WAT      O53476   2.176   8.799   5.412
17745WAT     H153477   2.133   8.737   5.347
17745WAT     H253478   2.114   8.875   5.433
17746WAT      O53479   7.957   0.056   3.150
17746WAT     H153480   7.919   0.035   3.240
17746WAT     H253481   7.941  -0.020   3.088
17747WAT      O53482   4.588   1.692   3.898
17747WAT     H153483   4.537   1.752   3.836
17747WAT     H253484   4.573   1.597   3.871
17748WAT      O53485   8.863   6.017   8.237
17748WAT     H153486   8.883   6.069   8.154
17748WAT     H253487   8.930   5.944   8.247
17749WAT      O53488   3.279   0.827   4.611
17749WAT     H153489   3.244   0.920   4.605
17749WAT     H253490   3.379   0.829   4.612
17750WAT      O53491   0.255   6.752   6.222
17750WAT     H153492   0.166   6.766   6.178
17750WAT     H253493   0.250   6.782   6.317
17751WAT      O53494   1.965   5.386   0.619
17751WAT     H153495   1.943   5.399   0.523
17751WAT     H253496   2.044   5.325   0.627
17752WAT      O53497   0.593   8.157   7.792
17752WAT     H153498   0.545   8.140   7.877
17752WAT     H253499   0.647   8.241   7.800
17753WAT      O53500   2.760   5.607   3.846
17753WAT     H153501   2.827   5.540   3.814
17753WAT     H253502   2.772   5.622   3.945
17754WAT      O53503   8.553   8.518   1.733
17754WAT     H153504   8.635   8.557   1.775
17754WAT     H253505   8.481   8.588   1.732
17755WAT      O53506   5.462   7.023   7.328
17755WAT     H153507   5.400   6.949   7.302
17755WAT     H253508   5.537   6.986   7.383
17756WAT      O53509   6.507   1.474   0.044
17756WAT     H153510   6.480   1.556  -0.007
17756WAT     H253511   6.555   1.411  -0.017
17757WAT      O53512   0.572   3.563   0.719
17757WAT     H153513   0.633   3.570   0.640
17757WAT     H253514   0.579   3.646   0.774
17758WAT      O53515   6.764   2.090   0.122
17758WAT     H153516   6.744   2.188   0.130
17758WAT     H253517   6.700   2.048   0.058
17759WAT      O53518   8.208   1.447   5.305
17759WAT     H153519   8.142   1.453   5.230
17759WAT     H253520   8.296   1.484   5.275
17760WAT      O53521   8.923   6.646   0.874
17760WAT     H153522   8.977   6.566   0.902
17760WAT     H253523   8.833   6.616   0.844
17761WAT      O53524   6.006   1.777   6.107
17761WAT     H153525   5.960   1.820   6.030
17761WAT     H253526   6.074   1.840   6.146
17762WAT      O53527   4.269   2.198   9.764
17762WAT     H153528   4.183   2.217   9.812
17762WAT     H253529   4.257   2.116   9.708
17763WAT      O53530   2.853   5.177   4.255
17763WAT     H153531   2.777   5.181   4.320
17763WAT     H253532   2.839   5.100   4.193
17764WAT      O53533   4.245   4.581   9.516
17764WAT     H153534   4.207   4.504   9.465
17764WAT     H253535   4.170   4.636   9.554
17765WAT      O53536   1.574   7.153   7.809
17765WAT     H153537   1.670   7.149   7.837
17765WAT     H253538   1.519   7.189   7.884
17766WAT      O53539   3.716   6.467   6.253
17766WAT     H153540   3.776   6.548   6.261
17766WAT     H253541   3.761   6.389   6.295
17767WAT      O53542   2.065   4.111   9.864
17767WAT     H153543   1.972   4.141   9.842
17767WAT     H253544   2.116   4.187   9.904
17768WAT      O53545   2.906   0.119   9.390
17768WAT     H153546   2.956   0.179   9.329
17768WAT     H253547   2.877   0.170   9.471
17769WAT      O53548   2.515   6.370   8.102
17769WAT     H153549   2.591   6.333   8.049
17769WAT     H253550   2.548   6.400   8.192
17770WAT      O53551   8.304   6.561   5.008
17770WAT     H153552   8.341   6.468   5.017
17770WAT     H253553   8.254   6.585   5.091
17771WAT      O53554   6.736   7.854   6.772
17771WAT     H153555   6.680   7.788   6.822
17771WAT     H253556   6.697   7.869   6.681
17772WAT      O53557   5.763   9.712   3.578
17772WAT     H153558   5.784   9.809   3.565
17772WAT     H253559   5.704   9.680   3.504
17773WAT      O53560   3.206   7.744   9.520
17773WAT     H153561   3.300   7.715   9.502
17773WAT     H253562   3.206   7.836   9.559
17774WAT      O53563   1.842   1.150   2.740
17774WAT     H153564   1.746   1.161   2.713
17774WAT     H253565   1.847   1.089   2.819
17775WAT      O53566   6.099   0.434   7.480
17775WAT     H153567   6.009   0.398   7.455
17775WAT     H253568   6.116   0.415   7.577
17776WAT      O53569   5.193   1.504   0.211
17776WAT     H153570   5.268   1.561   0.246
17776WAT     H253571   5.106   1.549   0.231
17777WAT      O53572   2.361   3.816   4.662
17777WAT     H153573   2.384   3.719   4.656
17777WAT     H253574   2.437   3.867   4.702
17778WAT      O53575   3.948   9.154   3.197
17778WAT     H153576   4.006   9.236   3.188
17778WAT     H253577   3.852   9.182   3.201
17779WAT      O53578   8.344   5.799   8.408
17779WAT     H153579   8.347   5.730   8.480
17779WAT     H253580   8.250   5.807   8.373
17780WAT      O53581   7.004   2.324   4.491
17780WAT     H153582   6.998   2.225   4.494
17780WAT     H253583   7.068   2.352   4.420
17781WAT      O53584   9.807   8.018   9.809
17781WAT     H153585   9.740   7.974   9.749
17781WAT     H253586   9.766   8.098   9.852
17782WAT      O53587   2.963   1.184   0.047
17782WAT     H153588   2.947   1.261   0.109
17782WAT     H253589   2.879   1.166  -0.005
17783WAT      O53590   3.795   4.500   9.895
17783WAT     H153591   3.724   4.496   9.825
17783WAT     H253592   3.870   4.440   9.870
17784WAT      O53593   3.868   6.590   7.356
17784WAT     H153594   3.872   6.686   7.385
17784WAT     H253595   3.788   6.546   7.397
17785WAT      O53596   6.230   4.598   2.468
17785WAT     H153597   6.266   4.527   2.529
17785WAT     H253598   6.131   4.589   2.463
17786WAT      O53599   5.330   1.652   8.500
17786WAT     H153600   5.314   1.735   8.447
17786WAT     H253601   5.310   1.571   8.444
17787WAT      O53602   8.516   2.520   9.062
17787WAT     H153603   8.578   2.516   9.141
17787WAT     H253604   8.456   2.440   9.062
17788WAT      O53605   9.353   3.870   6.680
17788WAT     H153606   9.320   3.831   6.594
17788WAT     H253607   9.400   3.956   6.662
17789WAT      O53608   9.805   2.595   6.292
17789WAT     H153609   9.853   2.515   6.256
17789WAT     H253610   9.746   2.633   6.221
17790WAT      O53611   2.374   2.806   7.436
17790WAT     H153612   2.291   2.839   7.482
17790WAT     H253613   2.356   2.715   7.398
17791WAT      O53614   1.468   9.723   4.305
17791WAT     H153615   1.473   9.633   4.261
17791WAT     H253616   1.476   9.794   4.235
17792WAT      O53617   3.132   1.845   6.882
17792WAT     H153618   3.222   1.817   6.847
17792WAT     H253619   3.107   1.787   6.960
17793WAT      O53620   7.322   3.377   9.512
17793WAT     H153621   7.356   3.284   9.519
17793WAT     H253622   7.332   3.423   9.600
17794WAT      O53623   0.292   3.054   0.500
17794WAT     H153624   0.242   2.991   0.440
17794WAT     H253625   0.228   3.092   0.567
17795WAT      O53626   5.779   7.599   6.364
17795WAT     H153627   5.713   7.551   6.423
17795WAT     H253628   5.815   7.678   6.412
17796WAT      O53629   0.752   3.672   3.835
17796WAT     H153630   0.739   3.581   3.795
17796WAT     H253631   0.849   3.686   3.855
17797WAT      O53632   8.162   9.737   1.770
17797WAT     H153633   8.154   9.641   1.796
17797WAT     H253634   8.165   9.745   1.670
17798WAT      O53635   2.244   7.358   5.413
17798WAT     H153636   2.322   7.322   5.362
17798WAT     H253637   2.274   7.434   5.470
17799WAT      O53638   7.344   1.482   6.507
17799WAT     H153639   7.374   1.431   6.587
17799WAT     H253640   7.254   1.523   6.525
17800WAT      O53641   5.223   0.276   0.956
17800WAT     H153642   5.251   0.333   0.878
17800WAT     H253643   5.260   0.314   1.040
17801WAT      O53644   0.567   6.665   0.266
17801WAT     H153645   0.662   6.694   0.280
17801WAT     H253646   0.565   6.567   0.243
17802WAT      O53647   0.710   0.993   0.441
17802WAT     H153648   0.708   0.897   0.469
17802WAT     H253649   0.650   1.046   0.501
17803WAT      O53650   1.106   4.480   7.013
17803WAT     H153651   1.192   4.429   7.004
17803WAT     H253652   1.038   4.442   6.950
17804WAT      O53653   4.937   3.522   1.307
17804WAT     H153654   4.941   3.512   1.407
17804WAT     H253655   4.927   3.619   1.284
17805WAT      O53656   0.318   0.084   9.007
17805WAT     H153657   0.236   0.100   8.953
17805WAT     H253658   0.323   0.150   9.082
17806WAT      O53659   0.170   3.013   9.399
17806WAT     H153660   0.096   2.977   9.341
17806WAT     H253661   0.186   3.109   9.376
17807WAT      O53662   9.797   3.792   7.733
17807WAT     H153663   9.744   3.758   7.655
17807WAT     H253664   9.738   3.798   7.813
17808WAT      O53665   7.504   2.269   4.785
17808WAT     H153666   7.414   2.304   4.810
17808WAT     H253667   7.504   2.243   4.688
17809WAT      O53668   5.539   4.073   3.548
17809WAT     H153669   5.491   4.053   3.462
17809WAT     H253670   5.515   4.005   3.617
17810WAT      O53671   9.621   7.473   5.791
17810WAT     H153672   9.531   7.462   5.833
17810WAT     H253673   9.617   7.444   5.695
17811WAT      O53674   6.670   1.205   4.117
17811WAT     H153675   6.676   1.303   4.097
17811WAT     H253676   6.685   1.154   4.032
17812WAT      O53677   8.824   0.065   7.064
17812WAT     H153678   8.864   0.105   6.982
17812WAT     H253679   8.891   0.006   7.109
17813WAT      O53680   9.564   3.722   3.508
17813WAT     H153681   9.501   3.721   3.586
17813WAT     H253682   9.533   3.655   3.440
17814WAT      O53683   2.046   6.509   1.465
17814WAT     H153684   2.064   6.574   1.538
17814WAT     H253685   2.112   6.434   1.470
17815WAT      O53686   8.208   3.551   2.036
17815WAT     H153687   8.266   3.538   2.117
17815WAT     H253688   8.266   3.574   1.957
17816WAT      O53689   8.883   9.544   2.777
17816WAT     H153690   8.928   9.485   2.844
17816WAT     H253691   8.852   9.628   2.822
17817WAT      O53692   8.186   4.890   4.595
17817WAT     H153693   8.188   4.875   4.694
17817WAT     H253694   8.127   4.969   4.575
17818WAT      O53695   6.649   8.796   6.408
17818WAT     H153696   6.742   8.766   6.429
17818WAT     H253697   6.590   8.716   6.401
17819WAT      O53698   1.520   0.949   1.631
17819WAT     H153699   1.546   0.923   1.724
17819WAT     H253700   1.539   0.873   1.569
17820WAT      O53701   9.344   5.969   9.749
17820WAT     H153702   9.283   6.039   9.711
17820WAT     H253703   9.306   5.879   9.731
17821WAT      O53704   7.189   2.383   6.029
17821WAT     H153705   7.277   2.427   6.047
17821WAT     H253706   7.192   2.338   5.939
17822WAT      O53707   4.383   7.693   9.548
17822WAT     H153708   4.318   7.691   9.624
17822WAT     H253709   4.474   7.668   9.581
17823WAT      O53710   3.114   4.256   2.666
17823WAT     H153711   3.063   4.257   2.752
17823WAT     H253712   3.212   4.250   2.685
17824WAT      O53713   6.669   1.280   7.356
17824WAT     H153714   6.740   1.310   7.293
17824WAT     H253715   6.659   1.346   7.430
17825WAT      O53716   7.153   8.402   2.882
17825WAT     H153717   7.185   8.316   2.922
17825WAT     H253718   7.174   8.477   2.944
17826WAT      O53719   0.132   5.872   3.126
17826WAT     H153720   0.206   5.925   3.168
17826WAT     H253721   0.050   5.930   3.119
17827WAT      O53722   6.423   5.574   7.235
17827WAT     H153723   6.428   5.578   7.335
17827WAT     H253724   6.419   5.478   7.206
17828WAT      O53725   6.628   0.246   7.981
17828WAT     H153726   6.541   0.196   7.981
17828WAT     H253727   6.697   0.191   8.027
17829WAT      O53728   0.899   2.595   4.456
17829WAT     H153729   0.867   2.608   4.362
17829WAT     H253730   0.999   2.589   4.456
17830WAT      O53731   6.453   5.516   6.142
17830WAT     H153732   6.401   5.561   6.070
17830WAT     H253733   6.478   5.424   6.112
17831WAT      O53734   8.974   2.627   7.075
17831WAT     H153735   8.905   2.636   7.003
17831WAT     H253736   8.950   2.552   7.136
17832WAT      O53737   3.910   1.797   0.244
17832WAT     H153738   3.867   1.801   0.154
17832WAT     H253739   3.904   1.886   0.287
17833WAT      O53740   0.482   3.411   4.211
17833WAT     H153741   0.441   3.364   4.133
17833WAT     H253742   0.573   3.373   4.229
17834WAT      O53743   4.283   9.810   3.636
17834WAT     H153744   4.302   9.734   3.573
17834WAT     H253745   4.203   9.860   3.604
17835WAT      O53746   3.313   0.910   1.535
17835WAT     H153747   3.244   0.939   1.468
17835WAT     H253748   3.271   0.906   1.626
17836WAT      O53749   5.102   7.778   2.345
17836WAT     H153750   5.047   7.697   2.365
17836WAT     H253751   5.063   7.827   2.268
17837WAT      O53752   6.122   7.150   7.216
17837WAT     H153753   6.151   7.239   7.250
17837WAT     H253754   6.105   7.156   7.117
17838WAT      O53755   5.770   2.546   1.259
17838WAT     H153756   5.781   2.639   1.224
17838WAT     H253757   5.689   2.543   1.318
17839WAT      O53758   6.293   5.110   4.457
17839WAT     H153759   6.340   5.119   4.369
17839WAT     H253760   6.198   5.139   4.448
17840WAT      O53761   6.489   2.865   2.637
17840WAT     H153762   6.422   2.854   2.564
17840WAT     H253763   6.580   2.842   2.603
17841WAT      O53764   1.628   5.983   3.900
17841WAT     H153765   1.700   6.046   3.870
17841WAT     H253766   1.574   5.954   3.821
17842WAT      O53767   4.762   6.363   1.762
17842WAT     H153768   4.791   6.341   1.855
17842WAT     H253769   4.840   6.356   1.700
17843WAT      O53770   2.478   7.710   6.516
17843WAT     H153771   2.545   7.757   6.458
17843WAT     H253772   2.490   7.611   6.506
17844WAT      O53773   3.614   8.467   4.857
17844WAT     H153774   3.653   8.552   4.893
17844WAT     H253775   3.524   8.452   4.897
17845WAT      O53776   6.574   2.051   3.444
17845WAT     H153777   6.672   2.069   3.435
17845WAT     H253778   6.523   2.121   3.395
17846WAT      O53779   6.015   5.015   7.397
17846WAT     H153780   5.916   5.030   7.397
17846WAT     H253781   6.034   4.922   7.428
17847WAT      O53782   1.674   9.208   6.354
17847WAT     H153783   1.617   9.172   6.428
17847WAT     H253784   1.731   9.283   6.389
17848WAT      O53785   5.394   3.086   1.333
17848WAT     H153786   5.373   3.170   1.282
17848WAT     H253787   5.365   3.007   1.279
17849WAT      O53788   4.109   6.972   4.501
17849WAT     H153789   4.048   6.977   4.580
17849WAT     H253790   4.131   7.064   4.469
17850WAT      O53791   8.534   2.067   2.943
17850WAT     H153792   8.613   2.084   2.883
17850WAT     H253793   8.451   2.057   2.887
17851WAT      O53794   6.873   2.667   1.466
17851WAT     H153795   6.838   2.699   1.378
17851WAT     H253796   6.895   2.746   1.523
17852WAT      O53797   7.559   0.845   4.959
17852WAT     H153798   7.553   0.834   5.058
17852WAT     H253799   7.526   0.936   4.933
17853WAT      O53800   6.724   9.598   4.327
17853WAT     H153801   6.676   9.521   4.285
17853WAT     H253802   6.822   9.592   4.305
17854WAT      O53803   9.657   7.454   2.980
17854WAT     H153804   9.709   7.503   2.909
17854WAT     H253805   9.577   7.411   2.938
17855WAT      O53806   3.382   2.730   5.278
17855WAT     H153807   3.361   2.640   5.316
17855WAT     H253808   3.481   2.741   5.273
17856WAT      O53809   0.487   4.468   9.286
17856WAT     H153810   0.451   4.548   9.334
17856WAT     H253811   0.533   4.407   9.350
17857WAT      O53812   7.463   4.071   5.172
17857WAT     H153813   7.525   4.078   5.250
17857WAT     H253814   7.422   3.980   5.170
17858WAT      O53815   0.748   6.163   5.704
17858WAT     H153816   0.728   6.087   5.766
17858WAT     H253817   0.698   6.151   5.618
17859WAT      O53818   9.335   2.172   2.256
17859WAT     H153819   9.289   2.228   2.326
17859WAT     H253820   9.266   2.132   2.195
17860WAT      O53821   3.941   3.471   0.206
17860WAT     H153822   4.006   3.461   0.281
17860WAT     H253823   3.983   3.524   0.132
17861WAT      O53824   8.998   8.898   6.328
17861WAT     H153825   8.970   8.846   6.409
17861WAT     H253826   9.097   8.890   6.316
17862WAT      O53827   0.404   2.905   2.747
17862WAT     H153828   0.306   2.916   2.733
17862WAT     H253829   0.450   2.890   2.660
17863WAT      O53830   1.805   1.975   5.054
17863WAT     H153831   1.738   1.903   5.032
17863WAT     H253832   1.859   1.946   5.133
17864WAT      O53833   5.347   8.129   2.190
17864WAT     H153834   5.395   8.099   2.107
17864WAT     H253835   5.411   8.130   2.267
17865WAT      O53836   6.140   0.428   8.773
17865WAT     H153837   6.076   0.383   8.836
17865WAT     H253838   6.146   0.525   8.795
17866WAT      O53839   7.508   5.995   4.925
17866WAT     H153840   7.501   5.898   4.948
17866WAT     H253841   7.445   6.016   4.850
17867WAT      O53842   5.654   7.689   0.462
17867WAT     H153843   5.729   7.630   0.432
17867WAT     H253844   5.675   7.725   0.553
17868WAT      O53845   4.733   4.698   0.955
17868WAT     H153846   4.747   4.797   0.944
17868WAT     H253847   4.729   4.676   1.052
17869WAT      O53848   2.227   3.241   6.791
17869WAT     H153849   2.162   3.281   6.726
17869WAT     H253850   2.182   3.168   6.842
17870WAT      O53851   9.657   4.506   2.248
17870WAT     H153852   9.693   4.539   2.336
17870WAT     H253853   9.672   4.407   2.241
17871WAT      O53854   3.676   9.247   3.818
17871WAT     H153855   3.614   9.303   3.872
17871WAT     H253856   3.704   9.166   3.870
17872WAT      O53857   6.397   1.704   4.712
17872WAT     H153858   6.333   1.727   4.785
17872WAT     H253859   6.491   1.714   4.746
17873WAT      O53860   5.494   0.411   6.737
17873WAT     H153861   5.454   0.498   6.708
17873WAT     H253862   5.522   0.359   6.656
17874WAT      O53863   8.944   5.738   8.247
17874WAT     H153864   8.859   5.732   8.299
17874WAT     H253865   8.982   5.646   8.234
17875WAT      O53866   3.360   9.788   2.423
17875WAT     H153867   3.390   9.734   2.502
17875WAT     H253868   3.266   9.764   2.400
17876WAT      O53869   2.859   7.935   8.461
17876WAT     H153870   2.885   7.839   8.465
17876WAT     H253871   2.825   7.965   8.550
17877WAT      O53872   8.866   0.870   1.103
17877WAT     H153873   8.965   0.879   1.114
17877WAT     H253874   8.844   0.778   1.072
17878WAT      O53875   2.434   5.880   2.655
17878WAT     H153876   2.387   5.804   2.610
17878WAT     H253877   2.520   5.897   2.608
17879WAT      O53878   8.980   5.373   1.261
17879WAT     H153879   8.940   5.462   1.238
17879WAT     H253880   8.948   5.304   1.197
17880WAT      O53881   6.654   5.447   8.587
17880WAT     H153882   6.570   5.409   8.549
17880WAT     H253883   6.676   5.533   8.541
17881WAT      O53884   0.497   0.280   8.440
17881WAT     H153885   0.441   0.198   8.448
17881WAT     H253886   0.578   0.260   8.385
17882WAT      O53887   0.801   3.171   3.921
17882WAT     H153888   0.726   3.137   3.865
17882WAT     H253889   0.803   3.121   4.007
17883WAT      O53890   9.264   4.679   2.566
17883WAT     H153891   9.176   4.637   2.541
17883WAT     H253892   9.324   4.680   2.486
17884WAT      O53893   1.269   6.388   5.573
17884WAT     H153894   1.212   6.319   5.618
17884WAT     H253895   1.364   6.377   5.602
17885WAT      O53896   8.172   3.897   4.560
17885WAT     H153897   8.178   3.929   4.466
17885WAT     H253898   8.220   3.810   4.568
17886WAT      O53899   0.562   9.526   3.265
17886WAT     H153900   0.577   9.435   3.302
17886WAT     H253901   0.484   9.568   3.310
17887WAT      O53902   6.321   8.304   9.677
17887WAT     H153903   6.271   8.250   9.609
17887WAT     H253904   6.417   8.280   9.675
17888WAT      O53905   4.017   5.954   0.850
17888WAT     H153906   3.956   6.031   0.868
17888WAT     H253907   4.112   5.983   0.861
17889WAT      O53908   7.790   4.340   2.765
17889WAT     H153909   7.882   4.336   2.725
17889WAT     H253910   7.789   4.293   2.853
17890WAT      O53911   0.955   0.560   1.815
17890WAT     H153912   0.947   0.473   1.863
17890WAT     H253913   0.925   0.634   1.875
17891WAT      O53914   5.031   6.685   5.972
17891WAT     H153915   5.008   6.652   5.881
17891WAT     H253916   4.953   6.672   6.033
17892WAT      O53917   8.580   8.315   0.883
17892WAT     H153918   8.566   8.252   0.807
17892WAT     H253919   8.630   8.396   0.851
17893WAT      O53920   4.208   7.314   2.368
17893WAT     H153921   4.225   7.393   2.310
17893WAT     H253922   4.120   7.324   2.415
17894WAT      O53923   7.896   0.721   1.390
17894WAT     H153924   7.862   0.815   1.402
17894WAT     H253925   7.857   0.663   1.462
17895WAT      O53926   0.090   0.650   8.394
17895WAT     H153927   0.085   0.722   8.463
17895WAT     H253928   0.169   0.592   8.413
17896WAT      O53929   1.628   5.563   5.207
17896WAT     H153930   1.599   5.499   5.277
17896WAT     H253931   1.619   5.521   5.117
17897WAT      O53932   1.832   7.175   7.889
17897WAT     H153933   1.871   7.183   7.980
17897WAT     H253934   1.891   7.117   7.832
17898WAT      O53935   3.438   7.770   5.023
17898WAT     H153936   3.357   7.790   4.968
17898WAT     H253937   3.468   7.854   5.069
17899WAT      O53938   0.351   4.214   3.065
17899WAT     H153939   0.437   4.251   3.029
17899WAT     H253940   0.369   4.158   3.146
17900WAT      O53941   4.466   6.097   1.250
17900WAT     H153942   4.517   6.180   1.231
17900WAT     H253943   4.526   6.030   1.293
17901WAT      O53944   0.558   3.467   6.983
17901WAT     H153945   0.620   3.438   6.910
17901WAT     H253946   0.480   3.514   6.944
17902WAT      O53947   2.913   0.320   5.562
17902WAT     H153948   2.962   0.263   5.628
17902WAT     H253949   2.973   0.394   5.532
17903WAT      O53950   2.062   6.111   5.695
17903WAT     H153951   2.062   6.015   5.723
17903WAT     H253952   2.136   6.126   5.629
17904WAT      O53953   9.693   5.808   1.985
17904WAT     H153954   9.662   5.842   1.896
17904WAT     H253955   9.686   5.709   1.988
17905WAT      O53956   1.524   5.277   1.628
17905WAT     H153957   1.623   5.269   1.640
17905WAT     H253958   1.478   5.211   1.688
17906WAT      O53959   0.580   4.762   3.357
17906WAT     H153960   0.548   4.703   3.283
17906WAT     H253961   0.508   4.827   3.381
17907WAT      O53962   4.253   6.003   6.330
17907WAT     H153963   4.206   6.043   6.251
17907WAT     H253964   4.325   6.066   6.360
17908WAT      O53965   1.446   6.956   4.585
17908WAT     H153966   1.465   7.050   4.612
17908WAT     H253967   1.381   6.915   4.649
17909WAT      O53968   3.548   2.125   8.479
17909WAT     H153969   3.452   2.105   8.461
17909WAT     H253970   3.594   2.149   8.393
17910WAT      O53971   6.917   7.055   0.314
17910WAT     H153972   6.908   6.979   0.250
17910WAT     H253973   6.973   7.127   0.274
17911WAT      O53974   7.642   0.703   6.591
17911WAT     H153975   7.630   0.765   6.669
17911WAT     H253976   7.634   0.755   6.506
17912WAT      O53977   2.779   2.545   1.100
17912WAT     H153978   2.840   2.474   1.135
17912WAT     H253979   2.684   2.514   1.109
17913WAT      O53980   3.527   0.007   2.733
17913WAT     H153981   3.437   0.045   2.713
17913WAT     H253982   3.593   0.080   2.744
17914WAT      O53983   1.297   6.940   0.944
17914WAT     H153984   1.240   7.021   0.930
17914WAT     H253985   1.241   6.866   0.983
17915WAT      O53986   6.775   1.987   5.867
17915WAT     H153987   6.813   1.990   5.775
17915WAT     H253988   6.706   2.059   5.878
17916WAT      O53989   0.723   9.186   5.562
17916WAT     H153990   0.698   9.282   5.550
17916WAT     H253991   0.688   9.133   5.485
17917WAT      O53992   4.150   0.317   4.497
17917WAT     H153993   4.165   0.246   4.428
17917WAT     H253994   4.066   0.297   4.548
17918WAT      O53995   6.983   1.743   9.581
17918WAT     H153996   6.929   1.818   9.617
17918WAT     H253997   7.077   1.773   9.565
17919WAT      O53998   0.913   8.665   7.076
17919WAT     H153999   0.844   8.725   7.117
17919WAT     H254000   0.929   8.587   7.136
17920WAT      O54001   5.577   9.151   3.895
17920WAT     H154002   5.478   9.162   3.900
17920WAT     H254003   5.621   9.240   3.894
17921WAT      O54004   0.315   8.548   9.096
17921WAT     H154005   0.281   8.605   9.021
17921WAT     H254006   0.268   8.574   9.181
17922WAT      O54007   4.074   1.067   6.004
17922WAT     H154008   4.112   1.085   5.913
17922WAT     H254009   3.994   1.008   5.996
17923WAT      O54010   4.634   9.724   2.284
17923WAT     H154011   4.732   9.716   2.303
17923WAT     H254012   4.585   9.650   2.330
17924WAT      O54013   7.346   1.216   8.129
17924WAT     H154014   7.431   1.165   8.116
17924WAT     H254015   7.287   1.203   8.050
17925WAT      O54016   8.859   1.313   7.895
17925WAT     H154017   8.940   1.259   7.874
17925WAT     H254018   8.822   1.352   7.811
17926WAT      O54019   6.567   0.226   1.989
17926WAT     H154020   6.544   0.225   1.891
17926WAT     H254021   6.531   0.145   2.033
17927WAT      O54022   8.046   0.784   7.217
17927WAT     H154023   8.109   0.854   7.250
17927WAT     H254024   8.055   0.702   7.273
17928WAT      O54025   7.630   1.329   3.632
17928WAT     H154026   7.606   1.250   3.689
17928WAT     H254027   7.701   1.382   3.677
17929WAT      O54028   9.153   3.408   6.552
17929WAT     H154029   9.204   3.442   6.630
17929WAT     H254030   9.082   3.345   6.583
17930WAT      O54031   5.828   7.315   6.829
17930WAT     H154032   5.767   7.378   6.877
17930WAT     H254033   5.773   7.246   6.781
17931WAT      O54034   0.108   4.074   1.106
17931WAT     H154035   0.155   3.993   1.071
17931WAT     H254036   0.168   4.154   1.098
17932WAT      O54037   4.663   8.363   0.764
17932WAT     H154038   4.720   8.389   0.686
17932WAT     H254039   4.620   8.275   0.746
17933WAT      O54040   8.860   6.491   8.733
17933WAT     H154041   8.926   6.420   8.759
17933WAT     H254042   8.801   6.456   8.660
17934WAT      O54043   9.446   2.692   4.098
17934WAT     H154044   9.449   2.612   4.158
17934WAT     H254045   9.537   2.730   4.089
17935WAT      O54046   5.571   1.853   1.488
17935WAT     H154047   5.509   1.801   1.430
17935WAT     H254048   5.592   1.801   1.571
17936WAT      O54049   8.948   2.061   2.918
17936WAT     H154050   9.021   2.039   2.853
17936WAT     H254051   8.944   1.991   2.989
17937WAT      O54052   7.196   8.835   1.020
17937WAT     H154053   7.273   8.882   0.977
17937WAT     H254054   7.202   8.737   1.002
17938WAT      O54055   3.531   8.264   2.828
17938WAT     H154056   3.493   8.176   2.797
17938WAT     H254057   3.551   8.258   2.926
17939WAT      O54058   6.708   6.239   8.412
17939WAT     H154059   6.806   6.247   8.431
17939WAT     H254060   6.684   6.142   8.404
17940WAT      O54061   7.636   9.808   2.539
17940WAT     H154062   7.589   9.795   2.451
17940WAT     H254063   7.570   9.798   2.613
17941WAT      O54064   1.926   9.800   4.458
17941WAT     H154065   1.866   9.725   4.485
17941WAT     H254066   1.874   9.865   4.402
17942WAT      O54067   4.285   9.365   3.064
17942WAT     H154068   4.306   9.267   3.057
17942WAT     H254069   4.361   9.413   3.108
17943WAT      O54070   5.727   5.101   1.578
17943WAT     H154071   5.700   5.026   1.638
17943WAT     H254072   5.824   5.092   1.555
17944WAT      O54073   8.303   5.096   2.989
17944WAT     H154074   8.286   5.109   2.891
17944WAT     H254075   8.288   5.000   3.013
17945WAT      O54076   9.225   3.547   8.603
17945WAT     H154077   9.251   3.562   8.507
17945WAT     H254078   9.307   3.551   8.660
17946WAT      O54079   7.668   4.600   6.246
17946WAT     H154080   7.591   4.603   6.182
17946WAT     H254081   7.747   4.560   6.200
17947WAT      O54082   4.386   1.191   1.231
17947WAT     H154083   4.472   1.238   1.251
17947WAT     H254084   4.404   1.108   1.178
17948WAT      O54085   5.174   7.341   4.878
17948WAT     H154086   5.232   7.267   4.844
17948WAT     H254087   5.083   7.306   4.898
17949WAT      O54088   2.736   2.834   7.379
17949WAT     H154089   2.831   2.806   7.394
17949WAT     H254090   2.680   2.752   7.365
17950WAT      O54091   7.991   3.795   2.576
17950WAT     H154092   7.951   3.877   2.614
17950WAT     H254093   7.921   3.743   2.527
17951WAT      O54094   7.165   6.198   2.984
17951WAT     H154095   7.146   6.196   3.082
17951WAT     H254096   7.253   6.243   2.967
17952WAT      O54097   0.095   9.774   1.535
17952WAT     H154098   0.041   9.797   1.616
17952WAT     H254099   0.062   9.828   1.457
17953WAT      O54100   7.186   9.678   0.555
17953WAT     H154101   7.235   9.600   0.596
17953WAT     H254102   7.246   9.724   0.490
17954WAT      O54103   7.238   3.872   1.062
17954WAT     H154104   7.331   3.905   1.075
17954WAT     H254105   7.219   3.799   1.128
17955WAT      O54106   1.046   4.845   1.391
17955WAT     H154107   0.985   4.907   1.341
17955WAT     H254108   1.121   4.897   1.432
17956WAT      O54109   7.237   7.822   0.210
17956WAT     H154110   7.247   7.898   0.275
17956WAT     H254111   7.292   7.842   0.128
17957WAT      O54112   2.717   0.582   1.988
17957WAT     H154113   2.635   0.636   2.004
17957WAT     H254114   2.756   0.604   1.898
17958WAT      O54115   0.401   4.131   8.100
17958WAT     H154116   0.372   4.194   8.172
17958WAT     H254117   0.389   4.174   8.011
17959WAT      O54118   0.675   1.496   6.780
17959WAT     H154119   0.612   1.571   6.761
17959WAT     H254120   0.727   1.475   6.697
17960WAT      O54121   4.491   0.687   0.464
17960WAT     H154122   4.545   0.645   0.391
17960WAT     H254123   4.437   0.763   0.425
17961WAT      O54124   6.849   1.363   5.585
17961WAT     H154125   6.836   1.458   5.558
17961WAT     H254126   6.775   1.307   5.546
17962WAT      O54127   1.972   7.622   9.586
17962WAT     H154128   2.018   7.657   9.505
17962WAT     H254129   1.909   7.691   9.622
17963WAT      O54130   5.226   6.989   7.979
17963WAT     H154131   5.318   7.001   8.017
17963WAT     H254132   5.158   7.028   8.040
17964WAT      O54133   9.481   0.943   7.519
17964WAT     H154134   9.526   0.888   7.449
17964WAT     H254135   9.444   1.026   7.478
17965WAT      O54136   6.596   9.580   1.494
17965WAT     H154137   6.633   9.489   1.510
17965WAT     H254138   6.496   9.577   1.501
17966WAT      O54139   2.132   0.118   0.035
17966WAT     H154140   2.109   0.119  -0.062
17966WAT     H254141   2.179   0.032   0.058
17967WAT      O54142   4.785   6.601   6.113
17967WAT     H154143   4.758   6.539   6.039
17967WAT     H254144   4.832   6.549   6.184
17968WAT      O54145   3.661   4.017   8.983
17968WAT     H154146   3.684   3.921   8.997
17968WAT     H254147   3.743   4.073   8.990
17969WAT      O54148   0.727   7.767   8.242
17969WAT     H154149   0.782   7.690   8.211
17969WAT     H254150   0.755   7.850   8.194
17970WAT      O54151   8.413   3.246   4.753
17970WAT     H154152   8.316   3.263   4.739
17970WAT     H254153   8.437   3.158   4.712
17971WAT      O54154   7.402   1.240   1.241
17971WAT     H154155   7.401   1.280   1.149
17971WAT     H254156   7.312   1.254   1.284
17972WAT      O54157   2.653   2.238   5.143
17972WAT     H154158   2.617   2.260   5.233
17972WAT     H254159   2.595   2.279   5.073
17973WAT      O54160   6.071   6.050   3.825
17973WAT     H154161   6.123   5.974   3.787
17973WAT     H254162   5.983   6.017   3.859
17974WAT      O54163   8.968   6.551   7.498
17974WAT     H154164   8.873   6.557   7.528
17974WAT     H254165   8.971   6.514   7.405
17975WAT      O54166   1.667   8.932   4.320
17975WAT     H154167   1.615   8.848   4.303
17975WAT     H254168   1.648   8.997   4.246
17976WAT      O54169   9.222   5.624   5.083
17976WAT     H154170   9.165   5.574   5.149
17976WAT     H254171   9.316   5.628   5.116
17977WAT      O54172   6.934   2.888   1.871
17977WAT     H154173   6.922   2.871   1.774
17977WAT     H254174   7.005   2.828   1.908
17978WAT      O54175   4.144   2.474   7.332
17978WAT     H154176   4.083   2.451   7.407
17978WAT     H254177   4.188   2.391   7.297
17979WAT      O54178   5.028   1.861   1.551
17979WAT     H154179   5.010   1.959   1.550
17979WAT     H254180   5.125   1.844   1.536
17980WAT      O54181   0.679   2.602   5.740
17980WAT     H154182   0.591   2.602   5.787
17980WAT     H254183   0.666   2.625   5.644
17981WAT      O54184   4.364   1.452   3.939
17981WAT     H154185   4.332   1.518   3.871
17981WAT     H254186   4.444   1.403   3.903
17982WAT      O54187   7.282   7.546   7.213
17982WAT     H154188   7.318   7.556   7.305
17982WAT     H254189   7.219   7.468   7.210
17983WAT      O54190   8.379   2.427   0.903
17983WAT     H154191   8.442   2.352   0.923
17983WAT     H254192   8.381   2.448   0.805
17984WAT      O54193   7.727   5.107   0.773
17984WAT     H154194   7.668   5.072   0.700
17984WAT     H254195   7.753   5.031   0.833
17985WAT      O54196   6.029   5.503   3.190
17985WAT     H154197   5.975   5.517   3.108
17985WAT     H254198   5.971   5.511   3.271
17986WAT      O54199   5.498   5.135   8.156
17986WAT     H154200   5.408   5.140   8.113
17986WAT     H254201   5.569   5.144   8.087
17987WAT      O54202   8.578   9.184   9.373
17987WAT     H154203   8.537   9.101   9.412
17987WAT     H254204   8.577   9.257   9.442
17988WAT      O54205   5.826   3.123   7.610
17988WAT     H154206   5.884   3.109   7.690
17988WAT     H254207   5.862   3.198   7.555
17989WAT      O54208   9.803   5.491   9.359
17989WAT     H154209   9.883   5.439   9.329
17989WAT     H254210   9.832   5.581   9.393
17990WAT      O54211   0.273   3.383   9.030
17990WAT     H154212   0.337   3.315   9.066
17990WAT     H254213   0.247   3.358   8.937
17991WAT      O54214   7.555   0.979   1.978
17991WAT     H154215   7.611   0.909   1.934
17991WAT     H254216   7.615   1.042   2.028
17992WAT      O54217   5.563   3.576   0.630
17992WAT     H154218   5.586   3.482   0.652
17992WAT     H254219   5.625   3.609   0.558
17993WAT      O54220   1.634   1.537   8.595
17993WAT     H154221   1.571   1.609   8.567
17993WAT     H254222   1.707   1.528   8.527
17994WAT      O54223   8.593   5.392   3.054
17994WAT     H154224   8.529   5.431   2.988
17994WAT     H254225   8.555   5.397   3.146
17995WAT      O54226   9.803   0.087   9.867
17995WAT     H154227   9.786   0.185   9.863
17995WAT     H254228   9.850   0.058   9.783
17996WAT      O54229   4.298   7.056   0.611
17996WAT     H154230   4.208   7.015   0.626
17996WAT     H254231   4.323   7.112   0.690
17997WAT      O54232   5.368   9.235   7.903
17997WAT     H154233   5.450   9.187   7.871
17997WAT     H254234   5.356   9.320   7.852
17998WAT      O54235   8.087   1.573   0.253
17998WAT     H154236   8.024   1.650   0.240
17998WAT     H254237   8.180   1.604   0.235
17999WAT      O54238   6.586   0.570   1.430
17999WAT     H154239   6.636   0.647   1.391
17999WAT     H254240   6.621   0.552   1.522
18000WAT      O54241   8.602   8.169   4.738
18000WAT     H154242   8.542   8.090   4.724
18000WAT     H254243   8.681   8.141   4.791
18001WAT      O54244   1.494   3.114   9.427
18001WAT     H154245   1.464   3.106   9.522
18001WAT     H254246   1.418   3.093   9.366
18002WAT      O54247   3.758   1.533   7.451
18002WAT     H154248   3.803   1.536   7.361
18002WAT     H254249   3.747   1.627   7.485
18003WAT      O54250   0.536   6.351   2.917
18003WAT     H154251   0.613   6.349   2.853
18003WAT     H254252   0.459   6.300   2.878
18004WAT      O54253   9.032   2.962   8.953
18004WAT     H154254   8.935   2.946   8.936
18004WAT     H254255   9.081   2.969   8.866
18005WAT      O54256   9.084   0.400   4.841
18005WAT     H154257   8.994   0.428   4.807
18005WAT     H254258   9.073   0.343   4.922
18006WAT      O54259   8.141   4.249   4.769
18006WAT     H154260   8.226   4.278   4.726
18006WAT     H254261   8.143   4.151   4.785
18007WAT      O54262   8.562   0.084   7.893
18007WAT     H154263   8.602   0.139   7.820
18007WAT     H254264   8.578  -0.013   7.876
18008WAT      O54265   1.157   5.931   7.144
18008WAT     H154266   1.191   5.906   7.234
18008WAT     H254267   1.136   6.029   7.142
18009WAT      O54268   1.224   6.178   1.743
18009WAT     H154269   1.304   6.227   1.709
18009WAT     H254270   1.147   6.241   1.752
18010WAT      O54271   5.703   0.166   9.220
18010WAT     H154272   5.786   0.111   9.211
18010WAT     H254273   5.676   0.200   9.130
18011WAT      O54274   9.874   4.268   6.775
18011WAT     H154275   9.935   4.244   6.851
18011WAT     H254276   9.907   4.351   6.731
18012WAT      O54277   4.493   4.659   9.560
18012WAT     H154278   4.405   4.616   9.540
18012WAT     H254279   4.567   4.593   9.543
18013WAT      O54280   9.829   0.836   0.934
18013WAT     H154281   9.866   0.927   0.918
18013WAT     H254282   9.857   0.803   1.024
18014WAT      O54283   7.024   7.198   2.929
18014WAT     H154284   7.086   7.146   2.987
18014WAT     H254285   7.077   7.250   2.861
18015WAT      O54286   9.831   1.843   4.668
18015WAT     H154287   9.879   1.803   4.746
18015WAT     H254288   9.863   1.936   4.653
18016WAT      O54289   3.201   6.146   6.903
18016WAT     H154290   3.212   6.152   7.002
18016WAT     H254291   3.259   6.216   6.859
18017WAT      O54292   4.100   5.198   9.685
18017WAT     H154293   4.038   5.256   9.737
18017WAT     H254294   4.129   5.121   9.743
18018WAT      O54295   9.821   3.798   3.159
18018WAT     H154296   9.916   3.782   3.133
18018WAT     H254297   9.779   3.712   3.188
18019WAT      O54298   2.735   8.448   9.171
18019WAT     H154299   2.784   8.470   9.086
18019WAT     H254300   2.802   8.423   9.241
18020WAT      O54301   7.976   7.509   4.204
18020WAT     H154302   7.918   7.582   4.169
18020WAT     H254303   7.925   7.453   4.269
18021WAT      O54304   5.323   7.732   5.715
18021WAT     H154305   5.366   7.794   5.649
18021WAT     H254306   5.223   7.744   5.712
18022WAT      O54307   4.241   6.049   5.727
18022WAT     H154308   4.157   6.028   5.676
18022WAT     H254309   4.305   6.097   5.667
18023WAT      O54310   3.957   6.624   2.611
18023WAT     H154311   3.899   6.580   2.681
18023WAT     H254312   4.053   6.613   2.636
18024WAT      O54313   4.836   2.408   9.575
18024WAT     H154314   4.795   2.368   9.493
18024WAT     H254315   4.802   2.361   9.656
18025WAT      O54316   7.382   2.860   9.438
18025WAT     H154317   7.458   2.866   9.372
18025WAT     H254318   7.372   2.948   9.484
18026WAT      O54319   4.032   9.243   6.053
18026WAT     H154320   4.119   9.197   6.072
18026WAT     H254321   3.959   9.197   6.103
18027WAT      O54322   6.770   3.797   7.246
18027WAT     H154323   6.855   3.754   7.275
18027WAT     H254324   6.726   3.841   7.324
18028WAT      O54325   9.195   2.988   0.546
18028WAT     H154326   9.263   3.026   0.609
18028WAT     H254327   9.189   2.889   0.559
18029WAT      O54328   4.358   4.815   3.433
18029WAT     H154329   4.268   4.858   3.439
18029WAT     H254330   4.385   4.809   3.337
18030WAT      O54331   3.056   9.498   8.790
18030WAT     H154332   3.010   9.517   8.877
18030WAT     H254333   3.007   9.426   8.742
18031WAT      O54334   1.441   7.274   3.484
18031WAT     H154335   1.530   7.244   3.450
18031WAT     H254336   1.447   7.292   3.582
18032WAT      O54337   6.866   0.272   7.445
18032WAT     H154338   6.874   0.275   7.345
18032WAT     H254339   6.779   0.230   7.470
18033WAT      O54340   5.987   0.363   0.918
18033WAT     H154341   6.078   0.321   0.921
18033WAT     H254342   5.993   0.456   0.953
18034WAT      O54343   5.976   2.219   8.213
18034WAT     H154344   6.024   2.149   8.266
18034WAT     H254345   6.017   2.308   8.231
18035WAT      O54346   6.104   5.640   7.408
18035WAT     H154347   6.082   5.703   7.483
18035WAT     H254348   6.020   5.601   7.371
18036WAT      O54349   9.261   8.595   8.549
18036WAT     H154350   9.192   8.661   8.518
18036WAT     H254351   9.220   8.504   8.552
18037WAT      O54352   3.307   7.389   1.222
18037WAT     H154353   3.371   7.314   1.240
18037WAT     H254354   3.214   7.352   1.220
18038WAT      O54355   0.643   3.506   1.416
18038WAT     H154356   0.547   3.532   1.422
18038WAT     H254357   0.692   3.573   1.360
18039WAT      O54358   8.754   9.828   7.606
18039WAT     H154359   8.850   9.821   7.580
18039WAT     H254360   8.713   9.737   7.608
18040WAT      O54361   5.207   2.392   8.324
18040WAT     H154362   5.174   2.431   8.410
18040WAT     H254363   5.246   2.465   8.268
18041WAT      O54364   2.830   6.047   3.913
18041WAT     H154365   2.762   5.982   3.946
18041WAT     H254366   2.916   5.998   3.893
18042WAT      O54367   3.175   2.224   2.072
18042WAT     H154368   3.160   2.127   2.052
18042WAT     H254369   3.240   2.262   2.006
18043WAT      O54370   6.372   5.994   6.246
18043WAT     H154371   6.451   5.937   6.223
18043WAT     H254372   6.333   5.963   6.332
18044WAT      O54373   2.325   8.744   5.840
18044WAT     H154374   2.271   8.814   5.886
18044WAT     H254375   2.370   8.685   5.907
18045WAT      O54376   7.534   5.206   4.437
18045WAT     H154377   7.577   5.119   4.462
18045WAT     H254378   7.474   5.192   4.359
18046WAT      O54379   4.652   9.378   6.747
18046WAT     H154380   4.644   9.460   6.691
18046WAT     H254381   4.623   9.398   6.841
18047WAT      O54382   1.748   4.327   6.270
18047WAT     H154383   1.777   4.247   6.323
18047WAT     H254384   1.827   4.367   6.223
18048WAT      O54385   4.038   1.627   6.856
18048WAT     H154386   4.091   1.581   6.927
18048WAT     H254387   3.954   1.575   6.837
18049WAT      O54388   9.676   8.690   9.769
18049WAT     H154389   9.746   8.642   9.717
18049WAT     H254390   9.592   8.695   9.715
18050WAT      O54391   7.523   5.855   1.792
18050WAT     H154392   7.556   5.928   1.733
18050WAT     H254393   7.441   5.813   1.752
18051WAT      O54394   9.308   8.663   4.676
18051WAT     H154395   9.361   8.703   4.751
18051WAT     H254396   9.212   8.657   4.703
18052WAT      O54397   3.620   5.107   3.421
18052WAT     H154398   3.625   5.101   3.521
18052WAT     H254399   3.703   5.066   3.382
18053WAT      O54400   5.493   8.394   5.025
18053WAT     H154401   5.425   8.353   5.086
18053WAT     H254402   5.548   8.459   5.077
18054WAT      O54403   0.887   3.085   1.979
18054WAT     H154404   0.965   3.106   2.038
18054WAT     H254405   0.918   3.083   1.883
18055WAT      O54406   4.800   2.607   9.219
18055WAT     H154407   4.822   2.647   9.130
18055WAT     H254408   4.850   2.522   9.230
18056WAT      O54409   6.021   7.000   9.048
18056WAT     H154410   5.944   6.956   9.000
18056WAT     H254411   6.018   7.099   9.032
18057WAT      O54412   5.360   5.715   7.337
18057WAT     H154413   5.355   5.619   7.367
18057WAT     H254414   5.433   5.761   7.388
18058WAT      O54415   5.368   0.246   4.580
18058WAT     H154416   5.433   0.215   4.510
18058WAT     H254417   5.406   0.327   4.626
18059WAT      O54418   4.171   4.435   0.128
18059WAT     H154419   4.076   4.409   0.144
18059WAT     H254420   4.231   4.383   0.189
18060WAT      O54421   3.592   9.774   2.261
18060WAT     H154422   3.623   9.869   2.256
18060WAT     H254423   3.507   9.769   2.315
18061WAT      O54424   8.949   5.496   0.072
18061WAT     H154425   9.031   5.450   0.106
18061WAT     H254426   8.899   5.537   0.149
18062WAT      O54427   3.303   9.846   1.944
18062WAT     H154428   3.222   9.834   1.886
18062WAT     H254429   3.292   9.792   2.028
18063WAT      O54430   1.211   0.696   2.030
18063WAT     H154431   1.157   0.709   2.113
18063WAT     H254432   1.181   0.762   1.961
18064WAT      O54433   1.305   5.422   5.445
18064WAT     H154434   1.244   5.497   5.467
18064WAT     H254435   1.388   5.429   5.500
18065WAT      O54436   5.757   5.796   7.699
18065WAT     H154437   5.723   5.732   7.768
18065WAT     H254438   5.777   5.884   7.742
18066WAT      O54439   1.396   4.061   2.075
18066WAT     H154440   1.327   4.134   2.076
18066WAT     H254441   1.442   4.061   1.986
18067WAT      O54442   8.294   0.527   6.590
18067WAT     H154443   8.206   0.495   6.623
18067WAT     H254444   8.304   0.624   6.611
18068WAT      O54445   4.138   9.678   0.618
18068WAT     H154446   4.138   9.698   0.520
18068WAT     H254447   4.169   9.584   0.633
18069WAT      O54448   7.841   6.535   6.219
18069WAT     H154449   7.842   6.634   6.209
18069WAT     H254450   7.794   6.493   6.141
18070WAT      O54451   8.361   1.618   3.407
18070WAT     H154452   8.419   1.604   3.326
18070WAT     H254453   8.337   1.714   3.414
18071WAT      O54454   9.621   5.909   5.449
18071WAT     H154455   9.691   5.919   5.519
18071WAT     H254456   9.590   5.813   5.447
18072WAT      O54457   2.580   1.842   5.338
18072WAT     H154458   2.652   1.860   5.271
18072WAT     H254459   2.615   1.859   5.430
18073WAT      O54460   1.821   2.360   7.466
18073WAT     H154461   1.810   2.267   7.430
18073WAT     H254462   1.732   2.399   7.486
18074WAT      O54463   4.364   7.708   4.221
18074WAT     H154464   4.358   7.633   4.156
18074WAT     H254465   4.438   7.770   4.193
18075WAT      O54466   1.596   6.755   3.873
18075WAT     H154467   1.575   6.755   3.970
18075WAT     H254468   1.557   6.836   3.830
18076WAT      O54469   5.898   7.867   3.559
18076WAT     H154470   5.869   7.826   3.645
18076WAT     H254471   5.835   7.940   3.533
18077WAT      O54472   4.929   3.741   8.104
18077WAT     H154473   4.911   3.787   8.018
18077WAT     H254474   4.845   3.694   8.135
18078WAT      O54475   0.966   6.149   2.195
18078WAT     H154476   1.063   6.139   2.216
18078WAT     H254477   0.928   6.224   2.250
18079WAT      O54478   6.044   0.102   0.772
18079WAT     H154479   5.963   0.066   0.818
18079WAT     H254480   6.096   0.158   0.837
18080WAT      O54481   4.062   8.540   8.376
18080WAT     H154482   4.038   8.531   8.279
18080WAT     H254483   3.995   8.491   8.431
18081WAT      O54484   5.059   1.225   6.172
18081WAT     H154485   4.968   1.252   6.204
18081WAT     H254486   5.058   1.219   6.072
18082WAT      O54487   8.834   9.166   1.750
18082WAT     H154488   8.868   9.113   1.672
18082WAT     H254489   8.908   9.219   1.790
18083WAT      O54490   6.221   3.101   8.987
18083WAT     H154491   6.293   3.035   9.007
18083WAT     H254492   6.180   3.132   9.072
18084WAT      O54493   4.404   0.402   8.039
18084WAT     H154494   4.386   0.348   8.122
18084WAT     H254495   4.442   0.342   7.968
18085WAT      O54496   1.730   6.649   0.532
18085WAT     H154497   1.736   6.607   0.622
18085WAT     H254498   1.643   6.698   0.523
18086WAT      O54499   5.741   3.417   3.526
18086WAT     H154500   5.808   3.443   3.595
18086WAT     H254501   5.659   3.381   3.571
18087WAT      O54502   2.459   3.631   8.953
18087WAT     H154503   2.506   3.573   8.886
18087WAT     H254504   2.367   3.595   8.969
18088WAT      O54505   3.016   5.832   1.434
18088WAT     H154506   2.957   5.820   1.354
18088WAT     H254507   3.108   5.797   1.413
18089WAT      O54508   2.656   2.776   0.693
18089WAT     H154509   2.617   2.766   0.602
18089WAT     H254510   2.652   2.687   0.740
18090WAT      O54511   6.123   8.151   5.978
18090WAT     H154512   6.220   8.154   6.002
18090WAT     H254513   6.096   8.056   5.957
18091WAT      O54514   0.133   8.693   8.224
18091WAT     H154515   0.068   8.636   8.174
18091WAT     H254516   0.105   8.789   8.216
18092WAT      O54517   5.927   0.078   1.288
18092WAT     H154518   5.884   0.127   1.212
18092WAT     H254519   6.006   0.130   1.321
18093WAT      O54520   8.537   0.519   8.956
18093WAT     H154521   8.628   0.501   8.994
18093WAT     H254522   8.492   0.433   8.935
18094WAT      O54523   6.697   0.947   7.897
18094WAT     H154524   6.796   0.947   7.881
18094WAT     H254525   6.649   0.967   7.811
18095WAT      O54526   7.985   7.201   1.450
18095WAT     H154527   7.949   7.111   1.472
18095WAT     H254528   8.058   7.192   1.382
18096WAT      O54529   1.532   4.567   4.293
18096WAT     H154530   1.551   4.479   4.337
18096WAT     H254531   1.434   4.587   4.300
18097WAT      O54532   4.422   0.995   1.985
18097WAT     H154533   4.343   1.055   1.980
18097WAT     H254534   4.464   0.986   1.895
18098WAT      O54535   6.283   1.336   5.609
18098WAT     H154536   6.257   1.431   5.598
18098WAT     H254537   6.331   1.324   5.696
18099WAT      O54538   1.112   0.661   5.619
18099WAT     H154539   1.135   0.758   5.609
18099WAT     H254540   1.139   0.630   5.710
18100WAT      O54541   8.317   6.364   7.368
18100WAT     H154542   8.344   6.292   7.304
18100WAT     H254543   8.312   6.326   7.461
18101WAT      O54544   3.134   3.284   2.810
18101WAT     H154545   3.124   3.203   2.868
18101WAT     H254546   3.074   3.357   2.843
18102WAT      O54547   8.953   7.068   7.949
18102WAT     H154548   8.955   6.977   7.908
18102WAT     H254549   8.906   7.131   7.887
18103WAT      O54550   0.400   7.647   8.154
18103WAT     H154551   0.399   7.726   8.093
18103WAT     H254552   0.307   7.612   8.164
18104WAT      O54553   7.681   8.191   4.898
18104WAT     H154554   7.728   8.106   4.922
18104WAT     H254555   7.590   8.191   4.939
18105WAT      O54556   9.490   1.809   9.584
18105WAT     H154557   9.494   1.711   9.607
18105WAT     H254558   9.486   1.820   9.485
18106WAT      O54559   7.986   1.412   7.266
18106WAT     H154560   8.075   1.368   7.280
18106WAT     H254561   7.920   1.375   7.331
18107WAT      O54562   6.008   5.779   7.619
18107WAT     H154563   5.912   5.765   7.644
18107WAT     H254564   6.064   5.783   7.701
18108WAT      O54565   6.552   7.064   2.048
18108WAT     H154566   6.554   6.984   2.108
18108WAT     H254567   6.612   7.135   2.085
18109WAT      O54568   1.025   5.678   0.178
18109WAT     H154569   1.071   5.759   0.143
18109WAT     H254570   0.926   5.691   0.174
18110WAT      O54571   4.136   3.263   4.163
18110WAT     H154572   4.185   3.326   4.223
18110WAT     H254573   4.096   3.314   4.087
18111WAT      O54574   5.911   1.638   3.960
18111WAT     H154575   5.885   1.579   4.036
18111WAT     H254576   5.947   1.582   3.885
18112WAT      O54577   3.370   9.392   2.770
18112WAT     H154578   3.409   9.417   2.859
18112WAT     H254579   3.415   9.444   2.698
18113WAT      O54580   6.690   8.227   4.750
18113WAT     H154581   6.631   8.160   4.794
18113WAT     H254582   6.637   8.280   4.684
18114WAT      O54583   0.392   9.426   9.833
18114WAT     H154584   0.377   9.479   9.750
18114WAT     H254585   0.304   9.392   9.867
18115WAT      O54586   0.782   8.043   7.159
18115WAT     H154587   0.835   7.971   7.116
18115WAT     H254588   0.728   8.091   7.089
18116WAT      O54589   5.947   1.661   9.838
18116WAT     H154590   5.959   1.567   9.806
18116WAT     H254591   6.011   1.679   9.912
18117WAT      O54592   8.757   8.800   8.226
18117WAT     H154593   8.825   8.727   8.228
18117WAT     H254594   8.681   8.774   8.166
18118WAT      O54595   7.984   3.525   4.290
18118WAT     H154596   7.925   3.445   4.285
18118WAT     H254597   8.018   3.547   4.198
18119WAT      O54598   9.870   2.287   2.497
18119WAT     H154599   9.880   2.359   2.566
18119WAT     H254600   9.796   2.226   2.523
18120WAT      O54601   0.186   0.418   8.626
18120WAT     H154602   0.090   0.399   8.607
18120WAT     H254603   0.238   0.416   8.540
18121WAT      O54604   9.620   2.029   3.220
18121WAT     H154605   9.541   2.067   3.269
18121WAT     H254606   9.635   2.081   3.136
18122WAT      O54607   1.950   7.328   5.359
18122WAT     H154608   1.914   7.412   5.400
18122WAT     H254609   2.050   7.327   5.366
18123WAT      O54610   1.842   4.831   6.569
18123WAT     H154611   1.915   4.896   6.549
18123WAT     H254612   1.816   4.783   6.485
18124WAT      O54613   9.144   9.268   2.729
18124WAT     H154614   9.084   9.327   2.675
18124WAT     H254615   9.091   9.219   2.797
18125WAT      O54616   8.812   1.572   6.683
18125WAT     H154617   8.883   1.626   6.638
18125WAT     H254618   8.847   1.480   6.701
18126WAT      O54619   2.150   3.059   2.785
18126WAT     H154620   2.104   3.066   2.874
18126WAT     H254621   2.093   3.005   2.723
18127WAT      O54622   6.739   9.544   0.284
18127WAT     H154623   6.761   9.557   0.381
18127WAT     H254624   6.659   9.598   0.260
18128WAT      O54625   4.042   4.522   5.794
18128WAT     H154626   4.082   4.442   5.749
18128WAT     H254627   4.101   4.601   5.780
18129WAT      O54628   5.296   0.420   5.500
18129WAT     H154629   5.323   0.363   5.578
18129WAT     H254630   5.342   0.509   5.506
18130WAT      O54631   0.176   7.299   1.779
18130WAT     H154632   0.262   7.261   1.813
18130WAT     H254633   0.185   7.322   1.682
18131WAT      O54634   1.522   8.113   9.342
18131WAT     H154635   1.466   8.152   9.268
18131WAT     H254636   1.510   8.013   9.343
18132WAT      O54637   4.743   0.357   8.982
18132WAT     H154638   4.690   0.307   9.051
18132WAT     H254639   4.693   0.357   8.896
18133WAT      O54640   9.451   3.890   8.922
18133WAT     H154641   9.494   3.869   8.834
18133WAT     H254642   9.354   3.868   8.918
18134WAT      O54643   1.858   8.019   1.834
18134WAT     H154644   1.839   7.951   1.905
18134WAT     H254645   1.785   8.015   1.765
18135WAT      O54646   1.250   3.034   3.615
18135WAT     H154647   1.254   3.133   3.630
18135WAT     H254648   1.166   3.013   3.564
18136WAT      O54649   3.466   9.500   3.003
18136WAT     H154650   3.482   9.490   3.101
18136WAT     H254651   3.483   9.595   2.977
18137WAT      O54652   0.726   5.705   7.709
18137WAT     H154653   0.693   5.626   7.659
18137WAT     H254654   0.649   5.767   7.727
18138WAT      O54655   4.979   1.655   5.946
18138WAT     H154656   4.970   1.747   5.984
18138WAT     H254657   5.021   1.662   5.855
18139WAT      O54658   1.355   2.974   9.242
18139WAT     H154659   1.422   2.923   9.296
18139WAT     H254660   1.272   2.920   9.231
18140WAT      O54661   4.209   1.197   1.987
18140WAT     H154662   4.222   1.284   2.034
18140WAT     H254663   4.151   1.211   1.906
18141WAT      O54664   9.605   7.343   0.254
18141WAT     H154665   9.703   7.365   0.248
18141WAT     H254666   9.554   7.426   0.275
18142WAT      O54667   3.767   3.573   8.118
18142WAT     H154668   3.863   3.582   8.090
18142WAT     H254669   3.760   3.506   8.191
18143WAT      O54670   7.474   7.035   3.757
18143WAT     H154671   7.551   7.095   3.734
18143WAT     H254672   7.418   7.078   3.828
18144WAT      O54673   1.821   4.078   8.791
18144WAT     H154674   1.744   4.111   8.736
18144WAT     H254675   1.906   4.090   8.742
18145WAT      O54676   1.759   6.444   3.236
18145WAT     H154677   1.763   6.349   3.206
18145WAT     H254678   1.731   6.503   3.161
18146WAT      O54679   0.983   2.124   1.534
18146WAT     H154680   0.900   2.094   1.582
18146WAT     H254681   1.031   2.191   1.591
18147WAT      O54682   7.216   6.801   7.257
18147WAT     H154683   7.123   6.771   7.237
18147WAT     H254684   7.227   6.897   7.230
18148WAT      O54685   0.054   1.042   2.531
18148WAT     H154686   0.146   1.039   2.494
18148WAT     H254687   0.056   1.024   2.629
18149WAT      O54688   1.522   1.733   7.062
18149WAT     H154689   1.513   1.751   7.160
18149WAT     H254690   1.573   1.648   7.049
18150WAT      O54691   9.342   2.184   9.744
18150WAT     H154692   9.369   2.219   9.654
18150WAT     H254693   9.404   2.110   9.771
18151WAT      O54694   0.836   0.840   1.857
18151WAT     H154695   0.783   0.778   1.799
18151WAT     H254696   0.773   0.902   1.904
18152WAT      O54697   6.370   6.587   3.545
18152WAT     H154698   6.275   6.558   3.543
18152WAT     H254699   6.391   6.639   3.462
18153WAT      O54700   5.864   4.601   0.821
18153WAT     H154701   5.902   4.631   0.908
18153WAT     H254702   5.898   4.661   0.748
18154WAT      O54703   4.483   0.356   2.368
18154WAT     H154704   4.461   0.441   2.416
18154WAT     H254705   4.418   0.285   2.394
18155WAT      O54706   6.420   4.495   8.193
18155WAT     H154707   6.405   4.551   8.112
18155WAT     H254708   6.466   4.411   8.167
18156WAT      O54709   6.111   0.973   3.891
18156WAT     H154710   6.169   1.026   3.954
18156WAT     H254711   6.029   0.943   3.939
18157WAT      O54712   0.188   8.953   1.045
18157WAT     H154713   0.255   8.878   1.044
18157WAT     H254714   0.221   9.025   1.107
18158WAT      O54715   6.678   0.505   2.706
18158WAT     H154716   6.726   0.466   2.628
18158WAT     H254717   6.740   0.511   2.784
18159WAT      O54718   0.178   6.455   3.555
18159WAT     H154719   0.234   6.372   3.555
18159WAT     H254720   0.116   6.453   3.633
18160WAT      O54721   8.907   2.172   1.657
18160WAT     H154722   8.850   2.092   1.678
18160WAT     H254723   8.993   2.141   1.617
18161WAT      O54724   7.339   3.749   6.526
18161WAT     H154725   7.258   3.802   6.501
18161WAT     H254726   7.396   3.803   6.587
18162WAT      O54727   3.481   4.217   9.654
18162WAT     H154728   3.558   4.163   9.686
18162WAT     H254729   3.471   4.205   9.555
18163WAT      O54730   7.808   1.076   2.341
18163WAT     H154731   7.811   1.086   2.440
18163WAT     H254732   7.892   1.112   2.301
18164WAT      O54733   1.161   8.025   5.920
18164WAT     H154734   1.231   8.081   5.964
18164WAT     H254735   1.127   7.957   5.985
18165WAT      O54736   4.603   5.557   9.737
18165WAT     H154737   4.520   5.613   9.745
18165WAT     H254738   4.584   5.464   9.768
18166WAT      O54739   7.280   4.784   4.121
18166WAT     H154740   7.335   4.738   4.050
18166WAT     H254741   7.221   4.853   4.078
18167WAT      O54742   7.790   2.602   6.311
18167WAT     H154743   7.874   2.640   6.272
18167WAT     H254744   7.806   2.508   6.340
18168WAT      O54745   4.824   4.943   8.887
18168WAT     H154746   4.794   4.927   8.793
18168WAT     H254747   4.914   4.987   8.886
18169WAT      O54748   2.670   5.284   7.154
18169WAT     H154749   2.650   5.370   7.200
18169WAT     H254750   2.585   5.244   7.120
18170WAT      O54751   3.070   9.567   3.410
18170WAT     H154752   3.117   9.479   3.401
18170WAT     H254753   3.137   9.641   3.406
18171WAT      O54754   3.226   5.693   6.043
18171WAT     H154755   3.158   5.627   6.077
18171WAT     H254756   3.202   5.719   5.950
18172WAT      O54757   4.471   4.871   4.790
18172WAT     H154758   4.454   4.967   4.766
18172WAT     H254759   4.387   4.818   4.777
18173WAT      O54760   5.361   8.874   6.697
18173WAT     H154761   5.394   8.792   6.650
18173WAT     H254762   5.293   8.920   6.640
18174WAT      O54763   5.855   7.943   5.619
18174WAT     H154764   5.805   8.030   5.628
18174WAT     H254765   5.853   7.914   5.523
18175WAT      O54766   5.979   1.425   9.716
18175WAT     H154767   6.061   1.396   9.767
18175WAT     H254768   5.913   1.350   9.715
18176WAT      O54769   3.036   0.445   8.698
18176WAT     H154770   3.126   0.401   8.693
18176WAT     H254771   3.047   0.544   8.688
18177WAT      O54772   6.951   3.395   5.306
18177WAT     H154773   6.965   3.342   5.390
18177WAT     H254774   6.994   3.348   5.229
18178WAT      O54775   8.876   3.065   4.112
18178WAT     H154776   8.905   3.030   4.023
18178WAT     H254777   8.948   3.125   4.149
18179WAT      O54778   6.974   0.718   3.658
18179WAT     H154779   6.930   0.630   3.674
18179WAT     H254780   7.039   0.709   3.582
18180WAT      O54781   7.835   6.826   8.454
18180WAT     H154782   7.817   6.728   8.461
18180WAT     H254783   7.854   6.849   8.358
18181WAT      O54784   3.992   0.341   6.187
18181WAT     H154785   4.033   0.377   6.271
18181WAT     H254786   3.903   0.300   6.207
18182WAT      O54787   1.058   3.270   3.944
18182WAT     H154788   1.107   3.198   3.994
18182WAT     H254789   0.971   3.234   3.910
18183WAT      O54790   0.296   8.888   9.378
18183WAT     H154791   0.297   8.919   9.283
18183WAT     H254792   0.370   8.933   9.428
18184WAT      O54793   2.365   0.643   8.374
18184WAT     H154794   2.418   0.681   8.298
18184WAT     H254795   2.422   0.639   8.456
18185WAT      O54796   6.844   8.267   4.234
18185WAT     H154797   6.814   8.172   4.230
18185WAT     H254798   6.847   8.305   4.142
18186WAT      O54799   3.578   4.411   7.996
18186WAT     H154800   3.534   4.497   8.019
18186WAT     H254801   3.573   4.396   7.897
18187WAT      O54802   8.998   1.820   7.446
18187WAT     H154803   9.084   1.789   7.406
18187WAT     H254804   9.010   1.836   7.543
18188WAT      O54805   8.105   7.030   9.577
18188WAT     H154806   8.131   6.944   9.621
18188WAT     H254807   8.029   7.071   9.629
18189WAT      O54808   0.086   8.951   7.410
18189WAT     H154809   0.171   8.949   7.358
18189WAT     H254810   0.018   8.892   7.366
18190WAT      O54811   8.206   5.730   6.304
18190WAT     H154812   8.246   5.667   6.238
18190WAT     H254813   8.258   5.816   6.304
18191WAT      O54814   8.603   0.799   7.007
18191WAT     H154815   8.687   0.846   6.982
18191WAT     H254816   8.621   0.736   7.083
18192WAT      O54817   4.094   8.744   3.074
18192WAT     H154818   4.054   8.659   3.041
18192WAT     H254819   4.051   8.822   3.027
18193WAT      O54820   1.004   7.625   2.553
18193WAT     H154821   1.038   7.533   2.534
18193WAT     H254822   1.081   7.690   2.553
18194WAT      O54823   4.966   5.120   7.184
18194WAT     H154824   4.962   5.021   7.195
18194WAT     H254825   4.968   5.143   7.087
18195WAT      O54826   0.806   4.243   5.592
18195WAT     H154827   0.861   4.280   5.517
18195WAT     H254828   0.850   4.264   5.679
18196WAT      O54829   9.810   7.340   6.166
18196WAT     H154830   9.763   7.259   6.202
18196WAT     H254831   9.905   7.316   6.145
18197WAT      O54832   9.558   9.388   8.435
18197WAT     H154833   9.636   9.447   8.456
18197WAT     H254834   9.589   9.293   8.429
18198WAT      O54835   1.088   8.952   6.576
18198WAT     H154836   1.173   9.002   6.558
18198WAT     H254837   1.057   8.910   6.491
18199WAT      O54838   4.652   7.278   6.804
18199WAT     H154839   4.691   7.271   6.896
18199WAT     H254840   4.702   7.347   6.752
18200WAT      O54841   7.759   3.820   1.715
18200WAT     H154842   7.685   3.811   1.649
18200WAT     H254843   7.749   3.750   1.786
18201WAT      O54844   7.587   0.414   7.553
18201WAT     H154845   7.572   0.389   7.458
18201WAT     H254846   7.509   0.384   7.608
18202WAT      O54847   4.504   7.054   4.759
18202WAT     H154848   4.430   7.111   4.724
18202WAT     H254849   4.472   6.960   4.767
18203WAT      O54850   8.767   7.874   9.549
18203WAT     H154851   8.845   7.854   9.490
18203WAT     H254852   8.737   7.790   9.594
18204WAT      O54853   0.686   9.073   4.235
18204WAT     H154854   0.747   9.148   4.261
18204WAT     H254855   0.624   9.104   4.163
18205WAT      O54856   0.098   2.733   4.307
18205WAT     H154857   0.168   2.715   4.376
18205WAT     H254858   0.067   2.647   4.269
18206WAT      O54859   1.832   2.927   7.868
18206WAT     H154860   1.931   2.941   7.862
18206WAT     H254861   1.803   2.939   7.963
18207WAT      O54862   9.319   9.404   6.230
18207WAT     H154863   9.352   9.446   6.145
18207WAT     H254864   9.304   9.475   6.298
18208WAT      O54865   2.424   1.610   5.440
18208WAT     H154866   2.459   1.696   5.402
18208WAT     H254867   2.344   1.628   5.497
18209WAT      O54868   9.014   6.559   2.747
18209WAT     H154869   8.954   6.487   2.712
18209WAT     H254870   9.005   6.564   2.846
18210WAT      O54871   1.184   9.238   7.096
18210WAT     H154872   1.103   9.263   7.044
18210WAT     H254873   1.197   9.304   7.171
18211WAT      O54874   7.408   1.729   2.757
18211WAT     H154875   7.465   1.789   2.812
18211WAT     H254876   7.451   1.639   2.749
18212WAT      O54877   2.601   7.195   9.462
18212WAT     H154878   2.647   7.229   9.380
18212WAT     H254879   2.507   7.168   9.438
18213WAT      O54880   8.549   3.054   3.500
18213WAT     H154881   8.546   3.134   3.441
18213WAT     H254882   8.533   2.972   3.446
18214WAT      O54883   3.516   9.698   7.759
18214WAT     H154884   3.579   9.755   7.812
18214WAT     H254885   3.497   9.614   7.810
18215WAT      O54886   7.538   0.663   5.926
18215WAT     H154887   7.510   0.660   6.022
18215WAT     H254888   7.509   0.579   5.880
18216WAT      O54889   3.596   3.526   6.878
18216WAT     H154890   3.678   3.576   6.906
18216WAT     H254891   3.596   3.435   6.919
18217WAT      O54892   4.889   4.336   9.493
18217WAT     H154893   4.983   4.318   9.520
18217WAT     H254894   4.887   4.377   9.402
18218WAT      O54895   0.859   8.164   9.412
18218WAT     H154896   0.855   8.065   9.426
18218WAT     H254897   0.947   8.188   9.370
18219WAT      O54898   3.350   7.066   5.225
18219WAT     H154899   3.311   7.135   5.165
18219WAT     H254900   3.278   7.028   5.283
18220WAT      O54901   6.172   8.607   2.863
18220WAT     H154902   6.146   8.572   2.953
18220WAT     H254903   6.156   8.536   2.794
18221WAT      O54904   1.385   0.924   5.855
18221WAT     H154905   1.302   0.868   5.859
18221WAT     H254906   1.389   0.969   5.765
18222WAT      O54907   7.361   4.789   6.313
18222WAT     H154908   7.374   4.873   6.261
18222WAT     H254909   7.391   4.804   6.408
18223WAT      O54910   4.126   9.686   9.320
18223WAT     H154911   4.101   9.650   9.230
18223WAT     H254912   4.048   9.677   9.382
18224WAT      O54913   1.307   7.174   1.398
18224WAT     H154914   1.376   7.113   1.435
18224WAT     H254915   1.332   7.269   1.417
18225WAT      O54916   8.484   3.410   5.675
18225WAT     H154917   8.583   3.421   5.668
18225WAT     H254918   8.461   3.313   5.668
18226WAT      O54919   6.612   8.258   5.846
18226WAT     H154920   6.572   8.187   5.905
18226WAT     H254921   6.563   8.344   5.860
18227WAT      O54922   3.482   7.548   0.597
18227WAT     H154923   3.546   7.473   0.589
18227WAT     H254924   3.528   7.628   0.636
18228WAT      O54925   7.770   5.459   5.858
18228WAT     H154926   7.777   5.451   5.759
18228WAT     H254927   7.842   5.520   5.891
18229WAT      O54928   7.885   1.958   6.558
18229WAT     H154929   7.794   1.951   6.518
18229WAT     H254930   7.882   2.018   6.638
18230WAT      O54931   4.328   4.575   5.846
18230WAT     H154932   4.272   4.654   5.869
18230WAT     H254933   4.405   4.605   5.790
18231WAT      O54934   4.552   1.654   7.351
18231WAT     H154935   4.510   1.732   7.305
18231WAT     H254936   4.650   1.653   7.333
18232WAT      O54937   4.599   1.069   8.022
18232WAT     H154938   4.637   1.044   7.934
18232WAT     H254939   4.552   1.158   8.015
18233WAT      O54940   8.184   2.631   4.179
18233WAT     H154941   8.112   2.698   4.192
18233WAT     H254942   8.230   2.613   4.266
18234WAT      O54943   6.460   1.361   6.779
18234WAT     H154944   6.425   1.276   6.820
18234WAT     H254945   6.387   1.429   6.774
18235WAT      O54946   5.911   2.402   5.211
18235WAT     H154947   5.847   2.327   5.195
18235WAT     H254948   5.907   2.430   5.307
18236WAT      O54949   7.585   3.043   3.750
18236WAT     H154950   7.578   2.948   3.719
18236WAT     H254951   7.577   3.104   3.671
18237WAT      O54952   5.346   3.380   2.593
18237WAT     H154953   5.370   3.446   2.664
18237WAT     H254954   5.414   3.307   2.592
18238WAT      O54955   0.764   8.883   6.700
18238WAT     H154956   0.765   8.981   6.721
18238WAT     H254957   0.857   8.854   6.678
18239WAT      O54958   0.648   6.463   1.763
18239WAT     H154959   0.699   6.543   1.731
18239WAT     H254960   0.620   6.477   1.858
18240WAT      O54961   7.099   1.601   6.592
18240WAT     H154962   7.078   1.623   6.497
18240WAT     H254963   7.027   1.636   6.652
18241WAT      O54964   5.960   2.636   7.296
18241WAT     H154965   5.943   2.683   7.383
18241WAT     H254966   5.873   2.608   7.256
18242WAT      O54967   9.492   8.531   0.819
18242WAT     H154968   9.567   8.473   0.787
18242WAT     H254969   9.480   8.518   0.917
18243WAT      O54970   7.717   6.962   5.321
18243WAT     H154971   7.656   7.041   5.316
18243WAT     H254972   7.802   6.982   5.272
18244WAT      O54973   0.363   7.882   3.967
18244WAT     H154974   0.363   7.878   4.067
18244WAT     H254975   0.411   7.803   3.930
18245WAT      O54976   3.369   5.645   4.848
18245WAT     H154977   3.394   5.557   4.888
18245WAT     H254978   3.431   5.716   4.882
18246WAT      O54979   6.418   8.371   7.053
18246WAT     H154980   6.444   8.320   6.971
18246WAT     H254981   6.498   8.419   7.089
18247WAT      O54982   5.765   8.886   8.133
18247WAT     H154983   5.743   8.809   8.193
18247WAT     H254984   5.775   8.969   8.187
18248WAT      O54985   4.832   3.193   1.933
18248WAT     H154986   4.822   3.140   2.017
18248WAT     H254987   4.860   3.287   1.957
18249WAT      O54988   7.913   2.158   2.439
18249WAT     H154989   7.968   2.220   2.384
18249WAT     H254990   7.964   2.074   2.456
18250WAT      O54991   0.266   4.436   9.783
18250WAT     H154992   0.267   4.415   9.881
18250WAT     H254993   0.234   4.356   9.732
18251WAT      O54994   3.831   1.377   8.467
18251WAT     H154995   3.815   1.281   8.446
18251WAT     H254996   3.744   1.427   8.463
18252WAT      O54997   3.963   7.973   8.192
18252WAT     H154998   4.038   7.921   8.152
18252WAT     H254999   3.954   8.061   8.144
18253WAT      O55000   6.666   5.413   3.473
18253WAT     H155001   6.657   5.345   3.400
18253WAT     H255002   6.670   5.505   3.433
18254WAT      O55003   9.220   1.478   1.872
18254WAT     H155004   9.228   1.383   1.900
18254WAT     H255005   9.202   1.483   1.774
18255WAT      O55006   1.671   3.348   9.370
18255WAT     H155007   1.703   3.297   9.290
18255WAT     H255008   1.582   3.389   9.349
18256WAT      O55009   6.512   7.116   7.895
18256WAT     H155010   6.517   7.034   7.838
18256WAT     H255011   6.555   7.192   7.847
18257WAT      O55012   6.068   0.842   8.208
18257WAT     H155013   6.078   0.941   8.211
18257WAT     H255014   6.085   0.809   8.115
18258WAT      O55015   6.030   7.309   0.157
18258WAT     H155016   6.060   7.397   0.195
18258WAT     H255017   6.023   7.318   0.057
18259WAT      O55018   1.359   9.415   6.016
18259WAT     H155019   1.299   9.354   5.965
18259WAT     H255020   1.393   9.487   5.954
18260WAT      O55021   4.512   7.079   0.018
18260WAT     H155022   4.528   7.121   0.108
18260WAT     H255023   4.432   7.019   0.024
18261WAT      O55024   3.473   4.814   5.702
18261WAT     H155025   3.418   4.829   5.620
18261WAT     H255026   3.425   4.751   5.763
18262WAT      O55027   8.837   7.132   4.593
18262WAT     H155028   8.806   7.086   4.509
18262WAT     H255029   8.934   7.113   4.608
18263WAT      O55030   7.713   6.758   4.487
18263WAT     H155031   7.753   6.817   4.415
18263WAT     H255032   7.645   6.698   4.446
18264WAT      O55033   4.468   8.310   4.992
18264WAT     H155034   4.471   8.216   4.958
18264WAT     H255035   4.522   8.318   5.075
18265WAT      O55036   3.338   3.282   1.699
18265WAT     H155037   3.364   3.257   1.606
18265WAT     H255038   3.241   3.308   1.701
18266WAT      O55039   8.165   3.458   5.207
18266WAT     H155040   8.115   3.408   5.136
18266WAT     H255041   8.151   3.413   5.296
18267WAT      O55042   3.623   4.604   7.290
18267WAT     H155043   3.716   4.569   7.300
18267WAT     H255044   3.579   4.558   7.213
18268WAT      O55045   7.442   7.440   3.881
18268WAT     H155046   7.415   7.488   3.965
18268WAT     H255047   7.534   7.402   3.892
18269WAT      O55048   9.698   5.108   1.168
18269WAT     H155049   9.730   5.203   1.166
18269WAT     H255050   9.704   5.070   1.075
18270WAT      O55051   2.498   2.235   7.121
18270WAT     H155052   2.489   2.151   7.069
18270WAT     H255053   2.488   2.215   7.219
18271WAT      O55054   3.253   2.655   6.977
18271WAT     H155055   3.263   2.746   7.016
18271WAT     H255056   3.214   2.593   7.045
18272WAT      O55057   9.153   3.053   7.503
18272WAT     H155058   9.233   3.025   7.556
18272WAT     H255059   9.074   3.000   7.532
18273WAT      O55060   2.792   2.544   8.447
18273WAT     H155061   2.790   2.644   8.450
18273WAT     H255062   2.837   2.515   8.363
18274WAT      O55063   5.617   7.295   7.133
18274WAT     H155064   5.693   7.232   7.121
18274WAT     H255065   5.653   7.387   7.152
18275WAT      O55066   6.731   3.301   9.886
18275WAT     H155067   6.733   3.211   9.929
18275WAT     H255068   6.638   3.321   9.856
18276WAT      O55069   3.647   6.088   6.469
18276WAT     H155070   3.561   6.139   6.474
18276WAT     H255071   3.671   6.053   6.559
18277WAT      O55072   2.132   1.774   8.537
18277WAT     H155073   2.135   1.755   8.439
18277WAT     H255074   2.076   1.704   8.582
18278WAT      O55075   8.969   1.799   6.962
18278WAT     H155076   9.010   1.736   7.028
18278WAT     H255077   8.869   1.797   6.972
18279WAT      O55078   4.174   4.174   6.042
18279WAT     H155079   4.118   4.172   5.960
18279WAT     H255080   4.155   4.093   6.098
18280WAT      O55081   0.608   4.811   8.392
18280WAT     H155082   0.547   4.780   8.319
18280WAT     H255083   0.673   4.877   8.356
18281WAT      O55084   6.671   5.739   8.167
18281WAT     H155085   6.594   5.722   8.105
18281WAT     H255086   6.748   5.776   8.116
18282WAT      O55087   9.161   8.932   8.720
18282WAT     H155088   9.079   8.886   8.684
18282WAT     H255089   9.134   8.995   8.792
18283WAT      O55090   7.345   3.638   2.324
18283WAT     H155091   7.339   3.539   2.313
18283WAT     H255092   7.320   3.683   2.238
18284WAT      O55093   8.229   6.796   5.582
18284WAT     H155094   8.219   6.895   5.581
18284WAT     H255095   8.264   6.765   5.493
18285WAT      O55096   5.441   0.781   8.173
18285WAT     H155097   5.400   0.799   8.262
18285WAT     H255098   5.461   0.867   8.127
18286WAT      O55099   0.852   3.129   6.614
18286WAT     H155100   0.782   3.095   6.551
18286WAT     H255101   0.915   3.055   6.636
18287WAT      O55102   3.671   0.146   1.496
18287WAT     H155103   3.622   0.129   1.582
18287WAT     H255104   3.694   0.059   1.453
18288WAT      O55105   2.336   4.888   6.713
18288WAT     H155106   2.305   4.983   6.714
18288WAT     H255107   2.303   4.843   6.629
18289WAT      O55108   2.204   8.422   3.370
18289WAT     H155109   2.124   8.414   3.430
18289WAT     H255110   2.281   8.459   3.423
18290WAT      O55111   1.487   5.876   5.943
18290WAT     H155112   1.537   5.843   5.863
18290WAT     H255113   1.552   5.897   6.017
18291WAT      O55114   1.500   6.621   8.908
18291WAT     H155115   1.489   6.568   8.824
18291WAT     H255116   1.434   6.591   8.976
18292WAT      O55117   5.345   4.231   3.292
18292WAT     H155118   5.252   4.261   3.270
18292WAT     H255119   5.356   4.134   3.270
18293WAT      O55120   8.535   4.187   5.291
18293WAT     H155121   8.570   4.106   5.245
18293WAT     H255122   8.441   4.204   5.263
18294WAT      O55123   7.107   7.237   0.950
18294WAT     H155124   7.111   7.258   1.047
18294WAT     H255125   7.176   7.292   0.901
18295WAT      O55126   0.802   3.425   7.344
18295WAT     H155127   0.857   3.482   7.282
18295WAT     H255128   0.742   3.366   7.291
18296WAT      O55129   4.894   4.335   0.382
18296WAT     H155130   4.814   4.364   0.434
18296WAT     H255131   4.891   4.376   0.290
18297WAT      O55132   9.340   6.337   3.527
18297WAT     H155133   9.270   6.293   3.582
18297WAT     H255134   9.299   6.373   3.443
18298WAT      O55135   5.584   5.208   9.356
18298WAT     H155136   5.618   5.148   9.429
18298WAT     H255137   5.494   5.177   9.326
18299WAT      O55138   2.047   9.546   2.587
18299WAT     H155139   1.974   9.567   2.653
18299WAT     H255140   2.136   9.565   2.630
18300WAT      O55141   0.391   2.058   4.495
18300WAT     H155142   0.334   1.976   4.503
18300WAT     H255143   0.377   2.115   4.576
18301WAT      O55144   0.091   8.057   9.164
18301WAT     H155145   0.133   8.138   9.123
18301WAT     H255146   0.162   7.990   9.185
18302WAT      O55147   1.370   3.752   4.404
18302WAT     H155148   1.314   3.833   4.388
18302WAT     H255149   1.351   3.684   4.333
18303WAT      O55150   8.149   0.942   5.309
18303WAT     H155151   8.055   0.931   5.276
18303WAT     H255152   8.155   1.024   5.366
18304WAT      O55153   1.841   0.119   7.519
18304WAT     H155154   1.896   0.072   7.587
18304WAT     H255155   1.899   0.150   7.444
18305WAT      O55156   8.374   0.956   8.101
18305WAT     H155157   8.376   1.056   8.109
18305WAT     H255158   8.415   0.916   8.183
18306WAT      O55159   4.486   6.293   0.050
18306WAT     H155160   4.552   6.335   0.112
18306WAT     H255161   4.496   6.332  -0.041
18307WAT      O55162   3.914   4.351   1.281
18307WAT     H155163   3.830   4.353   1.336
18307WAT     H255164   3.936   4.444   1.251
18308WAT      O55165   1.399   5.869   9.002
18308WAT     H155166   1.471   5.938   8.986
18308WAT     H255167   1.332   5.905   9.067
18309WAT      O55168   8.691   1.424   6.982
18309WAT     H155169   8.647   1.503   6.939
18309WAT     H255170   8.622   1.365   7.022
18310WAT      O55171   5.565   7.547   0.802
18310WAT     H155172   5.498   7.618   0.828
18310WAT     H255173   5.605   7.508   0.885
18311WAT      O55174   0.827   1.565   4.706
18311WAT     H155175   0.924   1.571   4.681
18311WAT     H255176   0.782   1.653   4.687
18312WAT      O55177   3.268   8.867   1.197
18312WAT     H155178   3.266   8.943   1.132
18312WAT     H255179   3.360   8.857   1.235
18313WAT      O55180   8.398   3.197   4.290
18313WAT     H155181   8.484   3.166   4.251
18313WAT     H255182   8.329   3.205   4.217
18314WAT      O55183   5.552   5.736   8.950
18314WAT     H155184   5.627   5.701   9.006
18314WAT     H255185   5.486   5.663   8.932
18315WAT      O55186   2.149   6.355   7.836
18315WAT     H155187   2.197   6.284   7.785
18315WAT     H255188   2.215   6.411   7.885
18316WAT      O55189   4.719   5.304   7.949
18316WAT     H155190   4.703   5.255   7.863
18316WAT     H255191   4.727   5.237   8.024
18317WAT      O55192   3.703   3.657   1.654
18317WAT     H155193   3.613   3.667   1.611
18317WAT     H255194   3.773   3.643   1.584
18318WAT      O55195   7.650   0.173   9.727
18318WAT     H155196   7.686   0.264   9.747
18318WAT     H255197   7.715   0.123   9.670
18319WAT      O55198   0.951   4.113   6.515
18319WAT     H155199   0.859   4.120   6.475
18319WAT     H255200   0.943   4.091   6.612
18320WAT      O55201   6.626   1.001   3.903
18320WAT     H155202   6.666   0.929   3.961
18320WAT     H255203   6.543   0.966   3.860
18321WAT      O55204   4.205   6.002   4.287
18321WAT     H155205   4.272   5.973   4.355
18321WAT     H255206   4.249   6.014   4.198
18322WAT      O55207   0.738   8.537   9.414
18322WAT     H155208   0.773   8.453   9.373
18322WAT     H255209   0.803   8.571   9.481
18323WAT      O55210   2.090   4.409   5.142
18323WAT     H155211   2.055   4.448   5.226
18323WAT     H255212   2.023   4.346   5.104
18324WAT      O55213   2.026   2.583   1.522
18324WAT     H155214   2.009   2.487   1.498
18324WAT     H255215   2.117   2.593   1.561
18325WAT      O55216   5.161   5.853   2.373
18325WAT     H155217   5.250   5.867   2.417
18325WAT     H255218   5.114   5.940   2.365
18326WAT      O55219   5.711   8.833   4.128
18326WAT     H155220   5.777   8.757   4.132
18326WAT     H255221   5.729   8.888   4.047
18327WAT      O55222   0.493   6.091   8.348
18327WAT     H155223   0.425   6.109   8.277
18327WAT     H255224   0.458   6.023   8.412
18328WAT      O55225   0.694   1.662   2.969
18328WAT     H155226   0.661   1.657   3.064
18328WAT     H255227   0.676   1.574   2.923
18329WAT      O55228   3.719   4.189   8.292
18329WAT     H155229   3.639   4.138   8.323
18329WAT     H255230   3.802   4.135   8.307
18330WAT      O55231   7.037   6.697   6.108
18330WAT     H155232   7.045   6.778   6.166
18330WAT     H255233   7.002   6.725   6.018
18331WAT      O55234   9.245   0.958   5.937
18331WAT     H155235   9.246   1.046   5.985
18331WAT     H255236   9.330   0.947   5.885
18332WAT      O55237   7.430   3.402   2.552
18332WAT     H155238   7.516   3.353   2.566
18332WAT     H255239   7.369   3.346   2.497
18333WAT      O55240   3.157   7.295   2.323
18333WAT     H155241   3.145   7.197   2.308
18333WAT     H255242   3.107   7.346   2.253
18334WAT      O55243   4.561   0.440   3.749
18334WAT     H155244   4.515   0.381   3.682
18334WAT     H255245   4.646   0.396   3.779
18335WAT      O55246   5.901   1.538   6.430
18335WAT     H155247   5.926   1.503   6.340
18335WAT     H255248   5.916   1.637   6.432
18336WAT      O55249   9.346   0.975   0.377
18336WAT     H155250   9.297   1.061   0.370
18336WAT     H255251   9.331   0.935   0.468
18337WAT      O55252   7.263   1.495   3.434
18337WAT     H155253   7.273   1.396   3.443
18337WAT     H255254   7.187   1.526   3.492
18338WAT      O55255   4.166   2.958   9.892
18338WAT     H155256   4.140   2.958   9.796
18338WAT     H255257   4.196   3.049   9.919
18339WAT      O55258   7.795   8.719   3.441
18339WAT     H155259   7.887   8.744   3.471
18339WAT     H255260   7.787   8.731   3.342
18340WAT      O55261   4.361   2.006   8.738
18340WAT     H155262   4.329   2.099   8.721
18340WAT     H255263   4.282   1.946   8.751
18341WAT      O55264   8.205   2.341   4.645
18341WAT     H155265   8.224   2.300   4.734
18341WAT     H255266   8.178   2.437   4.658
18342WAT      O55267   3.722   0.082   8.352
18342WAT     H155268   3.772   0.052   8.433
18342WAT     H255269   3.629   0.045   8.355
18343WAT      O55270   2.596   5.280   4.095
18343WAT     H155271   2.554   5.193   4.069
18343WAT     H255272   2.689   5.284   4.061
18344WAT      O55273   7.775   8.154   3.052
18344WAT     H155274   7.736   8.244   3.034
18344WAT     H255275   7.737   8.088   2.988
18345WAT      O55276   5.616   6.630   6.272
18345WAT     H155277   5.594   6.727   6.276
18345WAT     H255278   5.574   6.582   6.349
18346WAT      O55279   6.021   8.451   6.913
18346WAT     H155280   5.962   8.506   6.972
18346WAT     H255281   6.110   8.497   6.903
18347WAT      O55282   5.644   0.124   2.761
18347WAT     H155283   5.684   0.154   2.674
18347WAT     H255284   5.544   0.127   2.755
18348WAT      O55285   4.481   6.545   4.975
18348WAT     H155286   4.396   6.546   4.923
18348WAT     H255287   4.530   6.460   4.958
18349WAT      O55288   0.125   0.571   2.370
18349WAT     H155289   0.172   0.643   2.320
18349WAT     H255290   0.140   0.483   2.325
18350WAT      O55291   5.133   1.883   2.118
18350WAT     H155292   5.137   1.821   2.039
18350WAT     H255293   5.040   1.916   2.131
18351WAT      O55294   8.457   6.314   8.217
18351WAT     H155295   8.518   6.235   8.213
18351WAT     H255296   8.458   6.362   8.129
18352WAT      O55297   8.968   1.247   1.770
18352WAT     H155298   9.009   1.156   1.781
18352WAT     H255299   9.029   1.304   1.715
18353WAT      O55300   5.909   1.891   3.431
18353WAT     H155301   5.827   1.862   3.382
18353WAT     H255302   5.984   1.904   3.365
18354WAT      O55303   0.223   7.499   2.444
18354WAT     H155304   0.321   7.488   2.457
18354WAT     H255305   0.199   7.475   2.350
18355WAT      O55306   6.497   5.210   4.182
18355WAT     H155307   6.582   5.180   4.225
18355WAT     H255308   6.437   5.132   4.168
18356WAT      O55309   8.042   7.605   3.398
18356WAT     H155310   8.059   7.541   3.324
18356WAT     H255311   8.111   7.678   3.396
18357WAT      O55312   3.082   5.899   3.852
18357WAT     H155313   3.138   5.818   3.865
18357WAT     H255314   3.113   5.948   3.770
18358WAT      O55315   0.434   3.775   1.104
18358WAT     H155316   0.492   3.806   1.029
18358WAT     H255317   0.453   3.679   1.124
18359WAT      O55318   8.324   1.663   0.151
18359WAT     H155319   8.352   1.718   0.229
18359WAT     H255320   8.363   1.701   0.067
18360WAT      O55321   8.519   0.611   6.818
18360WAT     H155322   8.549   0.641   6.909
18360WAT     H255323   8.420   0.619   6.810
18361WAT      O55324   4.775   7.533   7.190
18361WAT     H155325   4.831   7.530   7.273
18361WAT     H255326   4.804   7.610   7.133
18362WAT      O55327   6.396   4.127   1.988
18362WAT     H155328   6.442   4.090   1.907
18362WAT     H255329   6.414   4.068   2.067
18363WAT      O55330   0.339   7.769   1.203
18363WAT     H155331   0.374   7.690   1.153
18363WAT     H255332   0.382   7.773   1.293
18364WAT      O55333   0.650   6.772   2.695
18364WAT     H155334   0.746   6.769   2.669
18364WAT     H255335   0.609   6.682   2.680
18365WAT      O55336   3.136   3.559   8.594
18365WAT     H155337   3.227   3.589   8.563
18365WAT     H255338   3.080   3.536   8.514
18366WAT      O55339   4.887   1.129   5.181
18366WAT     H155340   4.846   1.089   5.099
18366WAT     H255341   4.904   1.057   5.248
18367WAT      O55342   8.632   9.164   1.296
18367WAT     H155343   8.552   9.216   1.264
18367WAT     H255344   8.635   9.077   1.247
18368WAT      O55345   5.777   6.763   6.874
18368WAT     H155346   5.765   6.663   6.871
18368WAT     H255347   5.731   6.799   6.955
18369WAT      O55348   6.889   9.805   2.803
18369WAT     H155349   6.980   9.834   2.833
18369WAT     H255350   6.898   9.735   2.732
18370WAT      O55351   0.017   2.042   4.059
18370WAT     H155352   0.083   2.095   4.005
18370WAT     H255353   0.062   2.007   4.141
18371WAT      O55354   7.461   9.753   1.446
18371WAT     H155355   7.457   9.835   1.503
18371WAT     H255356   7.548   9.750   1.398
18372WAT      O55357   8.010   7.058   6.752
18372WAT     H155358   7.946   7.115   6.803
18372WAT     H255359   7.980   6.963   6.755
18373WAT      O55360   9.197   7.646   0.517
18373WAT     H155361   9.167   7.608   0.429
18373WAT     H255362   9.216   7.744   0.507
18374WAT      O55363   8.086   3.577   0.755
18374WAT     H155364   8.110   3.484   0.784
18374WAT     H255365   8.086   3.637   0.835
18375WAT      O55366   4.160   3.855   1.409
18375WAT     H155367   4.140   3.902   1.495
18375WAT     H255368   4.202   3.766   1.429
18376WAT      O55369   8.140   9.223   7.867
18376WAT     H155370   8.180   9.138   7.902
18376WAT     H255371   8.133   9.289   7.942
18377WAT      O55372   9.709   4.023   3.026
18377WAT     H155373   9.764   3.943   3.048
18377WAT     H255374   9.718   4.043   2.928
18378WAT      O55375   0.723   5.018   0.610
18378WAT     H155376   0.773   5.077   0.673
18378WAT     H255377   0.626   5.017   0.635
18379WAT      O55378   5.696   5.552   9.881
18379WAT     H155379   5.671   5.458   9.904
18379WAT     H255380   5.626   5.615   9.915
18380WAT      O55381   5.921   4.303   1.953
18380WAT     H155382   5.937   4.393   1.994
18380WAT     H255383   5.823   4.284   1.951
18381WAT      O55384   1.553   1.869   7.390
18381WAT     H155385   1.651   1.877   7.403
18381WAT     H255386   1.517   1.799   7.452
18382WAT      O55387   7.111   5.588   8.696
18382WAT     H155388   7.142   5.499   8.727
18382WAT     H255389   7.058   5.578   8.612
18383WAT      O55390   0.237   7.988   1.382
18383WAT     H155391   0.173   7.921   1.420
18383WAT     H255392   0.331   7.958   1.400
18384WAT      O55393   8.084   7.190   7.416
18384WAT     H155394   8.154   7.183   7.345
18384WAT     H255395   8.126   7.179   7.506
18385WAT      O55396   2.243   3.047   7.708
18385WAT     H155397   2.206   3.015   7.620
18385WAT     H255398   2.182   3.020   7.782
18386WAT      O55399   5.050   8.845   5.666
18386WAT     H155400   5.104   8.760   5.665
18386WAT     H255401   5.084   8.905   5.739
18387WAT      O55402   4.948   7.742   7.509
18387WAT     H155403   4.868   7.797   7.536
18387WAT     H255404   4.918   7.667   7.450
18388WAT      O55405   2.128   0.600   1.711
18388WAT     H155406   2.085   0.686   1.685
18388WAT     H255407   2.063   0.525   1.697
18389WAT      O55408   3.824   7.683   5.791
18389WAT     H155409   3.810   7.779   5.813
18389WAT     H255410   3.871   7.638   5.867
18390WAT      O55411   7.304   6.731   6.751
18390WAT     H155412   7.341   6.802   6.811
18390WAT     H255413   7.356   6.727   6.666
18391WAT      O55414   2.341   8.578   7.385
18391WAT     H155415   2.287   8.552   7.465
18391WAT     H255416   2.382   8.668   7.401
18392WAT      O55417   2.387   9.374   9.352
18392WAT     H155418   2.336   9.392   9.436
18392WAT     H255419   2.364   9.443   9.283
18393WAT      O55420   9.380   6.048   4.617
18393WAT     H155421   9.285   6.050   4.647
18393WAT     H255422   9.421   6.139   4.627
18394WAT      O55423   7.368   4.241   1.563
18394WAT     H155424   7.439   4.223   1.494
18394WAT     H255425   7.278   4.238   1.519
18395WAT      O55426   1.855   6.692   9.222
18395WAT     H155427   1.872   6.602   9.181
18395WAT     H255428   1.935   6.721   9.275
18396WAT      O55429   9.655   3.282   7.145
18396WAT     H155430   9.566   3.254   7.180
18396WAT     H255431   9.657   3.271   7.046
18397WAT      O55432   5.039   0.984   8.230
18397WAT     H155433   5.010   0.909   8.171
18397WAT     H255434   5.050   1.067   8.176
18398WAT      O55435   1.106   0.041   0.224
18398WAT     H155436   1.099  -0.028   0.152
18398WAT     H255437   1.014   0.072   0.248
18399WAT      O55438   5.119   1.870   6.479
18399WAT     H155439   5.154   1.920   6.558
18399WAT     H255440   5.195   1.848   6.417
18400WAT      O55441   0.914   4.369   9.560
18400WAT     H155442   0.872   4.404   9.644
18400WAT     H255443   0.989   4.429   9.533
18401WAT      O55444   2.605   2.130   2.194
18401WAT     H155445   2.544   2.171   2.262
18401WAT     H255446   2.648   2.049   2.234
18402WAT      O55447   4.953   4.502   6.837
18402WAT     H155448   4.902   4.566   6.895
18402WAT     H255449   5.048   4.532   6.830
18403WAT      O55450   1.776   2.905   6.354
18403WAT     H155451   1.730   2.818   6.336
18403WAT     H255452   1.875   2.892   6.355
18404WAT      O55453   7.658   7.105   0.255
18404WAT     H155454   7.561   7.115   0.234
18404WAT     H255455   7.674   7.127   0.351
18405WAT      O55456   3.798   3.339   4.338
18405WAT     H155457   3.883   3.381   4.371
18405WAT     H255458   3.784   3.362   4.242
18406WAT      O55459   1.708   1.551   8.874
18406WAT     H155460   1.611   1.562   8.896
18406WAT     H255461   1.720   1.549   8.775
18407WAT      O55462   1.712   5.153   7.163
18407WAT     H155463   1.691   5.061   7.196
18407WAT     H255464   1.661   5.220   7.217
18408WAT      O55465   6.521   1.722   3.844
18408WAT     H155466   6.606   1.754   3.887
18408WAT     H255467   6.443   1.768   3.886
18409WAT      O55468   7.448   5.896   9.247
18409WAT     H155469   7.534   5.929   9.285
18409WAT     H255470   7.397   5.972   9.207
18410WAT      O55471   4.906   5.059   6.906
18410WAT     H155472   4.981   5.016   6.856
18410WAT     H255473   4.841   5.099   6.841
18411WAT      O55474   7.684   4.217   7.374
18411WAT     H155475   7.777   4.245   7.397
18411WAT     H255476   7.688   4.141   7.309
18412WAT      O55477   9.326   7.406   9.767
18412WAT     H155478   9.374   7.490   9.792
18412WAT     H255479   9.370   7.328   9.811
18413WAT      O55480   0.285   9.730   9.383
18413WAT     H155481   0.296   9.828   9.400
18413WAT     H255482   0.278   9.681   9.469
18414WAT      O55483   0.309   2.641   8.455
18414WAT     H155484   0.387   2.687   8.498
18414WAT     H255485   0.287   2.558   8.505
18415WAT      O55486   4.003   8.480   4.946
18415WAT     H155487   3.960   8.411   4.887
18415WAT     H255488   4.049   8.434   5.022
18416WAT      O55489   1.948   5.312   7.144
18416WAT     H155490   2.037   5.269   7.126
18416WAT     H255491   1.878   5.241   7.153
18417WAT      O55492   7.023   4.733   2.925
18417WAT     H155493   7.029   4.735   3.024
18417WAT     H255494   7.054   4.644   2.891
18418WAT      O55495   9.492   6.745   1.778
18418WAT     H155496   9.417   6.795   1.734
18418WAT     H255497   9.544   6.807   1.837
18419WAT      O55498   8.135   0.189   4.370
18419WAT     H155499   8.108   0.285   4.376
18419WAT     H255500   8.198   0.167   4.444
18420WAT      O55501   3.427   8.575   4.581
18420WAT     H155502   3.510   8.625   4.603
18420WAT     H255503   3.427   8.487   4.628
18421WAT      O55504   0.559   6.856   7.374
18421WAT     H155505   0.629   6.785   7.368
18421WAT     H255506   0.471   6.820   7.343
18422WAT      O55507   8.493   0.542   9.818
18422WAT     H155508   8.588   0.574   9.820
18422WAT     H255509   8.435   0.611   9.776
18423WAT      O55510   6.118   4.203   7.702
18423WAT     H155511   6.119   4.274   7.773
18423WAT     H255512   6.130   4.245   7.613
18424WAT      O55513   9.552   0.150   2.475
18424WAT     H155514   9.526   0.228   2.531
18424WAT     H255515   9.556   0.068   2.532
18425WAT      O55516   9.326   9.712   4.456
18425WAT     H155517   9.324   9.679   4.550
18425WAT     H255518   9.410   9.682   4.411
18426WAT      O55519   1.409   3.753   6.984
18426WAT     H155520   1.377   3.658   6.977
18426WAT     H255521   1.379   3.791   7.071
18427WAT      O55522   9.865   3.395   8.322
18427WAT     H155523   9.891   3.438   8.408
18427WAT     H255524   9.947   3.360   8.276
18428WAT      O55525   1.516   1.319   4.475
18428WAT     H155526   1.466   1.397   4.436
18428WAT     H255527   1.557   1.266   4.401
18429WAT      O55528   4.320   7.329   6.243
18429WAT     H155529   4.329   7.392   6.321
18429WAT     H255530   4.402   7.335   6.187
18430WAT      O55531   0.914   4.930   3.537
18430WAT     H155532   0.938   5.026   3.523
18430WAT     H255533   0.958   4.897   3.621
18431WAT      O55534   1.294   5.219   4.948
18431WAT     H155535   1.195   5.219   4.965
18431WAT     H255536   1.342   5.233   5.034
18432WAT      O55537   4.604   8.586   8.310
18432WAT     H155538   4.512   8.554   8.287
18432WAT     H255539   4.666   8.568   8.234
18433WAT      O55540   6.811   4.177   7.575
18433WAT     H155541   6.842   4.141   7.663
18433WAT     H255542   6.890   4.185   7.514
18434WAT      O55543   3.724   1.011   7.680
18434WAT     H155544   3.768   1.056   7.602
18434WAT     H255545   3.787   1.011   7.757
18435WAT      O55546   0.055   1.592   0.662
18435WAT     H155547   0.130   1.639   0.707
18435WAT     H255548   0.090   1.517   0.607
18436WAT      O55549   5.706   1.490   7.863
18436WAT     H155550   5.723   1.396   7.833
18436WAT     H255551   5.615   1.496   7.905
18437WAT      O55552   1.538   0.669   5.625
18437WAT     H155553   1.481   0.703   5.700
18437WAT     H255554   1.608   0.607   5.661
18438WAT      O55555   1.165   6.157   7.906
18438WAT     H155556   1.215   6.074   7.882
18438WAT     H255557   1.152   6.161   8.005
18439WAT      O55558   9.886   0.051   8.158
18439WAT     H155559   9.862   0.071   8.253
18439WAT     H255560   9.804   0.057   8.101
18440WAT      O55561   7.485   9.014   3.282
18440WAT     H155562   7.454   8.929   3.240
18440WAT     H255563   7.424   9.089   3.257
18441WAT      O55564   9.881   6.953   4.066
18441WAT     H155565   9.847   6.862   4.091
18441WAT     H255566   9.818   6.997   4.003
18442WAT      O55567   6.949   3.598   2.268
18442WAT     H155568   6.888   3.651   2.210
18442WAT     H255569   6.969   3.649   2.351
18443WAT      O55570   7.718   8.952   3.598
18443WAT     H155571   7.741   8.872   3.543
18443WAT     H255572   7.721   8.929   3.695
18444WAT      O55573   6.985   0.029   5.637
18444WAT     H155574   7.054  -0.021   5.584
18444WAT     H255575   6.968   0.117   5.594
18445WAT      O55576   5.851   0.240   6.943
18445WAT     H155577   5.771   0.200   6.988
18445WAT     H255578   5.822   0.316   6.885
18446WAT      O55579   8.904   3.595   9.533
18446WAT     H155580   8.958   3.660   9.587
18446WAT     H255581   8.850   3.646   9.466
18447WAT      O55582   6.820   4.822   1.225
18447WAT     H155583   6.834   4.755   1.298
18447WAT     H255584   6.833   4.777   1.136
18448WAT      O55585   2.616   4.005   7.381
18448WAT     H155586   2.645   4.053   7.464
18448WAT     H255587   2.624   4.066   7.302
18449WAT      O55588   3.481   0.937   0.450
18449WAT     H155589   3.505   1.034   0.442
18449WAT     H255590   3.458   0.916   0.545
18450WAT      O55591   6.035   4.859   1.600
18450WAT     H155592   6.019   4.800   1.521
18450WAT     H255593   6.007   4.952   1.578
18451WAT      O55594   7.271   1.597   8.647
18451WAT     H155595   7.184   1.573   8.691
18451WAT     H255596   7.257   1.603   8.548
18452WAT      O55597   0.575   7.756   9.835
18452WAT     H155598   0.561   7.682   9.769
18452WAT     H255599   0.518   7.834   9.810
18453WAT      O55600   0.620   3.052   3.745
18453WAT     H155601   0.521   3.061   3.736
18453WAT     H255602   0.657   3.006   3.665
18454WAT      O55603   9.755   1.951   6.659
18454WAT     H155604   9.664   1.909   6.665
18454WAT     H255605   9.786   1.978   6.750
18455WAT      O55606   9.127   3.662   3.626
18455WAT     H155607   9.029   3.668   3.604
18455WAT     H255608   9.146   3.711   3.711
18456WAT      O55609   7.982   9.194   0.867
18456WAT     H155610   7.999   9.191   0.769
18456WAT     H255611   7.891   9.232   0.884
18457WAT      O55612   8.911   1.758   3.656
18457WAT     H155613   8.948   1.730   3.745
18457WAT     H255614   8.973   1.823   3.613
18458WAT      O55615   2.729   7.321   2.441
18458WAT     H155616   2.716   7.295   2.536
18458WAT     H255617   2.749   7.240   2.386
18459WAT      O55618   7.981   2.638   8.251
18459WAT     H155619   8.024   2.577   8.318
18459WAT     H255620   8.050   2.669   8.186
18460WAT      O55621   6.980   8.734   3.839
18460WAT     H155622   6.924   8.686   3.906
18460WAT     H255623   6.926   8.752   3.757
18461WAT      O55624   2.887   1.030   9.027
18461WAT     H155625   2.888   1.003   8.931
18461WAT     H255626   2.973   1.075   9.051
18462WAT      O55627   4.017   9.563   1.274
18462WAT     H155628   3.996   9.593   1.181
18462WAT     H255629   4.110   9.591   1.298
18463WAT      O55630   6.120   2.983   5.835
18463WAT     H155631   6.140   3.035   5.751
18463WAT     H255632   6.185   3.010   5.906
18464WAT      O55633   8.839   1.988   3.348
18464WAT     H155634   8.855   1.923   3.273
18464WAT     H255635   8.840   2.081   3.311
18465WAT      O55636   9.410   5.178   6.769
18465WAT     H155637   9.427   5.126   6.685
18465WAT     H255638   9.497   5.206   6.809
18466WAT      O55639   3.695   4.274   7.493
18466WAT     H155640   3.607   4.277   7.540
18466WAT     H255641   3.679   4.263   7.395
18467WAT      O55642   6.851   4.094   1.353
18467WAT     H155643   6.780   4.045   1.302
18467WAT     H255644   6.845   4.070   1.450
18468WAT      O55645   3.223   3.118   5.570
18468WAT     H155646   3.243   3.119   5.472
18468WAT     H255647   3.286   3.179   5.617
18469WAT      O55648   7.332   7.622   5.254
18469WAT     H155649   7.294   7.653   5.342
18469WAT     H255650   7.381   7.537   5.267
18470WAT      O55651   0.922   6.462   3.670
18470WAT     H155652   0.933   6.551   3.716
18470WAT     H255653   0.830   6.427   3.688
18471WAT      O55654   3.486   1.208   8.525
18471WAT     H155655   3.504   1.300   8.490
18471WAT     H255656   3.471   1.145   8.448
18472WAT      O55657   5.286   3.951   0.477
18472WAT     H155658   5.211   4.001   0.432
18472WAT     H255659   5.307   3.994   0.564
18473WAT      O55660   6.182   4.894   5.459
18473WAT     H155661   6.121   4.828   5.503
18473WAT     H255662   6.154   4.906   5.364
18474WAT      O55663   1.765   7.183   6.433
18474WAT     H155664   1.787   7.204   6.338
18474WAT     H255665   1.746   7.268   6.482
18475WAT      O55666   3.020   0.527   5.427
18475WAT     H155667   2.930   0.572   5.423
18475WAT     H255668   3.041   0.487   5.338
18476WAT      O55669   7.297   7.402   2.000
18476WAT     H155670   7.364   7.418   1.928
18476WAT     H255671   7.335   7.432   2.088
18477WAT      O55672   2.286   8.377   7.022
18477WAT     H155673   2.383   8.395   7.040
18477WAT     H255674   2.251   8.312   7.090
18478WAT      O55675   7.138   0.840   9.628
18478WAT     H155676   7.044   0.813   9.610
18478WAT     H255677   7.146   0.873   9.722
18479WAT      O55678   6.479   5.662   1.072
18479WAT     H155679   6.467   5.704   1.162
18479WAT     H255680   6.478   5.562   1.081
18480WAT      O55681   8.147   6.450   6.592
18480WAT     H155682   8.172   6.381   6.660
18480WAT     H255683   8.225   6.508   6.573
18481WAT      O55684   9.610   0.517   1.051
18481WAT     H155685   9.596   0.457   1.130
18481WAT     H255686   9.694   0.492   1.004
18482WAT      O55687   6.747   9.551   9.037
18482WAT     H155688   6.780   9.479   9.098
18482WAT     H255689   6.684   9.611   9.086
18483WAT      O55690   6.159   8.261   2.367
18483WAT     H155691   6.223   8.293   2.437
18483WAT     H255692   6.175   8.164   2.349
18484WAT      O55693   7.850   3.203   5.537
18484WAT     H155694   7.909   3.125   5.555
18484WAT     H255695   7.791   3.182   5.459
18485WAT      O55696   8.959   4.735   8.482
18485WAT     H155697   8.939   4.695   8.572
18485WAT     H255698   8.905   4.818   8.470
18486WAT      O55699   3.219   4.926   2.147
18486WAT     H155700   3.202   4.881   2.234
18486WAT     H255701   3.206   4.860   2.072
18487WAT      O55702   4.042   8.871   5.315
18487WAT     H155703   4.022   8.970   5.312
18487WAT     H255704   3.967   8.824   5.361
18488WAT      O55705   4.865   0.207   5.375
18488WAT     H155706   4.810   0.197   5.458
18488WAT     H255707   4.927   0.130   5.367
18489WAT      O55708   3.507   1.574   5.638
18489WAT     H155709   3.420   1.545   5.677
18489WAT     H255710   3.509   1.554   5.541
18490WAT      O55711   6.654   0.127   7.538
18490WAT     H155712   6.632   0.097   7.631
18490WAT     H255713   6.592   0.200   7.510
18491WAT      O55714   1.398   8.236   9.137
18491WAT     H155715   1.321   8.291   9.106
18491WAT     H255716   1.405   8.154   9.080
18492WAT      O55717   8.470   4.004   7.650
18492WAT     H155718   8.371   3.996   7.662
18492WAT     H255719   8.504   3.924   7.600
18493WAT      O55720   5.484   4.776   1.336
18493WAT     H155721   5.462   4.823   1.422
18493WAT     H255722   5.401   4.770   1.280
18494WAT      O55723   9.831   2.777   4.616
18494WAT     H155724   9.888   2.695   4.617
18494WAT     H255725   9.773   2.776   4.534
18495WAT      O55726   5.289   4.561   7.455
18495WAT     H155727   5.262   4.535   7.363
18495WAT     H255728   5.207   4.579   7.510
18496WAT      O55729   4.669   5.250   9.323
18496WAT     H155730   4.582   5.262   9.371
18496WAT     H255731   4.722   5.335   9.328
18497WAT      O55732   6.311   2.261   8.576
18497WAT     H155733   6.324   2.172   8.531
18497WAT     H255734   6.259   2.248   8.660
18498WAT      O55735   7.083   4.362   1.883
18498WAT     H155736   7.174   4.379   1.848
18498WAT     H255737   7.069   4.263   1.894
18499WAT      O55738   7.738   1.621   8.560
18499WAT     H155739   7.777   1.532   8.585
18499WAT     H255740   7.736   1.681   8.640
18500WAT      O55741   3.952   2.157   7.987
18500WAT     H155742   4.008   2.111   7.918
18500WAT     H255743   3.857   2.129   7.978
18501WAT      O55744   5.745   1.036   2.421
18501WAT     H155745   5.705   1.006   2.335
18501WAT     H255746   5.793   1.123   2.407
18502WAT      O55747   9.533   8.289   2.094
18502WAT     H155748   9.579   8.321   2.176
18502WAT     H255749   9.485   8.366   2.051
18503WAT      O55750   8.170   1.770   3.022
18503WAT     H155751   8.111   1.846   2.995
18503WAT     H255752   8.135   1.729   3.106
18504WAT      O55753   5.010   5.709   6.582
18504WAT     H155754   5.035   5.695   6.678
18504WAT     H255755   4.971   5.801   6.572
18505WAT      O55756   4.758   0.387   4.637
18505WAT     H155757   4.701   0.355   4.561
18505WAT     H255758   4.755   0.487   4.642
18506WAT      O55759   6.698   0.480   3.128
18506WAT     H155760   6.717   0.481   3.226
18506WAT     H255761   6.605   0.447   3.112
18507WAT      O55762   3.688   5.461   0.870
18507WAT     H155763   3.639   5.548   0.859
18507WAT     H255764   3.646   5.392   0.811
18508WAT      O55765   2.752   0.877   5.833
18508WAT     H155766   2.845   0.910   5.843
18508WAT     H255767   2.736   0.801   5.896
18509WAT      O55768   4.617   9.040   9.260
18509WAT     H155769   4.518   9.042   9.251
18509WAT     H255770   4.659   9.015   9.173
18510WAT      O55771   4.751   3.141   0.642
18510WAT     H155772   4.810   3.193   0.703
18510WAT     H255773   4.732   3.051   0.682
18511WAT      O55774   5.144   1.585   2.685
18511WAT     H155775   5.132   1.491   2.717
18511WAT     H255776   5.236   1.595   2.646
18512WAT      O55777   6.594   1.411   8.514
18512WAT     H155778   6.577   1.509   8.504
18512WAT     H255779   6.644   1.378   8.434
18513WAT      O55780   8.333   4.960   5.879
18513WAT     H155781   8.297   4.903   5.805
18513WAT     H255782   8.263   4.975   5.948
18514WAT      O55783   8.884   4.304   1.224
18514WAT     H155784   8.920   4.213   1.205
18514WAT     H255785   8.959   4.370   1.222
18515WAT      O55786   5.622   4.582   1.479
18515WAT     H155787   5.581   4.636   1.406
18515WAT     H255788   5.578   4.606   1.566
18516WAT      O55789   8.637   9.399   1.788
18516WAT     H155790   8.729   9.371   1.762
18516WAT     H255791   8.582   9.318   1.809
18517WAT      O55792   1.864   9.048   3.939
18517WAT     H155793   1.862   9.050   3.839
18517WAT     H255794   1.957   9.063   3.972
18518WAT      O55795   7.465   8.011   7.157
18518WAT     H155796   7.485   7.950   7.234
18518WAT     H255797   7.366   8.020   7.146
18519WAT      O55798   1.358   7.346   6.012
18519WAT     H155799   1.394   7.430   5.971
18519WAT     H255800   1.283   7.369   6.074
18520WAT      O55801   0.681   1.368   2.909
18520WAT     H155802   0.755   1.336   2.851
18520WAT     H255803   0.707   1.360   3.005
18521WAT      O55804   5.103   2.130   8.295
18521WAT     H155805   5.013   2.142   8.337
18521WAT     H255806   5.151   2.218   8.294
18522WAT      O55807   3.337   9.209   4.586
18522WAT     H155808   3.389   9.292   4.568
18522WAT     H255809   3.252   9.232   4.633
18523WAT      O55810   1.591   8.224   8.027
18523WAT     H155811   1.596   8.133   7.986
18523WAT     H255812   1.604   8.217   8.126
18524WAT      O55813   4.834   5.744   0.177
18524WAT     H155814   4.914   5.709   0.128
18524WAT     H255815   4.812   5.836   0.143
18525WAT      O55816   3.257   0.609   9.719
18525WAT     H155817   3.215   0.673   9.653
18525WAT     H255818   3.262   0.652   9.809
18526WAT      O55819   1.613   6.181   5.516
18526WAT     H155820   1.551   6.112   5.479
18526WAT     H255821   1.683   6.136   5.572
18527WAT      O55822   5.519   2.794   7.481
18527WAT     H155823   5.505   2.713   7.426
18527WAT     H255824   5.439   2.811   7.538
18528WAT      O55825   6.595   6.201   7.035
18528WAT     H155826   6.588   6.300   7.024
18528WAT     H255827   6.517   6.156   6.991
18529WAT      O55828   2.429   9.412   3.953
18529WAT     H155829   2.411   9.484   4.020
18529WAT     H255830   2.367   9.335   3.969
18530WAT      O55831   8.843   5.246   9.548
18530WAT     H155832   8.766   5.203   9.595
18530WAT     H255833   8.853   5.341   9.579
18531WAT      O55834   5.729   9.473   1.661
18531WAT     H155835   5.779   9.556   1.684
18531WAT     H255836   5.678   9.441   1.741
18532WAT      O55837   7.692   0.800   2.378
18532WAT     H155838   7.730   0.773   2.290
18532WAT     H255839   7.707   0.897   2.394
18533WAT      O55840   5.042   0.784   1.741
18533WAT     H155841   5.104   0.796   1.663
18533WAT     H255842   4.967   0.723   1.715
18534WAT      O55843   8.819   4.394   7.632
18534WAT     H155844   8.839   4.328   7.559
18534WAT     H255845   8.722   4.389   7.655
18535WAT      O55846   9.140   1.819   7.725
18535WAT     H155847   9.240   1.821   7.723
18535WAT     H255848   9.109   1.733   7.764
18536WAT      O55849   9.386   1.306   0.147
18536WAT     H155850   9.410   1.342   0.056
18536WAT     H255851   9.289   1.320   0.164
18537WAT      O55852   5.283   8.881   7.973
18537WAT     H155853   5.338   8.850   7.896
18537WAT     H255854   5.237   8.803   8.015
18538WAT      O55855   0.681   6.195   0.159
18538WAT     H155856   0.765   6.248   0.154
18538WAT     H255857   0.655   6.165   0.068
18539WAT      O55858   3.197   6.173   8.955
18539WAT     H155859   3.186   6.271   8.967
18539WAT     H255860   3.110   6.127   8.969
18540WAT      O55861   4.342   1.986   2.734
18540WAT     H155862   4.393   2.038   2.803
18540WAT     H255863   4.395   1.906   2.706
18541WAT      O55864   5.659   9.151   7.438
18541WAT     H155865   5.569   9.167   7.397
18541WAT     H255866   5.729   9.200   7.387
18542WAT      O55867   2.601   9.157   6.698
18542WAT     H155868   2.527   9.213   6.660
18542WAT     H255869   2.662   9.129   6.624
18543WAT      O55870   5.143   0.535   4.504
18543WAT     H155871   5.213   0.605   4.520
18543WAT     H255872   5.156   0.496   4.413
18544WAT      O55873   7.009   0.570   4.952
18544WAT     H155874   7.076   0.511   4.908
18544WAT     H255875   7.010   0.661   4.910
18545WAT      O55876   7.537   9.531   9.760
18545WAT     H155877   7.550   9.583   9.676
18545WAT     H255878   7.445   9.547   9.795
18546WAT      O55879   9.009   6.997   2.047
18546WAT     H155880   9.061   7.057   1.987
18546WAT     H255881   8.911   7.010   2.031
18547WAT      O55882   8.350   1.680   9.436
18547WAT     H155883   8.445   1.654   9.451
18547WAT     H255884   8.292   1.641   9.507
18548WAT      O55885   1.395   1.224   5.282
18548WAT     H155886   1.399   1.267   5.372
18548WAT     H255887   1.426   1.290   5.213
18549WAT      O55888   6.997   3.334   5.908
18549WAT     H155889   7.071   3.333   5.840
18549WAT     H255890   7.035   3.351   5.999
18550WAT      O55891   1.710   0.389   9.239
18550WAT     H155892   1.789   0.327   9.241
18550WAT     H255893   1.733   0.470   9.186
18551WAT      O55894   2.975   4.721   4.319
18551WAT     H155895   3.007   4.669   4.398
18551WAT     H255896   2.989   4.819   4.336
18552WAT      O55897   2.071   4.978   8.265
18552WAT     H155898   2.149   4.919   8.242
18552WAT     H255899   2.005   4.976   8.190
18553WAT      O55900   0.513   4.571   7.292
18553WAT     H155901   0.461   4.509   7.234
18553WAT     H255902   0.457   4.598   7.371
18554WAT      O55903   8.640   3.002   5.776
18554WAT     H155904   8.638   2.989   5.875
18554WAT     H255905   8.688   2.927   5.733
18555WAT      O55906   0.807   1.407   2.110
18555WAT     H155907   0.736   1.427   2.042
18555WAT     H255908   0.888   1.370   2.064
18556WAT      O55909   4.874   6.372   2.447
18556WAT     H155910   4.904   6.356   2.353
18556WAT     H255911   4.952   6.401   2.503
18557WAT      O55912   5.482   6.154   9.889
18557WAT     H155913   5.385   6.132   9.899
18557WAT     H255914   5.521   6.097   9.817
18558WAT      O55915   1.067   7.380   2.487
18558WAT     H155916   0.995   7.358   2.421
18558WAT     H255917   1.066   7.313   2.561
18559WAT      O55918   5.467   2.129   7.661
18559WAT     H155919   5.518   2.076   7.592
18559WAT     H255920   5.422   2.065   7.724
18560WAT      O55921   6.243   1.670   8.154
18560WAT     H155922   6.229   1.762   8.116
18560WAT     H255923   6.191   1.603   8.101
18561WAT      O55924   8.482   3.013   6.729
18561WAT     H155925   8.568   2.981   6.767
18561WAT     H255926   8.410   3.010   6.799
18562WAT      O55927   7.860   4.617   4.224
18562WAT     H155928   7.856   4.554   4.302
18562WAT     H255929   7.803   4.697   4.243
18563WAT      O55930   3.696   4.222   9.263
18563WAT     H155931   3.639   4.141   9.275
18563WAT     H255932   3.638   4.303   9.252
18564WAT      O55933   0.422   0.443   8.748
18564WAT     H155934   0.327   0.436   8.717
18564WAT     H255935   0.478   0.486   8.677
18565WAT      O55936   1.550   5.780   2.563
18565WAT     H155937   1.490   5.711   2.603
18565WAT     H255938   1.496   5.845   2.511
18566WAT      O55939   5.000   3.372   5.769
18566WAT     H155940   5.032   3.295   5.714
18566WAT     H255941   4.913   3.405   5.732
18567WAT      O55942   0.053   9.308   3.074
18567WAT     H155943   0.075   9.345   2.983
18567WAT     H255944   0.052   9.208   3.070
18568WAT      O55945   3.822   2.330   7.110
18568WAT     H155946   3.913   2.360   7.081
18568WAT     H255947   3.764   2.410   7.125
18569WAT      O55948   4.105   4.528   2.753
18569WAT     H155949   4.090   4.533   2.851
18569WAT     H255950   4.116   4.620   2.715
18570WAT      O55951   6.131   8.288   7.588
18570WAT     H155952   6.156   8.332   7.675
18570WAT     H255953   6.098   8.358   7.524
18571WAT      O55954   2.219   5.290   0.931
18571WAT     H155955   2.281   5.224   0.974
18571WAT     H255956   2.136   5.298   0.987
18572WAT      O55957   6.954   9.835   9.234
18572WAT     H155958   6.937   9.878   9.323
18572WAT     H255959   6.909   9.746   9.232
18573WAT      O55960   8.351   6.937   2.739
18573WAT     H155961   8.350   6.945   2.838
18573WAT     H255962   8.443   6.960   2.705
18574WAT      O55963   3.867   8.215   5.352
18574WAT     H155964   3.848   8.271   5.432
18574WAT     H255965   3.867   8.118   5.379
18575WAT      O55966   0.222   3.230   2.812
18575WAT     H155967   0.317   3.200   2.802
18575WAT     H255968   0.178   3.178   2.885
18576WAT      O55969   7.277   8.788   2.114
18576WAT     H155970   7.332   8.870   2.097
18576WAT     H255971   7.249   8.748   2.027
18577WAT      O55972   5.108   7.507   4.113
18577WAT     H155973   5.198   7.541   4.139
18577WAT     H255974   5.039   7.551   4.171
18578WAT      O55975   5.116   3.717   1.771
18578WAT     H155976   5.123   3.722   1.870
18578WAT     H255977   5.085   3.805   1.734
18579WAT      O55978   4.124   3.101   7.299
18579WAT     H155979   4.180   3.172   7.342
18579WAT     H255980   4.167   3.012   7.312
18580WAT      O55981   3.735   1.967   1.649
18580WAT     H155982   3.673   1.917   1.587
18580WAT     H255983   3.820   1.915   1.658
18581WAT      O55984   1.835   2.016   6.768
18581WAT     H155985   1.788   1.970   6.693
18581WAT     H255986   1.775   2.022   6.847
18582WAT      O55987   5.845   5.048   2.123
18582WAT     H155988   5.895   5.112   2.181
18582WAT     H255989   5.890   5.043   2.034
18583WAT      O55990   5.051   9.522   2.955
18583WAT     H155991   5.137   9.535   2.906
18583WAT     H255992   4.975   9.560   2.902
18584WAT      O55993   1.207   9.251   2.668
18584WAT     H155994   1.264   9.169   2.655
18584WAT     H255995   1.119   9.239   2.621
18585WAT      O55996   1.558   1.928   0.851
18585WAT     H155997   1.563   1.872   0.933
18585WAT     H255998   1.462   1.943   0.825
18586WAT      O55999   1.205   8.852   2.894
18586WAT     H156000   1.138   8.883   2.827
18586WAT     H256001   1.223   8.927   2.959
18587WAT      O56002   5.914   6.766   3.531
18587WAT     H156003   5.896   6.847   3.476
18587WAT     H256004   5.856   6.691   3.501
18588WAT      O56005   9.802   8.829   2.872
18588WAT     H156006   9.779   8.761   2.803
18588WAT     H256007   9.805   8.920   2.831
18589WAT      O56008   8.041   5.457   5.270
18589WAT     H156009   8.043   5.475   5.172
18589WAT     H256010   8.131   5.427   5.301
18590WAT      O56011   3.605   1.514   9.781
18590WAT     H156012   3.622   1.590   9.718
18590WAT     H256013   3.688   1.459   9.790
18591WAT      O56014   9.122   3.312   8.745
18591WAT     H156015   9.136   3.391   8.687
18591WAT     H256016   9.048   3.331   8.810
18592WAT      O56017   7.607   3.503   1.232
18592WAT     H156018   7.599   3.462   1.323
18592WAT     H256019   7.553   3.450   1.167
18593WAT      O56020   8.386   6.573   6.636
18593WAT     H156021   8.466   6.610   6.684
18593WAT     H256022   8.340   6.647   6.586
18594WAT      O56023   9.704   6.140   3.719
18594WAT     H156024   9.631   6.077   3.690
18594WAT     H256025   9.705   6.220   3.659
18595WAT      O56026   3.511   1.624   4.356
18595WAT     H156027   3.458   1.650   4.275
18595WAT     H256028   3.510   1.699   4.422
18596WAT      O56029   0.961   0.773   9.077
18596WAT     H156030   1.008   0.713   9.013
18596WAT     H256031   0.866   0.785   9.047
18597WAT      O56032   6.299   2.743   5.172
18597WAT     H156033   6.331   2.837   5.169
18597WAT     H256034   6.211   2.739   5.220
18598WAT      O56035   0.268   6.305   0.362
18598WAT     H156036   0.199   6.327   0.293
18598WAT     H256037   0.260   6.209   0.388
18599WAT      O56038   7.529   4.487   5.897
18599WAT     H156039   7.504   4.564   5.955
18599WAT     H256040   7.622   4.500   5.863
18600WAT      O56041   3.852   6.882   7.433
18600WAT     H156042   3.850   6.917   7.339
18600WAT     H256043   3.773   6.916   7.483
18601WAT      O56044   9.470   3.389   8.116
18601WAT     H156045   9.482   3.300   8.160
18601WAT     H256046   9.492   3.381   8.019
18602WAT      O56047   6.955   1.331   9.427
18602WAT     H156048   7.025   1.265   9.400
18602WAT     H256049   6.870   1.311   9.379
18603WAT      O56050   1.256   6.887   6.195
18603WAT     H156051   1.213   6.956   6.137
18603WAT     H256052   1.186   6.824   6.230
18604WAT      O56053   7.887   6.388   0.935
18604WAT     H156054   7.871   6.371   1.032
18604WAT     H256055   7.841   6.318   0.881
18605WAT      O56056   8.836   1.335   2.642
18605WAT     H156057   8.822   1.260   2.707
18605WAT     H256058   8.751   1.388   2.634
18606WAT      O56059   3.249   9.087   3.436
18606WAT     H156060   3.271   9.022   3.509
18606WAT     H256061   3.278   9.050   3.348
18607WAT      O56062   8.080   7.418   5.839
18607WAT     H156063   8.152   7.402   5.907
18607WAT     H256064   8.107   7.494   5.780
18608WAT      O56065   7.092   4.073   1.908
18608WAT     H156066   7.065   4.016   1.985
18608WAT     H256067   7.184   4.048   1.878
18609WAT      O56068   9.579   6.831   6.286
18609WAT     H156069   9.493   6.783   6.299
18609WAT     H256070   9.643   6.806   6.359
18610WAT      O56071   1.362   5.197   5.853
18610WAT     H156072   1.398   5.289   5.846
18610WAT     H256073   1.400   5.152   5.935
18611WAT      O56074   6.955   1.061   2.285
18611WAT     H156075   6.999   1.020   2.205
18611WAT     H256076   6.902   0.992   2.334
18612WAT      O56077   7.115   5.731   5.510
18612WAT     H156078   7.112   5.825   5.476
18612WAT     H256079   7.150   5.670   5.439
18613WAT      O56080   7.928   2.969   1.004
18613WAT     H156081   7.987   2.901   1.048
18613WAT     H256082   7.833   2.946   1.021
18614WAT      O56083   5.654   0.883   2.622
18614WAT     H156084   5.679   0.942   2.545
18614WAT     H256085   5.700   0.915   2.705
18615WAT      O56086   2.753   4.836   0.078
18615WAT     H156087   2.823   4.845   0.149
18615WAT     H256088   2.758   4.745   0.038
18616WAT      O56089   6.750   8.001   8.707
18616WAT     H156090   6.721   8.049   8.790
18616WAT     H256091   6.827   7.941   8.729
18617WAT      O56092   3.254   9.440   6.420
18617WAT     H156093   3.231   9.353   6.463
18617WAT     H256094   3.331   9.428   6.358
18618WAT      O56095   4.393   9.558   1.947
18618WAT     H156096   4.493   9.564   1.949
18618WAT     H256097   4.355   9.610   2.024
18619WAT      O56098   3.298   1.318   9.191
18619WAT     H156099   3.266   1.386   9.124
18619WAT     H256100   3.398   1.327   9.201
18620WAT      O56101   0.095   2.596   5.158
18620WAT     H156102   0.010   2.632   5.194
18620WAT     H256103   0.172   2.649   5.194
18621WAT      O56104   6.580   9.686   3.075
18621WAT     H156105   6.624   9.610   3.026
18621WAT     H256106   6.488   9.700   3.039
18622WAT      O56107   1.056   0.336   3.514
18622WAT     H156108   1.135   0.394   3.493
18622WAT     H256109   1.015   0.304   3.429
18623WAT      O56110   7.988   6.956   6.431
18623WAT     H156111   8.079   6.991   6.406
18623WAT     H256112   7.925   7.032   6.445
18624WAT      O56113   4.823   3.758   2.353
18624WAT     H156114   4.922   3.759   2.361
18624WAT     H256115   4.782   3.813   2.426
18625WAT      O56116   8.336   2.324   9.088
18625WAT     H156117   8.377   2.260   9.153
18625WAT     H256118   8.237   2.320   9.096
18626WAT      O56119   1.423   6.588   6.970
18626WAT     H156120   1.508   6.621   7.010
18626WAT     H256121   1.389   6.653   6.903
18627WAT      O56122   9.083   8.925   7.853
18627WAT     H156123   9.164   8.930   7.795
18627WAT     H256124   9.112   8.917   7.949
18628WAT      O56125   3.107   8.773   3.255
18628WAT     H156126   3.200   8.808   3.243
18628WAT     H256127   3.041   8.844   3.231
18629WAT      O56128   2.887   1.258   3.763
18629WAT     H156129   2.857   1.304   3.846
18629WAT     H256130   2.877   1.159   3.774
18630WAT      O56131   0.392   7.685   3.157
18630WAT     H156132   0.397   7.600   3.209
18630WAT     H256133   0.316   7.741   3.190
18631WAT      O56134   6.049   0.102   0.491
18631WAT     H156135   5.954   0.125   0.469
18631WAT     H256136   6.057   0.090   0.590
18632WAT      O56137   0.770   7.494   7.879
18632WAT     H156138   0.689   7.446   7.845
18632WAT     H256139   0.828   7.431   7.930
18633WAT      O56140   6.290   8.171   8.281
18633WAT     H156141   6.268   8.268   8.288
18633WAT     H256142   6.383   8.160   8.248
18634WAT      O56143   2.887   7.123   2.737
18634WAT     H156144   2.796   7.163   2.749
18634WAT     H256145   2.881   7.045   2.674
18635WAT      O56146   1.893   1.512   9.882
18635WAT     H156147   1.818   1.471   9.933
18635WAT     H256148   1.961   1.442   9.860
18636WAT      O56149   9.348   3.173   8.823
18636WAT     H156150   9.261   3.216   8.800
18636WAT     H256151   9.335   3.075   8.834
18637WAT      O56152   2.166   3.717   8.451
18637WAT     H156153   2.156   3.734   8.549
18637WAT     H256154   2.205   3.626   8.436
18638WAT      O56155   6.088   8.987   0.452
18638WAT     H156156   6.071   9.014   0.547
18638WAT     H256157   6.044   8.899   0.433
18639WAT      O56158   2.841   9.077   7.849
18639WAT     H156159   2.898   9.051   7.927
18639WAT     H256160   2.784   9.155   7.874
18640WAT      O56161   5.243   2.002   3.804
18640WAT     H156162   5.232   1.903   3.805
18640WAT     H256163   5.273   2.033   3.894
18641WAT      O56164   9.205   4.662   3.111
18641WAT     H156165   9.208   4.749   3.062
18641WAT     H256166   9.259   4.594   3.062
18642WAT      O56167   3.264   9.056   5.388
18642WAT     H156168   3.212   9.101   5.461
18642WAT     H256169   3.343   9.111   5.364
18643WAT      O56170   2.429   0.340   9.885
18643WAT     H156171   2.334   0.321   9.910
18643WAT     H256172   2.485   0.344   9.968
18644WAT      O56173   5.741   7.818   7.472
18644WAT     H156174   5.707   7.847   7.383
18644WAT     H256175   5.671   7.763   7.518
18645WAT      O56176   5.127   1.082   9.543
18645WAT     H156177   5.108   1.020   9.620
18645WAT     H256178   5.180   1.160   9.576
18646WAT      O56179   2.540   6.245   1.165
18646WAT     H156180   2.478   6.215   1.093
18646WAT     H256181   2.618   6.183   1.172
18647WAT      O56182   5.720   0.342   9.734
18647WAT     H156183   5.700   0.270   9.801
18647WAT     H256184   5.710   0.305   9.641
18648WAT      O56185   5.691   8.925   9.632
18648WAT     H156186   5.740   8.847   9.672
18648WAT     H256187   5.594   8.903   9.623
18649WAT      O56188   8.633   6.354   8.590
18649WAT     H156189   8.699   6.315   8.525
18649WAT     H256190   8.545   6.365   8.546
18650WAT      O56191   4.767   9.466   0.372
18650WAT     H156192   4.743   9.475   0.276
18650WAT     H256193   4.691   9.425   0.422
18651WAT      O56194   6.695   0.154   6.525
18651WAT     H156195   6.767   0.177   6.459
18651WAT     H256196   6.669   0.236   6.577
18652WAT      O56197   1.116   4.142   7.817
18652WAT     H156198   1.202   4.092   7.804
18652WAT     H256199   1.125   4.204   7.895
18653WAT      O56200   0.914   7.234   4.606
18653WAT     H156201   0.991   7.293   4.583
18653WAT     H256202   0.943   7.163   4.670
18654WAT      O56203   9.786   8.795   9.241
18654WAT     H156204   9.778   8.697   9.259
18654WAT     H256205   9.867   8.812   9.186
18655WAT      O56206   9.190   0.793   5.323
18655WAT     H156207   9.138   0.712   5.293
18655WAT     H256208   9.135   0.875   5.307
18656WAT      O56209   4.428   7.998   4.534
18656WAT     H156210   4.384   8.088   4.537
18656WAT     H256211   4.400   7.945   4.615
18657WAT      O56212   6.546   9.021   4.004
18657WAT     H156213   6.520   9.015   4.101
18657WAT     H256214   6.466   9.046   3.950
18658WAT      O56215   1.526   7.665   8.876
18658WAT     H156216   1.579   7.733   8.927
18658WAT     H256217   1.511   7.584   8.933
18659WAT      O56218   5.797   4.718   7.460
18659WAT     H156219   5.710   4.678   7.488
18659WAT     H256220   5.843   4.656   7.397
18660WAT      O56221   2.415   6.954   2.877
18660WAT     H156222   2.479   6.880   2.854
18660WAT     H256223   2.327   6.916   2.904
18661WAT      O56224   3.095   4.195   5.831
18661WAT     H156225   3.116   4.114   5.886
18661WAT     H256226   3.005   4.183   5.788
18662WAT      O56227   5.208   5.105   1.420
18662WAT     H156228   5.280   5.105   1.489
18662WAT     H256229   5.176   5.011   1.405
18663WAT      O56230   3.843   7.423   0.080
18663WAT     H156231   3.855   7.330   0.044
18663WAT     H256232   3.757   7.429   0.130
18664WAT      O56233   7.287   3.192   0.957
18664WAT     H156234   7.323   3.149   0.874
18664WAT     H256235   7.202   3.241   0.935
18665WAT      O56236   1.065   0.039   7.019
18665WAT     H156237   0.998   0.106   6.986
18665WAT     H256238   1.152   0.053   6.973
18666WAT      O56239   9.258   5.059   4.942
18666WAT     H156240   9.256   5.092   5.036
18666WAT     H256241   9.170   5.018   4.919
18667WAT      O56242   8.634   7.452   7.458
18667WAT     H156243   8.607   7.407   7.543
18667WAT     H256244   8.554   7.493   7.414
18668WAT      O56245   1.373   0.529   8.456
18668WAT     H156246   1.315   0.471   8.398
18668WAT     H256247   1.340   0.624   8.451
18669WAT      O56248   0.532   3.956   6.632
18669WAT     H156249   0.560   3.919   6.721
18669WAT     H256250   0.482   4.041   6.646
18670WAT      O56251   1.091   0.857   5.872
18670WAT     H156252   1.065   0.909   5.953
18670WAT     H256253   1.039   0.889   5.793
18671WAT      O56254   6.674   4.993   2.696
18671WAT     H156255   6.674   4.900   2.659
18671WAT     H256256   6.746   5.001   2.765
18672WAT      O56257   2.433   4.511   6.879
18672WAT     H156258   2.426   4.445   6.954
18672WAT     H256259   2.359   4.496   6.814
18673WAT      O56260   9.822   5.632   5.202
18673WAT     H156261   9.912   5.647   5.243
18673WAT     H256262   9.791   5.717   5.158
18674WAT      O56263   1.109   8.012   5.647
18674WAT     H156264   1.115   8.020   5.747
18674WAT     H256265   1.124   7.917   5.620
18675WAT      O56266   9.213   4.179   8.623
18675WAT     H156267   9.153   4.135   8.690
18675WAT     H256268   9.280   4.112   8.591
18676WAT      O56269   4.033   0.096   5.070
18676WAT     H156270   3.965   0.103   4.997
18676WAT     H256271   4.094   0.175   5.066
18677WAT      O56272   0.346   1.213   6.572
18677WAT     H156273   0.413   1.167   6.513
18677WAT     H256274   0.386   1.227   6.663
18678WAT      O56275   4.213   6.851   5.060
18678WAT     H156276   4.158   6.794   4.999
18678WAT     H256277   4.239   6.798   5.140
18679WAT      O56278   5.851   9.671   1.816
18679WAT     H156279   5.834   9.698   1.911
18679WAT     H256280   5.806   9.735   1.754
18680WAT      O56281   2.654   7.092   8.858
18680WAT     H156282   2.642   7.153   8.780
18680WAT     H256283   2.596   7.011   8.845
18681WAT      O56284   2.977   1.138   2.585
18681WAT     H156285   3.050   1.070   2.597
18681WAT     H256286   2.991   1.186   2.498
18682WAT      O56287   5.674   1.940   0.775
18682WAT     H156288   5.586   1.900   0.803
18682WAT     H256289   5.693   2.021   0.831
18683WAT      O56290   6.485   8.310   3.533
18683WAT     H156291   6.411   8.375   3.517
18683WAT     H256292   6.459   8.220   3.495
18684WAT      O56293   7.154   5.491   4.574
18684WAT     H156294   7.077   5.551   4.596
18684WAT     H256295   7.156   5.415   4.639
18685WAT      O56296   8.557   2.195   4.069
18685WAT     H156297   8.615   2.276   4.078
18685WAT     H256298   8.582   2.145   3.987
18686WAT      O56299   9.596   5.429   5.964
18686WAT     H156300   9.524   5.360   5.958
18686WAT     H256301   9.598   5.468   6.056
18687WAT      O56302   8.306   9.596   3.965
18687WAT     H156303   8.307   9.635   4.057
18687WAT     H256304   8.287   9.669   3.899
18688WAT      O56305   6.526   8.441   4.253
18688WAT     H156306   6.448   8.440   4.315
18688WAT     H256307   6.569   8.351   4.251
18689WAT      O56308   1.846   4.836   5.295
18689WAT     H156309   1.834   4.858   5.199
18689WAT     H256310   1.780   4.888   5.350
18690WAT      O56311   6.809   7.385   4.797
18690WAT     H156312   6.765   7.426   4.877
18690WAT     H256313   6.820   7.454   4.726
18691WAT      O56314   7.254   4.741   9.514
18691WAT     H156315   7.257   4.797   9.597
18691WAT     H256316   7.313   4.661   9.526
18692WAT      O56317   7.371   8.543   3.820
18692WAT     H156318   7.446   8.603   3.847
18692WAT     H256319   7.342   8.488   3.899
18693WAT      O56320   9.377   2.732   9.619
18693WAT     H156321   9.407   2.661   9.555
18693WAT     H256322   9.278   2.729   9.628
18694WAT      O56323   8.695   2.172   5.715
18694WAT     H156324   8.771   2.110   5.734
18694WAT     H256325   8.625   2.123   5.662
18695WAT      O56326   3.671   7.735   1.977
18695WAT     H156327   3.643   7.646   2.014
18695WAT     H256328   3.653   7.807   2.045
18696WAT      O56329   2.332   5.041   4.253
18696WAT     H156330   2.269   4.976   4.295
18696WAT     H256331   2.340   5.122   4.310
18697WAT      O56332   6.482   5.916   2.457
18697WAT     H156333   6.513   5.834   2.408
18697WAT     H256334   6.439   5.889   2.543
18698WAT      O56335   6.663   9.253   0.306
18698WAT     H156336   6.566   9.240   0.285
18698WAT     H256337   6.683   9.351   0.309
18699WAT      O56338   4.267   2.443   2.711
18699WAT     H156339   4.271   2.531   2.664
18699WAT     H256340   4.246   2.371   2.645
18700WAT      O56341   0.770   4.252   3.826
18700WAT     H156342   0.750   4.332   3.769
18700WAT     H256343   0.701   4.182   3.812
18701WAT      O56344   4.111   0.392   0.160
18701WAT     H156345   4.026   0.386   0.212
18701WAT     H256346   4.097   0.352   0.069
18702WAT      O56347   3.193   8.719   8.532
18702WAT     H156348   3.235   8.632   8.554
18702WAT     H256349   3.094   8.707   8.521
18703WAT      O56350   9.080   2.112   6.987
18703WAT     H156351   9.050   2.205   6.966
18703WAT     H256352   9.023   2.046   6.938
18704WAT      O56353   3.175   4.168   3.173
18704WAT     H156354   3.111   4.131   3.240
18704WAT     H256355   3.259   4.113   3.173
18705WAT      O56356   9.760   9.236   8.250
18705WAT     H156357   9.817   9.169   8.202
18705WAT     H256358   9.692   9.189   8.305
18706WAT      O56359   8.698   7.396   2.343
18706WAT     H156360   8.734   7.454   2.416
18706WAT     H256361   8.636   7.449   2.285
18707WAT      O56362   2.552   1.840   1.100
18707WAT     H156363   2.559   1.825   1.199
18707WAT     H256364   2.466   1.886   1.079
18708WAT      O56365   5.612   4.948   3.813
18708WAT     H156366   5.693   4.961   3.756
18708WAT     H256367   5.542   4.898   3.762
18709WAT      O56368   2.406   8.900   8.819
18709WAT     H156369   2.449   8.990   8.807
18709WAT     H256370   2.442   8.857   8.901
18710WAT      O56371   0.422   2.726   2.279
18710WAT     H156372   0.467   2.804   2.323
18710WAT     H256373   0.335   2.755   2.240
18711WAT      O56374   2.184   2.259   3.845
18711WAT     H156375   2.109   2.322   3.826
18711WAT     H256376   2.240   2.296   3.920
18712WAT      O56377   7.585   4.415   3.882
18712WAT     H156378   7.654   4.345   3.901
18712WAT     H256379   7.499   4.372   3.855
18713WAT      O56380   9.131   7.070   3.179
18713WAT     H156381   9.148   7.106   3.087
18713WAT     H256382   9.033   7.052   3.190
18714WAT      O56383   3.055   5.240   9.368
18714WAT     H156384   3.151   5.215   9.383
18714WAT     H256385   3.032   5.231   9.271
18715WAT      O56386   0.342   2.653   9.850
18715WAT     H156387   0.255   2.680   9.809
18715WAT     H256388   0.415   2.662   9.781
18716WAT      O56389   0.538   9.701   2.074
18716WAT     H156390   0.623   9.751   2.057
18716WAT     H256391   0.481   9.704   1.992
18717WAT      O56392   5.833   0.626   0.576
18717WAT     H156393   5.785   0.619   0.489
18717WAT     H256394   5.903   0.554   0.581
18718WAT      O56395   1.295   2.543   0.151
18718WAT     H156396   1.316   2.456   0.196
18718WAT     H256397   1.225   2.529   0.082
18719WAT      O56398   9.309   4.392   5.856
18719WAT     H156399   9.314   4.319   5.924
18719WAT     H256400   9.307   4.352   5.764
18720WAT      O56401   6.552   5.554   5.070
18720WAT     H156402   6.489   5.617   5.025
18720WAT     H256403   6.526   5.460   5.049
18721WAT      O56404   8.067   7.887   6.570
18721WAT     H156405   7.988   7.826   6.561
18721WAT     H256406   8.103   7.908   6.480
18722WAT      O56407   6.560   2.086   2.723
18722WAT     H156408   6.508   2.047   2.798
18722WAT     H256409   6.615   2.162   2.756
18723WAT      O56410   2.603   8.200   5.823
18723WAT     H156411   2.575   8.295   5.814
18723WAT     H256412   2.537   8.150   5.879
18724WAT      O56413   3.116   1.868   1.308
18724WAT     H156414   3.032   1.902   1.350
18724WAT     H256415   3.187   1.859   1.377
18725WAT      O56416   9.429   2.171   2.906
18725WAT     H156417   9.446   2.215   2.817
18725WAT     H256418   9.514   2.169   2.959
18726WAT      O56419   1.793   2.103   7.363
18726WAT     H156420   1.808   2.025   7.425
18726WAT     H256421   1.842   2.087   7.277
18727WAT      O56422   4.681   0.552   2.052
18727WAT     H156423   4.610   0.482   2.062
18727WAT     H256424   4.662   0.629   2.112
18728WAT      O56425   8.043   5.903   1.729
18728WAT     H156426   8.130   5.857   1.746
18728WAT     H256427   7.982   5.842   1.679
18729WAT      O56428   3.486   8.705   2.619
18729WAT     H156429   3.479   8.677   2.524
18729WAT     H256430   3.496   8.804   2.624
18730WAT      O56431   9.079   8.517   8.019
18730WAT     H156432   9.152   8.458   8.052
18730WAT     H256433   9.105   8.556   7.930
18731WAT      O56434   8.513   3.671   6.503
18731WAT     H156435   8.579   3.709   6.568
18731WAT     H256436   8.516   3.571   6.505
18732WAT      O56437   9.818   5.077   0.037
18732WAT     H156438   9.757   5.141   0.084
18732WAT     H256439   9.771   4.991   0.020
18733WAT      O56440   4.552   9.421   5.561
18733WAT     H156441   4.561   9.517   5.585
18733WAT     H256442   4.505   9.412   5.473
18734WAT      O56443   3.953   8.282   6.677
18734WAT     H156444   3.873   8.228   6.702
18734WAT     H256445   4.036   8.229   6.694
18735WAT      O56446   0.533   3.853   5.968
18735WAT     H156447   0.536   3.877   6.065
18735WAT     H256448   0.519   3.936   5.914
18736WAT      O56449   8.345   4.202   3.805
18736WAT     H156450   8.324   4.121   3.751
18736WAT     H256451   8.427   4.186   3.859
18737WAT      O56452   6.553   5.491   6.617
18737WAT     H156453   6.606   5.518   6.536
18737WAT     H256454   6.596   5.413   6.661
18738WAT      O56455   0.317   0.030   7.087
18738WAT     H156456   0.414   0.034   7.065
18738WAT     H256457   0.264   0.070   7.013
18739WAT      O56458   4.418   0.846   6.015
18739WAT     H156459   4.385   0.768   5.961
18739WAT     H256460   4.517   0.839   6.026
18740WAT      O56461   0.027   5.607   2.412
18740WAT     H156462   0.101   5.669   2.387
18740WAT     H256463  -0.056   5.660   2.429
18741WAT      O56464   7.253   0.852   5.906
18741WAT     H156465   7.311   0.792   5.961
18741WAT     H256466   7.260   0.825   5.810
18742WAT      O56467   2.099   3.669   3.023
18742WAT     H156468   2.185   3.622   3.042
18742WAT     H256469   2.118   3.759   2.984
18743WAT      O56470   4.139   0.307   0.574
18743WAT     H156471   4.213   0.371   0.596
18743WAT     H256472   4.148   0.225   0.630
18744WAT      O56473   0.310   7.640   0.292
18744WAT     H156474   0.389   7.673   0.345
18744WAT     H256475   0.236   7.707   0.299
18745WAT      O56476   3.240   5.927   5.157
18745WAT     H156477   3.312   5.980   5.111
18745WAT     H256478   3.224   5.965   5.248
18746WAT      O56479   5.202   3.201   7.080
18746WAT     H156480   5.246   3.139   7.145
18746WAT     H256481   5.271   3.255   7.032
18747WAT      O56482   5.894   2.738   2.039
18747WAT     H156483   5.830   2.809   2.068
18747WAT     H256484   5.914   2.749   1.942
18748WAT      O56485   4.469   3.348   7.275
18748WAT     H156486   4.524   3.265   7.288
18748WAT     H256487   4.403   3.333   7.201
18749WAT      O56488   9.195   8.238   7.363
18749WAT     H156489   9.117   8.187   7.326
18749WAT     H256490   9.163   8.318   7.412
18750WAT      O56491   1.114   9.789   9.561
18750WAT     H156492   1.056   9.715   9.529
18750WAT     H256493   1.057   9.861   9.601
18751WAT      O56494   8.893   4.552   6.463
18751WAT     H156495   8.839   4.604   6.396
18751WAT     H256496   8.979   4.524   6.421
18752WAT      O56497   4.081   7.566   8.008
18752WAT     H156498   4.122   7.656   8.023
18752WAT     H256499   4.119   7.501   8.073
18753WAT      O56500   8.906   8.124   0.665
18753WAT     H156501   8.862   8.142   0.577
18753WAT     H256502   9.004   8.146   0.659
18754WAT      O56503   1.754   8.663   1.981
18754WAT     H156504   1.777   8.624   1.892
18754WAT     H256505   1.837   8.674   2.035
18755WAT      O56506   5.239   9.423   6.417
18755WAT     H156507   5.324   9.430   6.470
18755WAT     H256508   5.173   9.366   6.467
18756WAT      O56509   9.721   6.523   9.444
18756WAT     H156510   9.639   6.576   9.466
18756WAT     H256511   9.785   6.527   9.522
18757WAT      O56512   3.534   8.777   7.550
18757WAT     H156513   3.607   8.709   7.548
18757WAT     H256514   3.494   8.780   7.641
18758WAT      O56515   4.891   0.699   0.221
18758WAT     H156516   4.980   0.688   0.177
18758WAT     H256517   4.845   0.611   0.226
18759WAT      O56518   8.027   1.070   4.316
18759WAT     H156519   8.038   0.973   4.295
18759WAT     H256520   8.025   1.122   4.231
18760WAT      O56521   7.415   8.298   1.850
18760WAT     H156522   7.364   8.263   1.772
18760WAT     H256523   7.449   8.390   1.828
18761WAT      O56524   2.641   7.962   9.754
18761WAT     H156525   2.562   7.992   9.700
18761WAT     H256526   2.689   8.042   9.788
18762WAT      O56527   6.399   2.817   1.991
18762WAT     H156528   6.368   2.833   1.897
18762WAT     H256529   6.345   2.874   2.054
18763WAT      O56530   6.719   0.531   6.485
18763WAT     H156531   6.665   0.457   6.445
18763WAT     H256532   6.814   0.501   6.496
18764WAT      O56533   8.752   0.806   5.121
18764WAT     H156534   8.788   0.807   5.027
18764WAT     H256535   8.673   0.868   5.126
18765WAT      O56536   4.430   1.184   0.833
18765WAT     H156537   4.341   1.219   0.804
18765WAT     H256538   4.417   1.117   0.905
18766WAT      O56539   1.535   2.778   0.374
18766WAT     H156540   1.502   2.793   0.281
18766WAT     H256541   1.481   2.831   0.438
18767WAT      O56542   5.703   4.031   1.293
18767WAT     H156543   5.609   3.999   1.291
18767WAT     H256544   5.745   4.015   1.204
18768WAT      O56545   4.121   3.429   0.427
18768WAT     H156546   4.168   3.342   0.412
18768WAT     H256547   4.181   3.489   0.481
18769WAT      O56548   6.124   6.388   4.893
18769WAT     H156549   6.109   6.337   4.978
18769WAT     H256550   6.059   6.464   4.888
18770WAT      O56551   7.771   2.070   1.132
18770WAT     H156552   7.689   2.014   1.143
18770WAT     H256553   7.805   2.061   1.038
18771WAT      O56554   2.957   6.722   5.939
18771WAT     H156555   3.005   6.792   5.992
18771WAT     H256556   3.012   6.638   5.938
18772WAT      O56557   0.441   7.047   4.935
18772WAT     H156558   0.399   7.057   4.844
18772WAT     H256559   0.462   6.951   4.951
18773WAT      O56560   5.901   5.923   0.688
18773WAT     H156561   5.913   5.950   0.783
18773WAT     H256562   5.961   5.845   0.668
18774WAT      O56563   4.267   6.714   6.723
18774WAT     H156564   4.254   6.785   6.792
18774WAT     H256565   4.187   6.654   6.722
18775WAT      O56566   2.522   9.813   9.287
18775WAT     H156567   2.463   9.763   9.224
18775WAT     H256568   2.490   9.800   9.380
18776WAT      O56569   4.301   9.780   6.635
18776WAT     H156570   4.355   9.727   6.570
18776WAT     H256571   4.224   9.725   6.668
18777WAT      O56572   3.842   4.966   8.976
18777WAT     H156573   3.822   4.985   8.880
18777WAT     H256574   3.845   4.868   8.992
18778WAT      O56575   8.284   7.586   4.507
18778WAT     H156576   8.213   7.656   4.495
18778WAT     H256577   8.340   7.609   4.586
18779WAT      O56578   5.477   2.590   2.471
18779WAT     H156579   5.519   2.659   2.529
18779WAT     H256580   5.478   2.502   2.518
18780WAT      O56581   5.862   6.813   4.744
18780WAT     H156582   5.898   6.902   4.718
18780WAT     H256583   5.780   6.793   4.691
18781WAT      O56584   8.229   5.387   8.170
18781WAT     H156585   8.319   5.345   8.155
18781WAT     H256586   8.229   5.481   8.136
18782WAT      O56587   5.090   3.289   3.452
18782WAT     H156588   5.148   3.282   3.534
18782WAT     H256589   5.007   3.339   3.475
18783WAT      O56590   7.638   9.157   2.609
18783WAT     H156591   7.674   9.249   2.623
18783WAT     H256592   7.546   9.151   2.648
18784WAT      O56593   3.080   1.182   1.303
18784WAT     H156594   3.103   1.085   1.297
18784WAT     H256595   3.119   1.220   1.387
18785WAT      O56596   0.181   0.100   3.938
18785WAT     H156597   0.090   0.065   3.918
18785WAT     H256598   0.242   0.079   3.861
18786WAT      O56599   8.615   7.491   0.019
18786WAT     H156600   8.644   7.550  -0.056
18786WAT     H256601   8.530   7.444  -0.007
18787WAT      O56602   0.827   3.314   8.151
18787WAT     H156603   0.854   3.277   8.240
18787WAT     H256604   0.754   3.381   8.162
18788WAT      O56605   6.064   4.657   4.384
18788WAT     H156606   5.983   4.650   4.442
18788WAT     H256607   6.036   4.672   4.289
18789WAT      O56608   2.322   2.757   9.800
18789WAT     H156609   2.306   2.731   9.704
18789WAT     H256610   2.407   2.717   9.832
18790WAT      O56611   9.722   4.237   7.877
18790WAT     H156612   9.785   4.167   7.843
18790WAT     H256613   9.732   4.320   7.823
18791WAT      O56614   5.265   6.128   1.925
18791WAT     H156615   5.326   6.177   1.863
18791WAT     H256616   5.198   6.076   1.872
18792WAT      O56617   3.893   4.241   1.680
18792WAT     H156618   3.931   4.332   1.668
18792WAT     H256619   3.793   4.247   1.688
18793WAT      O56620   1.731   0.300   6.670
18793WAT     H156621   1.763   0.394   6.683
18793WAT     H256622   1.642   0.301   6.624
18794WAT      O56623   0.687   6.631   2.406
18794WAT     H156624   0.627   6.600   2.333
18794WAT     H256625   0.752   6.699   2.370
18795WAT      O56626   5.558   2.223   9.368
18795WAT     H156627   5.493   2.198   9.440
18795WAT     H256628   5.580   2.320   9.375
18796WAT      O56629   7.870   6.413   4.413
18796WAT     H156630   7.829   6.347   4.477
18796WAT     H256631   7.954   6.449   4.452
18797WAT      O56632   7.168   0.718   8.496
18797WAT     H156633   7.217   0.788   8.444
18797WAT     H256634   7.070   0.724   8.477
18798WAT      O56635   3.354   7.349   2.901
18798WAT     H156636   3.325   7.428   2.847
18798WAT     H256637   3.277   7.285   2.910
18799WAT      O56638   9.168   1.241   1.070
18799WAT     H156639   9.232   1.192   1.010
18799WAT     H256640   9.220   1.286   1.143
18800WAT      O56641   3.937   8.163   1.431
18800WAT     H156642   4.022   8.196   1.472
18800WAT     H256643   3.942   8.064   1.420
18801WAT      O56644   5.611   8.127   6.325
18801WAT     H156645   5.519   8.144   6.361
18801WAT     H256646   5.615   8.157   6.229
18802WAT      O56647   9.389   0.526   2.337
18802WAT     H156648   9.458   0.550   2.405
18802WAT     H256649   9.432   0.516   2.248
18803WAT      O56650   8.563   6.326   6.977
18803WAT     H156651   8.646   6.328   7.032
18803WAT     H256652   8.508   6.408   6.995
18804WAT      O56653   0.275   0.284   1.582
18804WAT     H156654   0.336   0.205   1.578
18804WAT     H256655   0.186   0.255   1.617
18805WAT      O56656   7.633   9.100   6.528
18805WAT     H156657   7.721   9.080   6.572
18805WAT     H256658   7.562   9.111   6.598
18806WAT      O56659   8.938   6.409   0.401
18806WAT     H156660   9.024   6.429   0.449
18806WAT     H256661   8.909   6.490   0.351
18807WAT      O56662   6.655   7.423   9.106
18807WAT     H156663   6.705   7.501   9.144
18807WAT     H256664   6.614   7.448   9.018
18808WAT      O56665   3.792   8.847   9.450
18808WAT     H156666   3.693   8.849   9.456
18808WAT     H256667   3.824   8.752   9.452
18809WAT      O56668   9.220   4.676   8.390
18809WAT     H156669   9.242   4.586   8.427
18809WAT     H256670   9.133   4.707   8.430
18810WAT      O56671   8.183   7.700   6.116
18810WAT     H156672   8.258   7.657   6.064
18810WAT     H256673   8.112   7.729   6.053
18811WAT      O56674   4.559   9.243   5.199
18811WAT     H156675   4.586   9.279   5.109
18811WAT     H256676   4.514   9.315   5.251
18812WAT      O56677   0.616   7.415   1.804
18812WAT     H156678   0.562   7.341   1.844
18812WAT     H256679   0.664   7.381   1.723
18813WAT      O56680   8.125   7.206   2.755
18813WAT     H156681   8.106   7.185   2.659
18813WAT     H256682   8.072   7.145   2.813
18814WAT      O56683   0.220   0.011   5.964
18814WAT     H156684   0.182   0.104   5.962
18814WAT     H256685   0.291   0.003   5.894
18815WAT      O56686   8.499   8.930   2.344
18815WAT     H156687   8.537   8.838   2.344
18815WAT     H256688   8.399   8.926   2.339
18816WAT      O56689   4.636   0.920   4.057
18816WAT     H156690   4.719   0.972   4.080
18816WAT     H256691   4.564   0.984   4.030
18817WAT      O56692   0.751   0.669   5.344
18817WAT     H156693   0.760   0.645   5.248
18817WAT     H256694   0.802   0.602   5.399
18818WAT      O56695   1.095   3.271   5.210
18818WAT     H156696   1.175   3.214   5.189
18818WAT     H256697   1.043   3.287   5.126
18819WAT      O56698   1.768   0.758   3.667
18819WAT     H156699   1.713   0.840   3.680
18819WAT     H256700   1.847   0.760   3.728
18820WAT      O56701   4.751   2.965   2.835
18820WAT     H156702   4.654   2.980   2.853
18820WAT     H256703   4.800   2.958   2.922
18821WAT      O56704   3.400   3.692   5.839
18821WAT     H156705   3.325   3.650   5.890
18821WAT     H256706   3.366   3.726   5.751
18822WAT      O56707   5.800   7.169   0.789
18822WAT     H156708   5.703   7.182   0.768
18822WAT     H256709   5.823   7.072   0.783
18823WAT      O56710   5.204   8.544   4.453
18823WAT     H156711   5.125   8.562   4.394
18823WAT     H256712   5.177   8.555   4.549
18824WAT      O56713   0.713   4.697   1.339
18824WAT     H156714   0.737   4.610   1.296
18824WAT     H256715   0.619   4.692   1.374
18825WAT      O56716   6.184   3.546   2.488
18825WAT     H156717   6.277   3.551   2.453
18825WAT     H256718   6.126   3.497   2.423
18826WAT      O56719   4.018   4.213   7.979
18826WAT     H156720   4.032   4.124   8.024
18826WAT     H256721   3.949   4.265   8.029
18827WAT      O56722   7.209   2.769   6.473
18827WAT     H156723   7.241   2.736   6.562
18827WAT     H256724   7.115   2.737   6.457
18828WAT      O56725   9.499   6.552   3.208
18828WAT     H156726   9.529   6.470   3.159
18828WAT     H256727   9.407   6.538   3.245
18829WAT      O56728   9.515   7.570   1.675
18829WAT     H156729   9.437   7.612   1.628
18829WAT     H256730   9.585   7.639   1.691
18830WAT      O56731   6.690   3.307   9.583
18830WAT     H156732   6.755   3.264   9.646
18830WAT     H256733   6.619   3.241   9.558
18831WAT      O56734   2.184   5.960   0.391
18831WAT     H156735   2.132   5.897   0.333
18831WAT     H256736   2.251   6.008   0.335
18832WAT      O56737   7.300   4.506   6.630
18832WAT     H156738   7.251   4.428   6.589
18832WAT     H256739   7.373   4.536   6.568
18833WAT      O56740   4.475   2.729   0.786
18833WAT     H156741   4.461   2.670   0.866
18833WAT     H256742   4.433   2.687   0.706
18834WAT      O56743   7.173   6.202   4.045
18834WAT     H156744   7.144   6.188   3.950
18834WAT     H256745   7.126   6.137   4.104
18835WAT      O56746   5.427   3.766   2.557
18835WAT     H156747   5.428   3.701   2.482
18835WAT     H256748   5.511   3.821   2.556
18836WAT      O56749   6.693   8.886   3.815
18836WAT     H156750   6.654   8.950   3.881
18836WAT     H256751   6.719   8.801   3.861
18837WAT      O56752   9.799   6.595   4.539
18837WAT     H156753   9.750   6.682   4.532
18837WAT     H256754   9.776   6.537   4.461
18838WAT      O56755   0.403   1.426   8.610
18838WAT     H156756   0.317   1.478   8.607
18838WAT     H256757   0.414   1.376   8.524
18839WAT      O56758   9.096   5.126   8.556
18839WAT     H156759   9.168   5.157   8.493
18839WAT     H256760   9.015   5.183   8.544
18840WAT      O56761   7.735   0.195   7.024
18840WAT     H156762   7.803   0.268   7.035
18840WAT     H256763   7.781   0.110   7.000
18841WAT      O56764   2.254   3.159   4.494
18841WAT     H156765   2.215   3.237   4.544
18841WAT     H256766   2.351   3.149   4.519
18842WAT      O56767   5.289   1.928   4.799
18842WAT     H156768   5.318   2.016   4.837
18842WAT     H256769   5.190   1.920   4.805
18843WAT      O56770   0.028   6.373   1.569
18843WAT     H156771   0.036   6.322   1.484
18843WAT     H256772  -0.056   6.345   1.617
18844WAT      O56773   0.736   7.496   6.895
18844WAT     H156774   0.740   7.595   6.886
18844WAT     H256775   0.642   7.468   6.919
18845WAT      O56776   7.414   9.355   4.973
18845WAT     H156777   7.375   9.283   5.031
18845WAT     H256778   7.507   9.375   5.002
18846WAT      O56779   0.427   2.030   0.837
18846WAT     H156780   0.492   2.006   0.765
18846WAT     H256781   0.404   1.948   0.890
18847WAT      O56782   9.499   4.532   3.465
18847WAT     H156783   9.515   4.629   3.480
18847WAT     H256784   9.502   4.512   3.367
18848WAT      O56785   2.255   6.204   6.684
18848WAT     H156786   2.284   6.292   6.722
18848WAT     H256787   2.301   6.130   6.732
18849WAT      O56788   0.709   7.145   4.849
18849WAT     H156789   0.725   7.115   4.755
18849WAT     H256790   0.611   7.148   4.867
18850WAT      O56791   2.407   8.067   5.994
18850WAT     H156792   2.365   7.977   6.006
18850WAT     H256793   2.366   8.133   6.057
18851WAT      O56794   4.441   9.466   5.303
18851WAT     H156795   4.346   9.479   5.273
18851WAT     H256796   4.485   9.556   5.314
18852WAT      O56797   3.106   6.877   5.702
18852WAT     H156798   3.010   6.849   5.698
18852WAT     H256799   3.137   6.879   5.797
18853WAT      O56800   9.094   5.466   6.499
18853WAT     H156801   9.126   5.439   6.590
18853WAT     H256802   9.082   5.384   6.442
18854WAT      O56803   7.699   7.399   0.818
18854WAT     H156804   7.657   7.404   0.728
18854WAT     H256805   7.655   7.325   0.871
18855WAT      O56806   4.055   3.296   9.710
18855WAT     H156807   4.113   3.222   9.676
18855WAT     H256808   3.959   3.275   9.689
18856WAT      O56809   3.571   7.500   9.144
18856WAT     H156810   3.528   7.418   9.181
18856WAT     H256811   3.504   7.574   9.138
18857WAT      O56812   2.366   7.325   0.744
18857WAT     H156813   2.297   7.385   0.784
18857WAT     H256814   2.359   7.327   0.644
18858WAT      O56815   2.353   5.595   4.234
18858WAT     H156816   2.261   5.593   4.272
18858WAT     H256817   2.349   5.625   4.139
18859WAT      O56818   8.965   4.730   2.563
18859WAT     H156819   8.872   4.708   2.593
18859WAT     H256820   8.969   4.731   2.463
18860WAT      O56821   9.031   8.717   3.606
18860WAT     H156822   9.086   8.798   3.629
18860WAT     H256823   9.091   8.644   3.574
18861WAT      O56824   4.109   1.084   2.230
18861WAT     H156825   4.124   0.989   2.257
18861WAT     H256826   4.165   1.105   2.149
18862WAT      O56827   7.348   2.041   6.670
18862WAT     H156828   7.292   1.996   6.739
18862WAT     H256829   7.399   2.116   6.713
18863WAT      O56830   5.358   4.399   1.895
18863WAT     H156831   5.302   4.357   1.967
18863WAT     H256832   5.298   4.442   1.827
18864WAT      O56833   4.905   7.255   4.464
18864WAT     H156834   4.896   7.293   4.372
18864WAT     H256835   4.891   7.156   4.461
18865WAT      O56836   9.177   6.176   8.095
18865WAT     H156837   9.205   6.081   8.113
18865WAT     H256838   9.078   6.182   8.092
18866WAT      O56839   1.591   7.633   9.687
18866WAT     H156840   1.554   7.638   9.779
18866WAT     H256841   1.639   7.546   9.674
18867WAT      O56842   3.803   2.385   3.334
18867WAT     H156843   3.895   2.392   3.293
18867WAT     H256844   3.734   2.400   3.263
18868WAT      O56845   5.267   5.805   2.926
18868WAT     H156846   5.316   5.881   2.883
18868WAT     H256847   5.313   5.719   2.903
18869WAT      O56848   7.248   4.114   6.153
18869WAT     H156849   7.292   4.118   6.243
18869WAT     H256850   7.283   4.189   6.096
18870WAT      O56851   9.398   8.743   7.309
18870WAT     H156852   9.373   8.780   7.220
18870WAT     H256853   9.425   8.647   7.299
18871WAT      O56854   2.009   5.488   6.158
18871WAT     H156855   2.009   5.516   6.254
18871WAT     H256856   2.102   5.469   6.129
18872WAT      O56857   2.357   3.166   8.207
18872WAT     H156858   2.454   3.167   8.184
18872WAT     H256859   2.311   3.241   8.159
18873WAT      O56860   0.830   0.694   2.790
18873WAT     H156861   0.773   0.612   2.798
18873WAT     H256862   0.817   0.752   2.870
18874WAT      O56863   1.101   4.270   9.733
18874WAT     H156864   1.126   4.174   9.744
18874WAT     H256865   1.020   4.277   9.674
18875WAT      O56866   3.048   5.711   5.232
18875WAT     H156867   2.966   5.766   5.215
18875WAT     H256868   3.127   5.756   5.190
18876WAT      O56869   6.288   1.130   6.379
18876WAT     H156870   6.244   1.170   6.299
18876WAT     H256871   6.385   1.152   6.378
18877WAT      O56872   1.161   8.194   7.962
18877WAT     H156873   1.087   8.145   8.007
18877WAT     H256874   1.212   8.246   8.030
18878WAT      O56875   7.195   9.579   6.640
18878WAT     H156876   7.185   9.638   6.721
18878WAT     H256877   7.216   9.635   6.560
18879WAT      O56878   8.214   2.666   2.022
18879WAT     H156879   8.123   2.629   2.009
18879WAT     H256880   8.242   2.718   1.941
18880WAT      O56881   4.760   8.261   2.618
18880WAT     H156882   4.756   8.209   2.704
18880WAT     H256883   4.801   8.205   2.547
18881WAT      O56884   8.345   2.048   7.525
18881WAT     H156885   8.299   1.972   7.479
18881WAT     H256886   8.406   2.095   7.461
18882WAT      O56887   4.471   4.020   2.223
18882WAT     H156888   4.432   3.938   2.266
18882WAT     H256889   4.398   4.072   2.179
18883WAT      O56890   8.900   8.166   3.423
18883WAT     H156891   8.842   8.090   3.449
18883WAT     H256892   8.912   8.167   3.324
18884WAT      O56893   1.372   5.037   7.355
18884WAT     H156894   1.437   5.082   7.416
18884WAT     H256895   1.304   4.987   7.411
18885WAT      O56896   9.853   6.060   4.120
18885WAT     H156897   9.916   6.075   4.196
18885WAT     H256898   9.772   6.012   4.153
18886WAT      O56899   0.183   2.825   0.382
18886WAT     H156900   0.089   2.827   0.348
18886WAT     H256901   0.198   2.739   0.431
18887WAT      O56902   2.871   4.377   7.143
18887WAT     H156903   2.847   4.463   7.187
18887WAT     H256904   2.936   4.395   7.068
18888WAT      O56905   8.195   9.245   1.572
18888WAT     H156906   8.295   9.251   1.567
18888WAT     H256907   8.168   9.149   1.580
18889WAT      O56908   9.044   3.883   0.433
18889WAT     H156909   9.098   3.967   0.433
18889WAT     H256910   8.997   3.874   0.345
18890WAT      O56911   7.957   5.353   6.538
18890WAT     H156912   8.001   5.377   6.452
18890WAT     H256913   8.022   5.360   6.613
18891WAT      O56914   6.667   2.895   2.079
18891WAT     H156915   6.599   2.827   2.053
18891WAT     H256916   6.747   2.849   2.118
18892WAT      O56917   5.458   7.831   6.127
18892WAT     H156918   5.486   7.750   6.074
18892WAT     H256919   5.485   7.819   6.223
18893WAT      O56920   8.335   8.025   7.164
18893WAT     H156921   8.276   7.948   7.139
18893WAT     H256922   8.280   8.107   7.177
18894WAT      O56923   9.049   8.763   4.043
18894WAT     H156924   9.073   8.697   3.973
18894WAT     H256925   9.029   8.716   4.129
18895WAT      O56926   9.246   3.957   5.822
18895WAT     H156927   9.262   3.871   5.772
18895WAT     H256928   9.217   4.027   5.758
18896WAT      O56929   9.304   6.134   1.681
18896WAT     H156930   9.400   6.120   1.702
18896WAT     H256931   9.285   6.232   1.674
18897WAT      O56932   6.161   2.801   8.185
18897WAT     H156933   6.140   2.764   8.094
18897WAT     H256934   6.217   2.736   8.235
18898WAT      O56935   4.320   1.649   7.016
18898WAT     H156936   4.329   1.552   6.993
18898WAT     H256937   4.382   1.670   7.092
18899WAT      O56938   5.757   6.881   7.984
18899WAT     H156939   5.680   6.944   7.974
18899WAT     H256940   5.795   6.889   8.076
18900WAT      O56941   1.438   1.017   7.027
18900WAT     H156942   1.394   1.084   6.968
18900WAT     H256943   1.421   0.925   6.992
18901WAT      O56944   4.254   6.614   3.149
18901WAT     H156945   4.310   6.695   3.166
18901WAT     H256946   4.192   6.631   3.073
18902WAT      O56947   9.361   4.730   5.511
18902WAT     H156948   9.334   4.743   5.606
18902WAT     H256949   9.452   4.690   5.507
18903WAT      O56950   1.855   4.332   1.958
18903WAT     H156951   1.871   4.266   1.884
18903WAT     H256952   1.769   4.380   1.941
18904WAT      O56953   6.958   9.550   9.308
18904WAT     H156954   7.031   9.518   9.247
18904WAT     H256955   6.999   9.599   9.385
18905WAT      O56956   5.379   9.674   1.000
18905WAT     H156957   5.425   9.602   0.947
18905WAT     H256958   5.393   9.762   0.955
18906WAT      O56959   1.798   8.448   7.046
18906WAT     H156960   1.741   8.393   6.985
18906WAT     H256961   1.862   8.388   7.095
18907WAT      O56962   6.590   7.769   7.888
18907WAT     H156963   6.667   7.728   7.839
18907WAT     H256964   6.528   7.697   7.918
18908WAT      O56965   3.672   0.332   7.553
18908WAT     H156966   3.597   0.333   7.619
18908WAT     H256967   3.637   0.359   7.463
18909WAT      O56968   8.874   6.507   7.900
18909WAT     H156969   8.938   6.499   7.977
18909WAT     H256970   8.790   6.550   7.931
18910WAT      O56971   6.876   3.466   0.169
18910WAT     H156972   6.796   3.421   0.131
18910WAT     H256973   6.864   3.478   0.268
18911WAT      O56974   0.211   2.972   9.667
18911WAT     H156975   0.185   2.979   9.571
18911WAT     H256976   0.307   2.996   9.678
18912WAT      O56977   0.534   8.505   2.144
18912WAT     H156978   0.604   8.498   2.073
18912WAT     H256979   0.565   8.567   2.216
18913WAT      O56980   3.735   4.535   2.677
18913WAT     H156981   3.758   4.584   2.761
18913WAT     H256982   3.813   4.480   2.647
18914WAT      O56983   0.734   9.307   5.105
18914WAT     H156984   0.762   9.324   5.010
18914WAT     H256985   0.637   9.283   5.107
18915WAT      O56986   8.461   7.520   3.857
18915WAT     H156987   8.368   7.538   3.826
18915WAT     H256988   8.477   7.567   3.944
18916WAT      O56989   7.769   7.809   8.273
18916WAT     H156990   7.810   7.733   8.222
18916WAT     H256991   7.734   7.877   8.209
18917WAT      O56992   0.496   4.349   3.630
18917WAT     H156993   0.511   4.359   3.531
18917WAT     H256994   0.437   4.270   3.647
18918WAT      O56995   2.586   4.589   1.021
18918WAT     H156996   2.611   4.535   0.941
18918WAT     H256997   2.631   4.678   1.017
18919WAT      O56998   0.660   9.813   2.383
18919WAT     H156999   0.562   9.825   2.365
18919WAT     H257000   0.710   9.819   2.297
18920WAT      O57001   8.759   1.023   4.054
18920WAT     H157002   8.749   1.023   4.154
18920WAT     H257003   8.668   1.025   4.011
18921WAT      O57004   0.154   6.113   4.323
18921WAT     H157005   0.150   6.113   4.422
18921WAT     H257006   0.244   6.082   4.293
18922WAT      O57007   5.525   0.969   1.687
18922WAT     H157008   5.467   1.050   1.686
18922WAT     H257009   5.548   0.946   1.782
18923WAT      O57010   8.846   0.018   5.965
18923WAT     H157011   8.794  -0.067   5.956
18923WAT     H257012   8.859   0.059   5.874
18924WAT      O57013   7.957   9.511   6.578
18924WAT     H157014   8.051   9.516   6.611
18924WAT     H257015   7.934   9.596   6.530
18925WAT      O57016   6.588   6.949   0.748
18925WAT     H157017   6.590   7.035   0.698
18925WAT     H257018   6.493   6.919   0.758
18926WAT      O57019   1.847   2.299   4.576
18926WAT     H157020   1.772   2.276   4.514
18926WAT     H257021   1.925   2.240   4.556
18927WAT      O57022   0.987   0.826   6.527
18927WAT     H157023   0.950   0.873   6.447
18927WAT     H257024   0.920   0.759   6.560
18928WAT      O57025   1.536   0.614   8.891
18928WAT     H157026   1.462   0.676   8.867
18928WAT     H257027   1.552   0.550   8.815
18929WAT      O57028   6.899   3.520   9.370
18929WAT     H157029   6.829   3.544   9.438
18929WAT     H257030   6.874   3.433   9.326
18930WAT      O57031   8.105   6.545   1.320
18930WAT     H157032   8.163   6.551   1.402
18930WAT     H257033   8.066   6.635   1.301
18931WAT      O57034   6.267   2.358   3.887
18931WAT     H157035   6.200   2.353   3.813
18931WAT     H257036   6.324   2.440   3.876
18932WAT      O57037   9.848   9.058   2.706
18932WAT     H157038   9.787   9.061   2.626
18932WAT     H257039   9.932   9.108   2.685
18933WAT      O57040   3.157   8.043   2.786
18933WAT     H157041   3.135   8.141   2.782
18933WAT     H257042   3.252   8.029   2.760
18934WAT      O57043   1.972   3.990   3.152
18934WAT     H157044   2.002   3.978   3.058
18934WAT     H257045   2.052   4.000   3.211
18935WAT      O57046   1.766   7.418   6.647
18935WAT     H157047   1.838   7.484   6.627
18935WAT     H257048   1.677   7.464   6.639
18936WAT      O57049   1.014   5.467   8.651
18936WAT     H157050   0.959   5.547   8.674
18936WAT     H257051   0.968   5.413   8.581
18937WAT      O57052   8.783   7.303   9.391
18937WAT     H157053   8.703   7.296   9.332
18937WAT     H257054   8.810   7.211   9.422
18938WAT      O57055   1.539   6.377   5.704
18938WAT     H157056   1.572   6.291   5.664
18938WAT     H257057   1.588   6.395   5.788
18939WAT      O57058   2.197   4.511   1.410
18939WAT     H157059   2.251   4.591   1.383
18939WAT     H257060   2.103   4.539   1.426
18940WAT      O57061   7.474   9.068   8.430
18940WAT     H157062   7.388   9.021   8.410
18940WAT     H257063   7.548   9.001   8.436
18941WAT      O57064   5.214   4.471   8.452
18941WAT     H157065   5.205   4.567   8.476
18941WAT     H257066   5.158   4.451   8.371
18942WAT      O57067   3.450   4.079   5.572
18942WAT     H157068   3.422   4.080   5.668
18942WAT     H257069   3.535   4.028   5.563
18943WAT      O57070   8.532   2.631   7.691
18943WAT     H157071   8.471   2.552   7.706
18943WAT     H257072   8.478   2.709   7.659
18944WAT      O57073   3.254   0.524   7.702
18944WAT     H157074   3.233   0.618   7.728
18944WAT     H257075   3.314   0.523   7.622
18945WAT      O57076   6.592   0.218   3.955
18945WAT     H157077   6.611   0.218   4.053
18945WAT     H257078   6.621   0.131   3.915
18946WAT      O57079   3.514   9.185   6.188
18946WAT     H157080   3.566   9.147   6.264
18946WAT     H257081   3.493   9.281   6.206
18947WAT      O57082   1.372   9.345   1.111
18947WAT     H157083   1.306   9.276   1.082
18947WAT     H257084   1.396   9.330   1.207
18948WAT      O57085   2.972   4.487   4.909
18948WAT     H157086   2.979   4.494   5.009
18948WAT     H257087   3.034   4.552   4.867
18949WAT      O57088   9.267   2.789   3.312
18949WAT     H157089   9.337   2.739   3.363
18949WAT     H257090   9.293   2.795   3.216
18950WAT      O57091   2.413   0.372   6.682
18950WAT     H157092   2.492   0.338   6.733
18950WAT     H257093   2.385   0.460   6.720
18951WAT      O57094   4.233   4.195   0.904
18951WAT     H157095   4.268   4.108   0.940
18951WAT     H257096   4.147   4.179   0.856
18952WAT      O57097   7.535   1.069   5.404
18952WAT     H157098   7.567   1.055   5.497
18952WAT     H257099   7.439   1.040   5.397
18953WAT      O57100   0.588   8.760   5.653
18953WAT     H157101   0.548   8.690   5.594
18953WAT     H257102   0.575   8.735   5.749
18954WAT      O57103   0.557   3.437   2.156
18954WAT     H157104   0.637   3.423   2.215
18954WAT     H257105   0.534   3.535   2.153
18955WAT      O57106   8.256   4.261   5.928
18955WAT     H157107   8.199   4.192   5.884
18955WAT     H257108   8.286   4.227   6.017
18956WAT      O57109   7.186   8.026   2.539
18956WAT     H157110   7.186   8.098   2.608
18956WAT     H257111   7.160   8.065   2.450
18957WAT      O57112   9.599   1.161   8.781
18957WAT     H157113   9.642   1.172   8.692
18957WAT     H257114   9.577   1.250   8.820
18958WAT      O57115   5.498   9.843   5.912
18958WAT     H157116   5.434   9.767   5.923
18958WAT     H257117   5.453   9.929   5.936
18959WAT      O57118   1.019   1.229   1.332
18959WAT     H157119   1.098   1.197   1.385
18959WAT     H257120   1.046   1.236   1.235
18960WAT      O57121   1.301   2.959   5.826
18960WAT     H157122   1.237   2.919   5.892
18960WAT     H257123   1.393   2.925   5.844
18961WAT      O57124   7.972   3.736   3.018
18961WAT     H157125   7.984   3.811   3.083
18961WAT     H257126   7.900   3.675   3.051
18962WAT      O57127   8.632   3.807   3.748
18962WAT     H157128   8.535   3.791   3.764
18962WAT     H257129   8.653   3.903   3.767
18963WAT      O57130   9.226   8.355   4.188
18963WAT     H157131   9.229   8.326   4.283
18963WAT     H257132   9.236   8.454   4.182
18964WAT      O57133   7.729   0.029   0.040
18964WAT     H157134   7.828   0.012   0.037
18964WAT     H257135   7.696   0.049  -0.052
18965WAT      O57136   2.425   9.761   4.813
18965WAT     H157137   2.445   9.846   4.861
18965WAT     H257138   2.493   9.746   4.741
18966WAT      O57139   7.420   0.488   5.087
18966WAT     H157140   7.329   0.447   5.079
18966WAT     H257141   7.489   0.421   5.060
18967WAT      O57142   9.147   4.787   4.342
18967WAT     H157143   9.053   4.783   4.310
18967WAT     H257144   9.154   4.746   4.433
18968WAT      O57145   1.868   5.783   5.992
18968WAT     H157146   1.838   5.692   6.022
18968WAT     H257147   1.847   5.850   6.064
18969WAT      O57148   6.914   4.493   5.679
18969WAT     H157149   6.945   4.408   5.637
18969WAT     H257150   6.820   4.512   5.651
18970WAT      O57151   2.983   3.709   4.497
18970WAT     H157152   2.951   3.633   4.440
18970WAT     H257153   3.043   3.673   4.569
18971WAT      O57154   9.754   4.346   3.750
18971WAT     H157155   9.795   4.257   3.767
18971WAT     H257156   9.826   4.414   3.735
18972WAT      O57157   1.279   1.931   0.861
18972WAT     H157158   1.207   2.000   0.866
18972WAT     H257159   1.261   1.870   0.784
18973WAT      O57160   9.597   4.092   1.780
18973WAT     H157161   9.611   4.114   1.877
18973WAT     H257162   9.560   4.000   1.771
18974WAT      O57163   1.677   8.051   0.227
18974WAT     H157164   1.613   8.087   0.295
18974WAT     H257165   1.767   8.090   0.241
18975WAT      O57166   2.926   5.836   8.407
18975WAT     H157167   2.854   5.773   8.437
18975WAT     H257168   3.009   5.784   8.385
18976WAT      O57169   6.461   6.523   8.994
18976WAT     H157170   6.461   6.425   9.014
18976WAT     H257171   6.422   6.573   9.071
18977WAT      O57172   9.185   1.839   3.170
18977WAT     H157173   9.234   1.774   3.229
18977WAT     H257174   9.210   1.822   3.074
18978WAT      O57175   0.067   5.732   2.907
18978WAT     H157176   0.104   5.777   2.988
18978WAT     H257177  -0.033   5.741   2.908
18979WAT      O57178   6.603   3.801   5.585
18979WAT     H157179   6.593   3.703   5.564
18979WAT     H257180   6.697   3.818   5.614
18980WAT      O57181   7.814   9.669   7.669
18980WAT     H157182   7.754   9.693   7.746
18980WAT     H257183   7.819   9.569   7.661
18981WAT      O57184   4.745   6.212   7.188
18981WAT     H157185   4.666   6.263   7.220
18981WAT     H257186   4.826   6.271   7.186
18982WAT      O57187   3.984   3.712   3.211
18982WAT     H157188   3.889   3.739   3.195
18982WAT     H257189   4.039   3.734   3.130
18983WAT      O57190   9.266   6.559   1.836
18983WAT     H157191   9.331   6.635   1.841
18983WAT     H257192   9.241   6.530   1.929
18984WAT      O57193   5.585   3.356   8.667
18984WAT     H157194   5.670   3.398   8.698
18984WAT     H257195   5.591   3.337   8.569
18985WAT      O57196   0.958   5.049   4.694
18985WAT     H157197   1.032   5.067   4.629
18985WAT     H257198   0.976   5.099   4.779
18986WAT      O57199   8.068   4.915   0.633
18986WAT     H157200   8.017   4.985   0.583
18986WAT     H257201   8.006   4.862   0.689
18987WAT      O57202   2.046   2.863   2.604
18987WAT     H157203   2.089   2.774   2.588
18987WAT     H257204   1.950   2.859   2.577
18988WAT      O57205   0.733   9.247   0.740
18988WAT     H157206   0.660   9.315   0.745
18988WAT     H257207   0.778   9.252   0.650
18989WAT      O57208   3.124   6.550   6.862
18989WAT     H157209   3.084   6.642   6.862
18989WAT     H257210   3.179   6.538   6.780
18990WAT      O57211   3.028   3.839   3.903
18990WAT     H157212   2.944   3.894   3.898
18990WAT     H257213   3.086   3.875   3.976
18991WAT      O57214   1.076   2.676   8.107
18991WAT     H157215   1.138   2.717   8.040
18991WAT     H257216   1.090   2.577   8.109
18992WAT      O57217   8.282   1.332   6.955
18992WAT     H157218   8.334   1.302   7.035
18992WAT     H257219   8.223   1.408   6.980
18993WAT      O57220   2.290   5.872   0.978
18993WAT     H157221   2.334   5.871   1.068
18993WAT     H257222   2.208   5.929   0.981
18994WAT      O57223   9.649   2.982   7.585
18994WAT     H157224   9.655   3.052   7.515
18994WAT     H257225   9.718   2.998   7.655
18995WAT      O57226   9.217   5.911   1.916
18995WAT     H157227   9.300   5.899   1.969
18995WAT     H257228   9.223   5.996   1.863
18996WAT      O57229   0.934   4.272   2.066
18996WAT     H157230   0.958   4.368   2.078
18996WAT     H257231   0.834   4.263   2.062
18997WAT      O57232   0.820   8.910   3.939
18997WAT     H157233   0.798   8.985   3.876
18997WAT     H257234   0.735   8.868   3.972
18998WAT      O57235   0.990   0.653   1.568
18998WAT     H157236   0.978   0.611   1.658
18998WAT     H257237   1.086   0.675   1.553
18999WAT      O57238   3.575   3.691   9.780
18999WAT     H157239   3.635   3.620   9.743
18999WAT     H257240   3.627   3.747   9.845
19000WAT      O57241   0.861   6.063   4.920
19000WAT     H157242   0.853   6.000   4.842
19000WAT     H257243   0.913   6.143   4.892
19001WAT      O57244   3.879   0.965   1.703
19001WAT     H157245   3.827   0.882   1.681
19001WAT     H257246   3.844   1.041   1.648
19002WAT      O57247   6.845   2.737   0.032
19002WAT     H157248   6.913   2.779  -0.028
19002WAT     H257249   6.883   2.653   0.071
19003WAT      O57250   7.341   6.972   7.923
19003WAT     H157251   7.434   6.984   7.960
19003WAT     H257252   7.315   7.055   7.874
19004WAT      O57253   8.883   8.746   5.463
19004WAT     H157254   8.978   8.750   5.495
19004WAT     H257255   8.878   8.778   5.369
19005WAT      O57256   3.608   7.298   6.029
19005WAT     H157257   3.668   7.223   6.058
19005WAT     H257258   3.556   7.332   6.107
19006WAT      O57259   3.590   7.683   8.376
19006WAT     H157260   3.540   7.680   8.289
19006WAT     H257261   3.682   7.717   8.360
19007WAT      O57262   6.600   8.753   9.103
19007WAT     H157263   6.607   8.785   9.009
19007WAT     H257264   6.680   8.782   9.155
19008WAT      O57265   2.395   5.421   4.599
19008WAT     H157266   2.417   5.516   4.622
19008WAT     H257267   2.373   5.371   4.683
19009WAT      O57268   1.788   3.496   7.933
19009WAT     H157269   1.726   3.567   7.966
19009WAT     H257270   1.877   3.536   7.912
19010WAT      O57271   3.411   1.941   8.811
19010WAT     H157272   3.324   1.974   8.774
19010WAT     H257273   3.482   2.010   8.798
19011WAT      O57274   1.841   9.706   5.075
19011WAT     H157275   1.930   9.663   5.091
19011WAT     H257276   1.769   9.638   5.084
19012WAT      O57277   7.141   2.754   9.370
19012WAT     H157278   7.218   2.810   9.402
19012WAT     H257279   7.175   2.680   9.313
19013WAT      O57280   1.312   4.864   7.023
19013WAT     H157281   1.255   4.856   7.105
19013WAT     H257282   1.291   4.950   6.977
19014WAT      O57283   6.409   5.607   1.342
19014WAT     H157284   6.322   5.558   1.329
19014WAT     H257285   6.485   5.545   1.324
19015WAT      O57286   0.781   0.116   4.354
19015WAT     H157287   0.811   0.050   4.285
19015WAT     H257288   0.851   0.126   4.424
19016WAT      O57289   0.708   7.078   0.456
19016WAT     H157290   0.802   7.046   0.468
19016WAT     H257291   0.675   7.055   0.364
19017WAT      O57292   1.166   8.727   1.943
19017WAT     H157293   1.235   8.784   1.987
19017WAT     H257294   1.209   8.672   1.871
19018WAT      O57295   7.204   8.527   6.090
19018WAT     H157296   7.141   8.449   6.087
19018WAT     H257297   7.219   8.561   5.998
19019WAT      O57298   2.219   2.728   9.157
19019WAT     H157299   2.144   2.695   9.214
19019WAT     H257300   2.259   2.810   9.197
19020WAT      O57301   6.136   1.210   0.913
19020WAT     H157302   6.096   1.195   1.003
19020WAT     H257303   6.236   1.202   0.919
19021WAT      O57304   5.218   2.224   7.180
19021WAT     H157305   5.126   2.223   7.141
19021WAT     H257306   5.282   2.184   7.115
19022WAT      O57307   4.342   4.957   8.444
19022WAT     H157308   4.318   4.942   8.348
19022WAT     H257309   4.267   4.926   8.503
19023WAT      O57310   3.505   2.754   6.341
19023WAT     H157311   3.527   2.834   6.396
19023WAT     H257312   3.585   2.727   6.287
19024WAT      O57313   2.325   1.363   9.128
19024WAT     H157314   2.239   1.314   9.138
19024WAT     H257315   2.397   1.315   9.177
19025WAT      O57316   6.744   7.645   5.653
19025WAT     H157317   6.721   7.679   5.562
19025WAT     H257318   6.697   7.558   5.669
19026WAT      O57319   1.884   5.079   1.340
19026WAT     H157320   1.842   5.166   1.317
19026WAT     H257321   1.818   5.023   1.392
19027WAT      O57322   0.361   1.292   9.023
19027WAT     H157323   0.283   1.354   9.030
19027WAT     H257324   0.334   1.210   8.971
19028WAT      O57325   6.642   3.317   8.093
19028WAT     H157326   6.654   3.220   8.116
19028WAT     H257327   6.635   3.370   8.177
19029WAT      O57328   9.846   6.672   6.365
19029WAT     H157329   9.787   6.654   6.286
19029WAT     H257330   9.923   6.607   6.364
19030WAT      O57331   3.333   5.600   9.159
19030WAT     H157332   3.256   5.661   9.139
19030WAT     H257333   3.351   5.601   9.258
19031WAT      O57334   5.739   2.258   5.520
19031WAT     H157335   5.763   2.229   5.427
19031WAT     H257336   5.799   2.334   5.548
19032WAT      O57337   1.527   5.193   8.912
19032WAT     H157338   1.550   5.228   8.821
19032WAT     H257339   1.610   5.186   8.967
19033WAT      O57340   6.459   6.155   3.306
19033WAT     H157341   6.372   6.204   3.310
19033WAT     H257342   6.529   6.214   3.266
19034WAT      O57343   1.117   2.996   4.024
19034WAT     H157344   1.191   2.991   3.958
19034WAT     H257345   1.138   2.936   4.102
19035WAT      O57346   1.411   2.274   9.091
19035WAT     H157347   1.350   2.300   9.016
19035WAT     H257348   1.501   2.314   9.075
19036WAT      O57349   3.166   6.869   8.885
19036WAT     H157350   3.225   6.788   8.881
19036WAT     H257351   3.072   6.841   8.905
19037WAT      O57352   1.463   0.388   5.323
19037WAT     H157353   1.503   0.331   5.394
19037WAT     H257354   1.381   0.433   5.359
19038WAT      O57355   1.529   1.919   6.553
19038WAT     H157356   1.613   1.961   6.518
19038WAT     H257357   1.463   1.990   6.577
19039WAT      O57358   6.779   5.111   3.456
19039WAT     H157359   6.746   5.040   3.518
19039WAT     H257360   6.788   5.074   3.363
19040WAT      O57361   7.330   9.723   4.167
19040WAT     H157362   7.415   9.711   4.115
19040WAT     H257363   7.305   9.636   4.210
19041WAT      O57364   6.205   0.239   0.986
19041WAT     H157365   6.261   0.157   0.971
19041WAT     H257366   6.248   0.296   1.055
19042WAT      O57367   4.523   9.092   0.636
19042WAT     H157368   4.506   9.108   0.733
19042WAT     H257369   4.601   9.029   0.626
19043WAT      O57370   7.999   7.465   9.003
19043WAT     H157371   8.058   7.544   9.020
19043WAT     H257372   7.905   7.497   8.986
19044WAT      O57373   0.794   1.056   4.985
19044WAT     H157374   0.791   1.097   4.894
19044WAT     H257375   0.843   0.969   4.981
19045WAT      O57376   4.044   9.725   5.274
19045WAT     H157377   4.111   9.656   5.244
19045WAT     H257378   4.051   9.805   5.215
19046WAT      O57379   5.274   3.365   3.240
19046WAT     H157380   5.358   3.413   3.268
19046WAT     H257381   5.228   3.329   3.322
19047WAT      O57382   5.815   2.463   9.761
19047WAT     H157383   5.875   2.522   9.816
19047WAT     H257384   5.869   2.391   9.718
19048WAT      O57385   7.493   2.852   5.975
19048WAT     H157386   7.525   2.775   6.031
19048WAT     H257387   7.528   2.938   6.014
19049WAT      O57388   8.990   4.426   2.922
19049WAT     H157389   9.007   4.520   2.894
19049WAT     H257390   9.058   4.399   2.991
19050WAT      O57391   8.891   0.326   1.462
19050WAT     H157392   8.894   0.240   1.513
19050WAT     H257393   8.796   0.346   1.437
19051WAT      O57394   2.382   2.268   6.706
19051WAT     H157395   2.291   2.265   6.664
19051WAT     H257396   2.379   2.218   6.793
19052WAT      O57397   7.081   9.583   0.906
19052WAT     H157398   7.163   9.526   0.898
19052WAT     H257399   7.004   9.537   0.863
19053WAT      O57400   1.808   7.226   0.018
19053WAT     H157401   1.871   7.156   0.052
19053WAT     H257402   1.754   7.262   0.094
19054WAT      O57403   7.570   1.159   9.868
19054WAT     H157404   7.558   1.110   9.954
19054WAT     H257405   7.486   1.208   9.844
19055WAT      O57406   4.989   3.234   9.544
19055WAT     H157407   4.939   3.320   9.557
19055WAT     H257408   5.046   3.241   9.463
19056WAT      O57409   3.998   1.315   1.370
19056WAT     H157410   3.963   1.409   1.381
19056WAT     H257411   3.986   1.287   1.275
19057WAT      O57412   0.241   7.447   0.454
19057WAT     H157413   0.276   7.514   0.388
19057WAT     H257414   0.142   7.459   0.464
19058WAT      O57415   8.309   3.960   2.797
19058WAT     H157416   8.361   3.941   2.714
19058WAT     H257417   8.245   3.886   2.815
19059WAT      O57418   4.660   3.633   6.530
19059WAT     H157419   4.594   3.693   6.486
19059WAT     H257420   4.702   3.573   6.462
19060WAT      O57421   5.729   3.756   8.360
19060WAT     H157422   5.812   3.763   8.306
19060WAT     H257423   5.685   3.668   8.343
19061WAT      O57424   8.281   5.219   7.094
19061WAT     H157425   8.182   5.223   7.106
19061WAT     H257426   8.320   5.310   7.100
19062WAT      O57427   8.061   0.615   6.710
19062WAT     H157428   8.008   0.685   6.663
19062WAT     H257429   8.061   0.632   6.808
19063WAT      O57430   7.118   1.295   2.088
19063WAT     H157431   7.076   1.385   2.077
19063WAT     H257432   7.159   1.288   2.179
19064WAT      O57433   0.262   0.763   9.097
19064WAT     H157434   0.209   0.809   9.025
19064WAT     H257435   0.320   0.692   9.056
19065WAT      O57436   1.579   1.650   9.229
19065WAT     H157437   1.644   1.583   9.193
19065WAT     H257438   1.520   1.606   9.297
19066WAT      O57439   2.802   2.028   5.932
19066WAT     H157440   2.717   2.006   5.884
19066WAT     H257441   2.796   2.000   6.027
19067WAT      O57442   4.097   0.118   3.559
19067WAT     H157443   4.009   0.095   3.601
19067WAT     H257444   4.081   0.164   3.471
19068WAT      O57445   6.832   0.751   1.328
19068WAT     H157446   6.796   0.831   1.281
19068WAT     H257447   6.918   0.723   1.286
19069WAT      O57448   5.573   5.850   8.328
19069WAT     H157449   5.513   5.770   8.319
19069WAT     H257450   5.604   5.878   8.238
19070WAT      O57451   0.115   4.422   6.301
19070WAT     H157452   0.169   4.427   6.217
19070WAT     H257453   0.150   4.489   6.367
19071WAT      O57454   0.382   9.676   4.586
19071WAT     H157455   0.425   9.716   4.505
19071WAT     H257456   0.289   9.714   4.596
19072WAT      O57457   4.814   5.868   3.394
19072WAT     H157458   4.901   5.823   3.412
19072WAT     H257459   4.776   5.833   3.308
19073WAT      O57460   4.253   6.706   1.037
19073WAT     H157461   4.183   6.746   0.978
19073WAT     H257462   4.339   6.698   0.987
19074WAT      O57463   7.516   5.195   6.780
19074WAT     H157464   7.477   5.280   6.747
19074WAT     H257465   7.443   5.136   6.814
19075WAT      O57466   5.252   0.540   4.227
19075WAT     H157467   5.290   0.448   4.235
19075WAT     H257468   5.326   0.606   4.222
19076WAT      O57469   6.561   7.402   3.130
19076WAT     H157470   6.660   7.385   3.128
19076WAT     H257471   6.514   7.333   3.075
19077WAT      O57472   0.530   4.791   9.603
19077WAT     H157473   0.469   4.790   9.682
19077WAT     H257474   0.619   4.752   9.630
19078WAT      O57475   7.131   2.252   9.239
19078WAT     H157476   7.032   2.242   9.224
19078WAT     H257477   7.180   2.206   9.166
19079WAT      O57478   7.400   4.652   1.387
19079WAT     H157479   7.462   4.724   1.355
19079WAT     H257480   7.356   4.609   1.309
19080WAT      O57481   0.111   1.245   8.214
19080WAT     H157482   0.110   1.267   8.312
19080WAT     H257483   0.027   1.279   8.172
19081WAT      O57484   7.672   3.647   6.702
19081WAT     H157485   7.580   3.684   6.708
19081WAT     H257486   7.737   3.720   6.682
19082WAT      O57487   2.969   7.981   0.581
19082WAT     H157488   2.971   8.068   0.630
19082WAT     H257489   2.899   7.984   0.510
19083WAT      O57490   3.515   8.999   7.868
19083WAT     H157491   3.481   8.993   7.962
19083WAT     H257492   3.509   9.093   7.837
19084WAT      O57493   1.357   9.820   1.928
19084WAT     H157494   1.347   9.878   1.847
19084WAT     H257495   1.348   9.724   1.902
19085WAT      O57496   6.302   9.326   6.199
19085WAT     H157497   6.393   9.312   6.239
19085WAT     H257498   6.241   9.253   6.230
19086WAT      O57499   4.428   3.412   2.538
19086WAT     H157500   4.497   3.441   2.604
19086WAT     H257501   4.430   3.473   2.459
19087WAT      O57502   9.258   6.157   6.361
19087WAT     H157503   9.263   6.235   6.298
19087WAT     H257504   9.188   6.093   6.328
19088WAT      O57505   1.813   2.969   2.210
19088WAT     H157506   1.715   2.973   2.228
19088WAT     H257507   1.830   2.977   2.112
19089WAT      O57508   3.973   5.226   1.842
19089WAT     H157509   4.052   5.198   1.898
19089WAT     H257510   3.890   5.187   1.880
19090WAT      O57511   0.851   6.504   4.738
19090WAT     H157512   0.892   6.526   4.826
19090WAT     H257513   0.919   6.520   4.665
19091WAT      O57514   2.929   5.247   6.348
19091WAT     H157515   2.994   5.261   6.423
19091WAT     H257516   2.913   5.334   6.302
19092WAT      O57517   5.699   6.705   1.175
19092WAT     H157518   5.724   6.693   1.271
19092WAT     H257519   5.747   6.784   1.137
19093WAT      O57520   9.476   2.210   6.240
19093WAT     H157521   9.515   2.119   6.250
19093WAT     H257522   9.542   2.271   6.197
19094WAT      O57523   3.132   3.391   0.340
19094WAT     H157524   3.191   3.401   0.421
19094WAT     H257525   3.162   3.456   0.270
19095WAT      O57526   3.702   5.567   8.105
19095WAT     H157527   3.766   5.644   8.102
19095WAT     H257528   3.747   5.485   8.070
19096WAT      O57529   6.961   5.138   3.671
19096WAT     H157530   6.896   5.110   3.741
19096WAT     H257531   6.911   5.166   3.589
19097WAT      O57532   5.016   1.153   8.912
19097WAT     H157533   5.049   1.091   8.842
19097WAT     H257534   4.993   1.102   8.995
19098WAT      O57535   6.921   9.604   2.642
19098WAT     H157536   6.824   9.582   2.649
19098WAT     H257537   6.954   9.580   2.551
19099WAT      O57538   7.530   2.760   3.141
19099WAT     H157539   7.620   2.773   3.100
19099WAT     H257540   7.461   2.759   3.069
19100WAT      O57541   0.864   3.415   1.548
19100WAT     H157542   0.777   3.445   1.510
19100WAT     H257543   0.921   3.376   1.476
19101WAT      O57544   8.669   5.489   0.220
19101WAT     H157545   8.599   5.534   0.274
19101WAT     H257546   8.656   5.510   0.123
19102WAT      O57547   1.682   6.430   1.143
19102WAT     H157548   1.663   6.419   1.045
19102WAT     H257549   1.774   6.466   1.156
19103WAT      O57550   2.473   8.269   2.905
19103WAT     H157551   2.460   8.179   2.864
19103WAT     H257552   2.480   8.259   3.004
19104WAT      O57553   6.771   9.073   7.630
19104WAT     H157554   6.734   8.998   7.684
19104WAT     H257555   6.696   9.128   7.593
19105WAT      O57556   7.614   1.628   1.556
19105WAT     H157557   7.568   1.607   1.642
19105WAT     H257558   7.580   1.716   1.521
19106WAT      O57559   7.479   3.004   4.756
19106WAT     H157560   7.510   3.098   4.736
19106WAT     H257561   7.416   3.006   4.833
19107WAT      O57562   5.985   9.191   6.671
19107WAT     H157563   6.014   9.273   6.621
19107WAT     H257564   5.922   9.217   6.744
19108WAT      O57565   8.998   4.506   4.681
19108WAT     H157566   8.977   4.603   4.664
19108WAT     H257567   8.968   4.452   4.602
19109WAT      O57568   8.171   2.453   3.651
19109WAT     H157569   8.186   2.463   3.552
19109WAT     H257570   8.152   2.543   3.691
19110WAT      O57571   0.839   8.935   4.555
19110WAT     H157572   0.805   9.028   4.561
19110WAT     H257573   0.844   8.895   4.647
19111WAT      O57574   1.700   7.167   5.480
19111WAT     H157575   1.709   7.130   5.572
19111WAT     H257576   1.721   7.265   5.480
19112WAT      O57577   7.341   9.701   5.762
19112WAT     H157578   7.398   9.663   5.834
19112WAT     H257579   7.320   9.796   5.782
19113WAT      O57580   7.853   3.573   0.056
19113WAT     H157581   7.943   3.613   0.039
19113WAT     H257582   7.821   3.528  -0.028
19114WAT      O57583   6.203   9.364   3.051
19114WAT     H157584   6.108   9.343   3.072
19114WAT     H257585   6.258   9.281   3.059
19115WAT      O57586   5.727   3.532   7.394
19115WAT     H157587   5.705   3.449   7.344
19115WAT     H257588   5.754   3.603   7.329
19116WAT      O57589   5.811   2.257   1.597
19116WAT     H157590   5.796   2.354   1.618
19116WAT     H257591   5.771   2.235   1.508
19117WAT      O57592   5.688   2.516   7.745
19117WAT     H157593   5.658   2.488   7.837
19117WAT     H257594   5.612   2.508   7.681
19118WAT      O57595   6.809   5.721   3.787
19118WAT     H157596   6.784   5.730   3.883
19118WAT     H257597   6.732   5.748   3.729
19119WAT      O57598   8.114   0.706   3.609
19119WAT     H157599   8.113   0.657   3.696
19119WAT     H257600   8.063   0.792   3.617
19120WAT      O57601   3.603   8.659   8.683
19120WAT     H157602   3.599   8.650   8.783
19120WAT     H257603   3.695   8.639   8.651
19121WAT      O57604   3.816   0.133   8.757
19121WAT     H157605   3.776   0.054   8.712
19121WAT     H257606   3.915   0.121   8.765
19122WAT      O57607   1.336   2.311   6.407
19122WAT     H157608   1.369   2.357   6.490
19122WAT     H257609   1.413   2.296   6.345
19123WAT      O57610   7.581   6.131   3.804
19123WAT     H157611   7.555   6.039   3.773
19123WAT     H257612   7.537   6.150   3.891
19124WAT      O57613   1.145   8.954   7.859
19124WAT     H157614   1.177   9.015   7.787
19124WAT     H257615   1.063   8.992   7.901
19125WAT      O57616   8.423   7.960   5.958
19125WAT     H157617   8.431   7.929   5.863
19125WAT     H257618   8.353   8.031   5.965
19126WAT      O57619   3.520   2.584   9.281
19126WAT     H157620   3.469   2.553   9.361
19126WAT     H257621   3.492   2.531   9.201
19127WAT      O57622   3.654   5.263   8.743
19127WAT     H157623   3.644   5.353   8.785
19127WAT     H257624   3.600   5.259   8.659
19128WAT      O57625   1.892   6.287   3.489
19128WAT     H157626   1.901   6.373   3.539
19128WAT     H257627   1.805   6.285   3.440
19129WAT      O57628   7.612   0.372   3.461
19129WAT     H157629   7.610   0.300   3.392
19129WAT     H257630   7.519   0.408   3.473
19130WAT      O57631   0.562   7.246   3.297
19130WAT     H157632   0.518   7.177   3.239
19130WAT     H257633   0.622   7.201   3.363
19131WAT      O57634   9.799   9.682   3.139
19131WAT     H157635   9.870   9.733   3.091
19131WAT     H257636   9.744   9.745   3.193
19132WAT      O57637   8.860   1.038   2.880
19132WAT     H157638   8.911   1.044   2.966
19132WAT     H257639   8.787   1.106   2.879
19133WAT      O57640   6.740   8.856   5.508
19133WAT     H157641   6.656   8.861   5.454
19133WAT     H257642   6.800   8.785   5.472
19134WAT      O57643   0.572   1.477   9.140
19134WAT     H157644   0.514   1.436   9.070
19134WAT     H257645   0.562   1.425   9.225
19135WAT      O57646   6.858   2.723   2.190
19135WAT     H157647   6.857   2.642   2.249
19135WAT     H257648   6.901   2.799   2.239
19136WAT      O57649   2.423   7.474   5.807
19136WAT     H157650   2.504   7.517   5.849
19136WAT     H257651   2.410   7.383   5.846
19137WAT      O57652   9.303   3.576   7.062
19137WAT     H157653   9.388   3.555   7.110
19137WAT     H257654   9.315   3.657   7.005
19138WAT      O57655   7.976   4.867   3.016
19138WAT     H157656   7.969   4.952   2.963
19138WAT     H257657   8.069   4.831   3.009
19139WAT      O57658   1.542   4.039   1.161
19139WAT     H157659   1.602   4.074   1.088
19139WAT     H257660   1.481   4.112   1.192
19140WAT      O57661   2.286   1.146   2.526
19140WAT     H157662   2.212   1.172   2.464
19140WAT     H257663   2.289   1.211   2.602
19141WAT      O57664   2.520   4.529   1.741
19141WAT     H157665   2.542   4.501   1.834
19141WAT     H257666   2.488   4.624   1.741
19142WAT      O57667   3.994   3.997   2.534
19142WAT     H157668   3.949   3.910   2.553
19142WAT     H257669   3.929   4.072   2.544
19143WAT      O57670   9.817   7.602   4.175
19143WAT     H157671   9.831   7.682   4.234
19143WAT     H257672   9.858   7.620   4.086
19144WAT      O57673   5.672   6.384   1.149
19144WAT     H157674   5.686   6.292   1.113
19144WAT     H257675   5.694   6.385   1.247
19145WAT      O57676   0.399   5.678   4.425
19145WAT     H157677   0.459   5.752   4.395
19145WAT     H257678   0.304   5.707   4.418
19146WAT      O57679   3.471   0.379   1.689
19146WAT     H157680   3.374   0.403   1.699
19146WAT     H257681   3.521   0.457   1.652
19147WAT      O57682   6.918   2.556   6.628
19147WAT     H157683   6.931   2.624   6.556
19147WAT     H257684   6.829   2.572   6.672
19148WAT      O57685   5.203   0.987   5.795
19148WAT     H157686   5.178   0.951   5.705
19148WAT     H257687   5.123   1.029   5.838
19149WAT      O57688   4.349   4.896   2.185
19149WAT     H157689   4.404   4.827   2.138
19149WAT     H257690   4.404   4.978   2.199
19150WAT      O57691   8.930   0.420   6.267
19150WAT     H157692   8.904   0.339   6.215
19150WAT     H257693   8.849   0.461   6.307
19151WAT      O57694   1.912   2.101   6.062
19151WAT     H157695   1.924   2.158   5.981
19151WAT     H257696   1.856   2.149   6.129
19152WAT      O57697   0.952   5.329   8.184
19152WAT     H157698   0.946   5.247   8.127
19152WAT     H257699   0.926   5.409   8.130
19153WAT      O57700   6.628   6.991   4.152
19153WAT     H157701   6.602   7.028   4.063
19153WAT     H257702   6.649   6.894   4.143
19154WAT      O57703   8.397   9.389   8.696
19154WAT     H157704   8.398   9.407   8.598
19154WAT     H257705   8.437   9.299   8.714
19155WAT      O57706   9.087   9.581   4.350
19155WAT     H157707   9.034   9.653   4.393
19155WAT     H257708   9.184   9.606   4.351
19156WAT      O57709   9.382   3.746   4.907
19156WAT     H157710   9.331   3.808   4.966
19156WAT     H257711   9.324   3.718   4.830
19157WAT      O57712   3.016   0.788   0.053
19157WAT     H157713   3.116   0.791   0.043
19157WAT     H257714   2.990   0.825   0.142
19158WAT      O57715   2.688   9.257   2.948
19158WAT     H157716   2.666   9.335   2.890
19158WAT     H257717   2.779   9.222   2.926
19159WAT      O57718   4.092   1.730   0.780
19159WAT     H157719   4.180   1.742   0.827
19159WAT     H257720   4.108   1.729   0.681
19160WAT      O57721   8.223   1.552   0.543
19160WAT     H157722   8.275   1.629   0.506
19160WAT     H257723   8.284   1.491   0.593
19161WAT      O57724   5.932   3.055   7.846
19161WAT     H157725   5.855   2.994   7.864
19161WAT     H257726   5.981   3.073   7.932
19162WAT      O57727   7.915   0.751   4.692
19162WAT     H157728   7.991   0.737   4.756
19162WAT     H257729   7.924   0.840   4.648
19163WAT      O57730   4.174   1.034   6.621
19163WAT     H157731   4.138   1.102   6.558
19163WAT     H257732   4.227   0.966   6.571
19164WAT      O57733   2.515   2.346   5.416
19164WAT     H157734   2.500   2.433   5.463
19164WAT     H257735   2.560   2.281   5.478
19165WAT      O57736   8.698   5.378   6.385
19165WAT     H157737   8.740   5.364   6.295
19165WAT     H257738   8.711   5.296   6.441
19166WAT      O57739   6.247   1.037   7.217
19166WAT     H157740   6.330   0.981   7.225
19166WAT     H257741   6.191   1.024   7.299
19167WAT      O57742   4.605   0.646   6.174
19167WAT     H157743   4.688   0.663   6.120
19167WAT     H257744   4.560   0.563   6.141
19168WAT      O57745   6.723   7.560   8.479
19168WAT     H157746   6.661   7.481   8.483
19168WAT     H257747   6.815   7.531   8.507
19169WAT      O57748   7.961   3.679   7.550
19169WAT     H157749   7.889   3.633   7.602
19169WAT     H257750   7.924   3.762   7.508
19170WAT      O57751   1.459   1.556   0.171
19170WAT     H157752   1.392   1.518   0.235
19170WAT     H257753   1.503   1.482   0.120
19171WAT      O57754   0.795   6.239   9.234
19171WAT     H157755   0.720   6.293   9.196
19171WAT     H257756   0.758   6.161   9.284
19172WAT      O57757   9.297   2.627   9.019
19172WAT     H157758   9.336   2.562   9.085
19172WAT     H257759   9.361   2.702   9.005
19173WAT      O57760   6.634   8.039   6.976
19173WAT     H157761   6.711   8.071   7.030
19173WAT     H257762   6.663   7.964   6.917
19174WAT      O57763   2.037   6.466   5.780
19174WAT     H157764   1.984   6.491   5.698
19174WAT     H257765   2.079   6.377   5.766
19175WAT      O57766   3.405   4.211   5.308
19175WAT     H157767   3.430   4.308   5.304
19175WAT     H257768   3.458   4.167   5.381
19176WAT      O57769   8.411   5.516   6.787
19176WAT     H157770   8.415   5.606   6.831
19176WAT     H257771   8.456   5.448   6.845
19177WAT      O57772   0.336   8.575   0.581
19177WAT     H157773   0.363   8.564   0.485
19177WAT     H257774   0.413   8.552   0.640
19178WAT      O57775   5.181   3.847   4.851
19178WAT     H157776   5.213   3.876   4.941
19178WAT     H257777   5.241   3.775   4.816
19179WAT      O57778   3.513   1.924   5.034
19179WAT     H157779   3.486   1.829   5.044
19179WAT     H257780   3.571   1.951   5.111
19180WAT      O57781   1.263   2.637   3.710
19180WAT     H157782   1.228   2.660   3.801
19180WAT     H257783   1.214   2.690   3.641
19181WAT      O57784   9.593   6.102   1.687
19181WAT     H157785   9.599   6.134   1.592
19181WAT     H257786   9.613   6.004   1.690
19182WAT      O57787   2.383   0.014   7.752
19182WAT     H157788   2.390  -0.036   7.665
19182WAT     H257789   2.317  -0.033   7.812
19183WAT      O57790   1.588   6.887   7.739
19183WAT     H157791   1.607   6.873   7.836
19183WAT     H257792   1.578   6.985   7.720
19184WAT      O57793   8.289   4.829   6.317
19184WAT     H157794   8.376   4.788   6.344
19184WAT     H257795   8.229   4.835   6.397
19185WAT      O57796   3.321   4.531   7.687
19185WAT     H157797   3.327   4.575   7.598
19185WAT     H257798   3.225   4.518   7.711
19186WAT      O57799   0.458   2.358   5.504
19186WAT     H157800   0.536   2.297   5.515
19186WAT     H257801   0.486   2.441   5.456
19187WAT      O57802   2.569   1.076   5.782
19187WAT     H157803   2.527   1.090   5.871
19187WAT     H257804   2.626   0.994   5.784
19188WAT      O57805   7.965   8.761   2.584
19188WAT     H157806   8.017   8.822   2.524
19188WAT     H257807   7.924   8.688   2.529
19189WAT      O57808   6.555   3.426   8.356
19189WAT     H157809   6.511   3.382   8.434
19189WAT     H257810   6.513   3.516   8.342
19190WAT      O57811   9.791   0.404   8.306
19190WAT     H157812   9.836   0.493   8.309
19190WAT     H257813   9.730   0.400   8.228
19191WAT      O57814   8.187   2.306   7.600
19191WAT     H157815   8.230   2.238   7.540
19191WAT     H257816   8.123   2.260   7.661
19192WAT      O57817   2.399   8.767   2.071
19192WAT     H157818   2.408   8.835   1.998
19192WAT     H257819   2.490   8.738   2.100
19193WAT      O57820   0.938   4.490   6.608
19193WAT     H157821   1.022   4.516   6.561
19193WAT     H257822   0.892   4.572   6.641
19194WAT      O57823   0.319   4.425   7.172
19194WAT     H157824   0.306   4.326   7.170
19194WAT     H257825   0.242   4.468   7.220
19195WAT      O57826   9.260   6.342   1.399
19195WAT     H157827   9.223   6.338   1.492
19195WAT     H257828   9.237   6.258   1.350
19196WAT      O57829   7.522   1.626   2.079
19196WAT     H157830   7.506   1.530   2.104
19196WAT     H257831   7.471   1.648   1.996
19197WAT      O57832   6.024   5.089   3.164
19197WAT     H157833   6.073   5.087   3.251
19197WAT     H257834   6.079   5.136   3.096
19198WAT      O57835   7.155   9.605   8.881
19198WAT     H157836   7.133   9.684   8.938
19198WAT     H257837   7.088   9.532   8.899
19199WAT      O57838   3.476   9.271   7.183
19199WAT     H157839   3.549   9.310   7.126
19199WAT     H257840   3.494   9.174   7.199
19200WAT      O57841   3.404   7.347   2.282
19200WAT     H157842   3.310   7.319   2.304
19200WAT     H257843   3.436   7.412   2.351
19201WAT      O57844   8.382   6.910   2.014
19201WAT     H157845   8.440   6.963   1.952
19201WAT     H257846   8.286   6.933   1.998
19202WAT      O57847   1.623   6.758   1.036
19202WAT     H157848   1.580   6.843   1.067
19202WAT     H257849   1.655   6.706   1.116
19203WAT      O57850   9.578   9.309   4.095
19203WAT     H157851   9.588   9.368   4.014
19203WAT     H257852   9.552   9.364   4.174
19204WAT      O57853   3.097   7.878   6.540
19204WAT     H157854   2.998   7.878   6.547
19204WAT     H257855   3.135   7.803   6.594
19205WAT      O57856   4.791   3.825   3.006
19205WAT     H157857   4.809   3.750   3.070
19205WAT     H257858   4.790   3.789   2.912
19206WAT      O57859   0.946   3.081   7.491
19206WAT     H157860   0.883   3.157   7.476
19206WAT     H257861   1.011   3.077   7.415
19207WAT      O57862   8.116   0.445   9.342
19207WAT     H157863   8.089   0.498   9.262
19207WAT     H257864   8.066   0.477   9.422
19208WAT      O57865   0.479   5.304   5.887
19208WAT     H157866   0.512   5.340   5.800
19208WAT     H257867   0.435   5.215   5.873
19209WAT      O57868   4.725   4.657   9.863
19209WAT     H157869   4.733   4.640   9.765
19209WAT     H257870   4.629   4.648   9.891
19210WAT      O57871   2.532   3.156   4.832
19210WAT     H157872   2.591   3.078   4.852
19210WAT     H257873   2.536   3.177   4.734
19211WAT      O57874   4.975   5.288   2.283
19211WAT     H157875   4.992   5.199   2.325
19211WAT     H257876   4.980   5.281   2.184
19212WAT      O57877   9.658   7.154   8.717
19212WAT     H157878   9.658   7.181   8.620
19212WAT     H257879   9.578   7.194   8.762
19213WAT      O57880   2.485   3.474   2.407
19213WAT     H157881   2.507   3.529   2.489
19213WAT     H257882   2.557   3.488   2.339
19214WAT      O57883   1.305   8.952   4.701
19214WAT     H157884   1.279   9.048   4.689
19214WAT     H257885   1.258   8.915   4.781
19215WAT      O57886   8.663   9.411   4.841
19215WAT     H157887   8.622   9.330   4.801
19215WAT     H257888   8.646   9.490   4.782
19216WAT      O57889   5.753   2.002   6.671
19216WAT     H157890   5.809   2.083   6.686
19216WAT     H257891   5.692   2.017   6.594
19217WAT      O57892   9.171   6.283   0.839
19217WAT     H157893   9.159   6.315   0.933
19217WAT     H257894   9.192   6.185   0.840
19218WAT      O57895   7.313   5.745   0.269
19218WAT     H157896   7.369   5.796   0.204
19218WAT     H257897   7.351   5.653   0.281
19219WAT      O57898   5.687   6.762   8.378
19219WAT     H157899   5.742   6.827   8.326
19219WAT     H257900   5.716   6.669   8.356
19220WAT      O57901   7.903   7.085   0.145
19220WAT     H157902   7.918   6.986   0.137
19220WAT     H257903   7.808   7.102   0.170
19221WAT      O57904   3.389   7.405   5.751
19221WAT     H157905   3.352   7.494   5.724
19221WAT     H257906   3.488   7.411   5.758
19222WAT      O57907   1.491   5.115   6.087
19222WAT     H157908   1.521   5.020   6.083
19222WAT     H257909   1.551   5.166   6.150
19223WAT      O57910   0.772   5.271   9.720
19223WAT     H157911   0.728   5.361   9.725
19223WAT     H257912   0.778   5.232   9.812
19224WAT      O57913   8.591   1.129   6.268
19224WAT     H157914   8.668   1.080   6.308
19224WAT     H257915   8.625   1.204   6.211
19225WAT      O57916   0.665   4.282   5.943
19225WAT     H157917   0.605   4.339   6.000
19225WAT     H257918   0.756   4.324   5.939
19226WAT      O57919   1.020   7.756   6.680
19226WAT     H157920   0.962   7.831   6.712
19226WAT     H257921   1.008   7.677   6.740
19227WAT      O57922   1.206   8.445   5.759
19227WAT     H157923   1.224   8.395   5.844
19227WAT     H257924   1.274   8.518   5.748
19228WAT      O57925   6.912   8.202   4.915
19228WAT     H157926   6.836   8.204   4.850
19228WAT     H257927   6.969   8.122   4.896
19229WAT      O57928   0.777   2.814   1.691
19229WAT     H157929   0.761   2.841   1.785
19229WAT     H257930   0.691   2.818   1.639
19230WAT      O57931   1.124   4.992   6.591
19230WAT     H157932   1.042   4.984   6.648
19230WAT     H257933   1.112   5.067   6.525
19231WAT      O57934   2.271   0.411   5.942
19231WAT     H157935   2.318   0.414   6.030
19231WAT     H257936   2.193   0.474   5.945
19232WAT      O57937   5.776   4.492   3.685
19232WAT     H157938   5.769   4.394   3.671
19232WAT     H257939   5.690   4.527   3.722
19233WAT      O57940   1.432   4.847   2.517
19233WAT     H157941   1.499   4.848   2.443
19233WAT     H257942   1.480   4.844   2.605
19234WAT      O57943   7.351   7.242   8.419
19234WAT     H157944   7.279   7.218   8.354
19234WAT     H257945   7.423   7.293   8.371
19235WAT      O57946   1.772   2.982   1.622
19235WAT     H157947   1.693   3.043   1.620
19235WAT     H257948   1.855   3.034   1.600
19236WAT      O57949   8.684   4.563   5.062
19236WAT     H157950   8.739   4.525   4.989
19236WAT     H257951   8.607   4.502   5.081
19237WAT      O57952   4.914   2.449   8.375
19237WAT     H157953   4.863   2.376   8.421
19237WAT     H257954   4.972   2.496   8.442
19238WAT      O57955   7.654   0.266   0.635
19238WAT     H157956   7.713   0.316   0.697
19238WAT     H257957   7.667   0.300   0.541
19239WAT      O57958   9.004   8.661   1.668
19239WAT     H157959   9.097   8.698   1.678
19239WAT     H257960   8.977   8.667   1.572
19240WAT      O57961   8.556   0.535   8.094
19240WAT     H157962   8.589   0.442   8.079
19240WAT     H257963   8.617   0.600   8.048
19241WAT      O57964   8.928   0.308   0.548
19241WAT     H157965   8.928   0.209   0.536
19241WAT     H257966   8.958   0.330   0.640
19242WAT      O57967   1.501   0.345   0.752
19242WAT     H157968   1.404   0.368   0.747
19242WAT     H257969   1.551   0.420   0.796
19243WAT      O57970   2.295   0.358   4.704
19243WAT     H157971   2.303   0.316   4.794
19243WAT     H257972   2.242   0.442   4.711
19244WAT      O57973   3.714   8.798   3.039
19244WAT     H157974   3.793   8.859   3.044
19244WAT     H257975   3.727   8.732   2.966
19245WAT      O57976   3.437   2.159   2.314
19245WAT     H157977   3.354   2.172   2.369
19245WAT     H257978   3.488   2.080   2.349
19246WAT      O57979   1.317   9.086   6.504
19246WAT     H157980   1.321   9.153   6.578
19246WAT     H257981   1.284   9.131   6.421
19247WAT      O57982   1.505   6.391   5.344
19247WAT     H157983   1.481   6.479   5.385
19247WAT     H257984   1.541   6.330   5.415
19248WAT      O57985   5.520   0.411   3.987
19248WAT     H157986   5.535   0.362   3.900
19248WAT     H257987   5.428   0.450   3.988
19249WAT      O57988   3.992   2.055   5.960
19249WAT     H157989   4.069   1.997   5.985
19249WAT     H257990   3.941   2.012   5.886
19250WAT      O57991   7.202   1.847   8.204
19250WAT     H157992   7.132   1.776   8.198
19250WAT     H257993   7.184   1.917   8.135
19251WAT      O57994   3.106   6.990   6.756
19251WAT     H157995   3.178   7.023   6.817
19251WAT     H257996   3.084   7.061   6.689
19252WAT      O57997   8.211   9.330   4.296
19252WAT     H157998   8.251   9.313   4.206
19252WAT     H257999   8.127   9.277   4.306
19253WAT      O58000   2.110   1.497   5.092
19253WAT     H158001   2.108   1.434   5.015
19253WAT     H258002   2.206   1.518   5.115
19254WAT      O58003   7.321   5.708   2.009
19254WAT     H158004   7.278   5.686   2.096
19254WAT     H258005   7.314   5.806   1.991
19255WAT      O58006   0.251   8.343   9.872
19255WAT     H158007   0.306   8.426   9.872
19255WAT     H258008   0.311   8.263   9.877
19256WAT      O58009   5.650   7.408   1.001
19256WAT     H158010   5.744   7.395   0.969
19256WAT     H258011   5.630   7.341   1.073
19257WAT      O58012   6.543   7.103   1.106
19257WAT     H158013   6.640   7.089   1.128
19257WAT     H258014   6.525   7.200   1.092
19258WAT      O58015   2.056   6.743   0.399
19258WAT     H158016   1.965   6.757   0.360
19258WAT     H258017   2.052   6.669   0.467
19259WAT      O58018  -0.002   2.782   3.915
19259WAT     H158019   0.095   2.790   3.941
19259WAT     H258020  -0.018   2.834   3.832
19260WAT      O58021   1.663   2.992   5.567
19260WAT     H158022   1.634   2.900   5.594
19260WAT     H258023   1.727   3.028   5.635
19261WAT      O58024   6.549   6.643   1.609
19261WAT     H158025   6.492   6.676   1.534
19261WAT     H258026   6.637   6.613   1.573
19262WAT      O58027   8.559   3.650   2.375
19262WAT     H158028   8.593   3.583   2.441
19262WAT     H258029   8.636   3.684   2.320
19263WAT      O58030   7.458   1.904   6.286
19263WAT     H158031   7.503   1.830   6.236
19263WAT     H258032   7.366   1.876   6.314
19264WAT      O58033   2.421   3.468   3.636
19264WAT     H158034   2.382   3.379   3.616
19264WAT     H258035   2.519   3.467   3.616
19265WAT      O58036   2.752   1.630   2.770
19265WAT     H158037   2.735   1.658   2.864
19265WAT     H258038   2.796   1.540   2.769
19266WAT      O58039   8.262   3.370   7.335
19266WAT     H158040   8.258   3.347   7.237
19266WAT     H258041   8.242   3.288   7.389
19267WAT      O58042   2.771   4.382   5.517
19267WAT     H158043   2.817   4.356   5.433
19267WAT     H258044   2.674   4.355   5.511
19268WAT      O58045   4.987   0.479   9.013
19268WAT     H158046   4.896   0.438   9.014
19268WAT     H258047   5.055   0.407   9.029
19269WAT      O58048   9.255   4.016   0.699
19269WAT     H158049   9.234   4.069   0.617
19269WAT     H258050   9.213   4.061   0.779
19270WAT      O58051   6.316   4.873   3.083
19270WAT     H158052   6.256   4.851   3.006
19270WAT     H258053   6.298   4.809   3.158
19271WAT      O58054   0.056   0.418   5.357
19271WAT     H158055   0.046   0.505   5.405
19271WAT     H258056   0.129   0.426   5.289
19272WAT      O58057   0.643   4.977   5.505
19272WAT     H158058   0.646   4.914   5.582
19272WAT     H258059   0.736   5.007   5.483
19273WAT      O58060   3.639   8.954   9.852
19273WAT     H158061   3.549   8.911   9.857
19273WAT     H258062   3.707   8.887   9.824
19274WAT      O58063   1.843   0.885   7.380
19274WAT     H158064   1.934   0.878   7.421
19274WAT     H258065   1.827   0.979   7.351
19275WAT      O58066   1.259   8.077   7.192
19275WAT     H158067   1.275   7.986   7.154
19275WAT     H258068   1.162   8.085   7.217
19276WAT      O58069   6.346   9.578   1.068
19276WAT     H158070   6.307   9.487   1.081
19276WAT     H258071   6.428   9.587   1.123
19277WAT      O58072   7.446   3.083   6.641
19277WAT     H158073   7.385   3.070   6.563
19277WAT     H258074   7.407   3.039   6.722
19278WAT      O58075   5.737   0.536   1.018
19278WAT     H158076   5.810   0.524   1.086
19278WAT     H258077   5.756   0.616   0.962
19279WAT      O58078   0.039   1.946   2.082
19279WAT     H158079   0.015   1.941   1.985
19279WAT     H258080  -0.010   2.023   2.124
19280WAT      O58081   9.451   7.268   8.858
19280WAT     H158082   9.406   7.332   8.795
19280WAT     H258083   9.485   7.317   8.938
19281WAT      O58084   8.244   8.060   5.539
19281WAT     H158085   8.285   7.982   5.587
19281WAT     H258086   8.238   8.040   5.441
19282WAT      O58087   0.162   9.657   8.167
19282WAT     H158088   0.129   9.744   8.131
19282WAT     H258089   0.086   9.603   8.201
19283WAT      O58090   6.179   8.274   1.039
19283WAT     H158091   6.242   8.328   1.094
19283WAT     H258092   6.225   8.191   1.007
19284WAT      O58093   5.166   7.181   7.304
19284WAT     H158094   5.151   7.256   7.368
19284WAT     H258095   5.099   7.109   7.320
19285WAT      O58096   0.570   3.223   1.259
19285WAT     H158097   0.621   3.304   1.289
19285WAT     H258098   0.635   3.155   1.225
19286WAT      O58099   4.628   9.463   7.502
19286WAT     H158100   4.557   9.448   7.434
19286WAT     H258101   4.716   9.477   7.456
19287WAT      O58102   3.705   5.936   6.693
19287WAT     H158103   3.658   5.957   6.779
19287WAT     H258104   3.803   5.926   6.709
19288WAT      O58105   2.269   8.763   2.993
19288WAT     H158106   2.272   8.680   3.048
19288WAT     H258107   2.341   8.761   2.925
19289WAT      O58108   8.829   0.929   6.943
19289WAT     H158109   8.911   0.891   6.985
19289WAT     H258110   8.827   1.027   6.957
19290WAT      O58111   8.503   7.445   9.288
19290WAT     H158112   8.518   7.491   9.201
19290WAT     H258113   8.426   7.382   9.280
19291WAT      O58114   8.578   5.842   7.563
19291WAT     H158115   8.570   5.790   7.648
19291WAT     H258116   8.507   5.913   7.561
19292WAT      O58117   3.139   9.318   0.825
19292WAT     H158118   3.237   9.333   0.812
19292WAT     H258119   3.125   9.228   0.867
19293WAT      O58120   4.102   4.925   9.087
19293WAT     H158121   4.015   4.937   9.038
19293WAT     H258122   4.175   4.970   9.036
19294WAT      O58123   3.536   1.839   7.496
19294WAT     H158124   3.471   1.802   7.429
19294WAT     H258125   3.486   1.888   7.567
19295WAT      O58126   2.084   3.987   5.505
19295WAT     H158127   2.086   4.032   5.594
19295WAT     H258128   2.174   3.995   5.461
19296WAT      O58129   4.037   6.397   6.510
19296WAT     H158130   4.087   6.439   6.434
19296WAT     H258131   3.983   6.320   6.476
19297WAT      O58132   4.646   4.776   3.812
19297WAT     H158133   4.633   4.679   3.832
19297WAT     H258134   4.566   4.811   3.764
19298WAT      O58135   1.517   5.431   5.591
19298WAT     H158136   1.469   5.443   5.678
19298WAT     H258137   1.594   5.494   5.587
19299WAT      O58138   1.298   0.008   6.893
19299WAT     H158139   1.328  -0.076   6.847
19299WAT     H258140   1.341   0.087   6.849
19300WAT      O58141   2.800   9.697   5.885
19300WAT     H158142   2.836   9.619   5.834
19300WAT     H258143   2.807   9.680   5.983
19301WAT      O58144   8.092   1.013   1.770
19301WAT     H158145   7.997   0.997   1.744
19301WAT     H258146   8.144   1.043   1.691
19302WAT      O58147   6.891   7.640   1.569
19302WAT     H158148   6.933   7.676   1.485
19302WAT     H258149   6.922   7.546   1.583
19303WAT      O58150   6.447   5.572   9.064
19303WAT     H158151   6.466   5.514   8.984
19303WAT     H258152   6.377   5.528   9.120
19304WAT      O58153   7.568   2.159   6.151
19304WAT     H158154   7.536   2.236   6.205
19304WAT     H258155   7.531   2.074   6.189
19305WAT      O58156   1.626   6.103   0.032
19305WAT     H158157   1.527   6.114   0.042
19305WAT     H258158   1.648   6.074  -0.061
19306WAT      O58159   5.820   8.699   9.748
19306WAT     H158160   5.901   8.682   9.691
19306WAT     H258161   5.762   8.618   9.747
19307WAT      O58162   7.101   4.431   7.015
19307WAT     H158163   7.025   4.462   6.958
19307WAT     H258164   7.184   4.481   6.990
19308WAT      O58165   2.823   4.634   3.353
19308WAT     H158166   2.889   4.585   3.296
19308WAT     H258167   2.872   4.694   3.416
19309WAT      O58168   0.300   8.585   5.131
19309WAT     H158169   0.370   8.609   5.199
19309WAT     H258170   0.255   8.668   5.100
19310WAT      O58171   0.913   5.200   2.853
19310WAT     H158172   0.862   5.157   2.778
19310WAT     H258173   0.850   5.224   2.927
19311WAT      O58174   2.327   4.611   0.958
19311WAT     H158175   2.314   4.515   0.932
19311WAT     H258176   2.421   4.625   0.988
19312WAT      O58177   9.116   8.031   9.373
19312WAT     H158178   9.053   7.953   9.373
19312WAT     H258179   9.186   8.017   9.444
19313WAT      O58180   9.788   0.361   7.661
19313WAT     H158181   9.773   0.267   7.632
19313WAT     H258182   9.886   0.377   7.677
19314WAT      O58183   6.536   8.198   9.883
19314WAT     H158184   6.556   8.224   9.789
19314WAT     H258185   6.574   8.108   9.902
19315WAT      O58186   3.768   6.585   0.532
19315WAT     H158187   3.707   6.659   0.504
19315WAT     H258188   3.749   6.503   0.479
19316WAT      O58189   2.159   6.011   6.499
19316WAT     H158190   2.071   6.057   6.488
19316WAT     H258191   2.224   6.073   6.543
19317WAT      O58192   7.283   0.724   2.651
19317WAT     H158193   7.213   0.659   2.622
19317WAT     H258194   7.374   0.688   2.631
19318WAT      O58195   1.563   0.033   6.215
19318WAT     H158196   1.656   0.052   6.184
19318WAT     H258197   1.550   0.069   6.307
19319WAT      O58198   2.103   9.738   7.030
19319WAT     H158199   2.078   9.698   6.942
19319WAT     H258200   2.032   9.718   7.097
19320WAT      O58201   7.841   8.562   2.470
19320WAT     H158202   7.782   8.550   2.550
19320WAT     H258203   7.906   8.487   2.465
19321WAT      O58204   5.542   4.564   6.188
19321WAT     H158205   5.487   4.487   6.223
19321WAT     H258206   5.484   4.645   6.179
19322WAT      O58207   1.799   6.109   2.422
19322WAT     H158208   1.754   6.117   2.334
19322WAT     H258209   1.798   6.014   2.452
19323WAT      O58210   1.413   2.201   3.761
19323WAT     H158211   1.512   2.191   3.751
19323WAT     H258212   1.370   2.200   3.671
19324WAT      O58213   2.263   3.757   1.776
19324WAT     H158214   2.183   3.815   1.790
19324WAT     H258215   2.339   3.813   1.742
19325WAT      O58216   8.285   8.783   0.283
19325WAT     H158217   8.271   8.694   0.326
19325WAT     H258218   8.219   8.795   0.209
19326WAT      O58219   8.450   0.466   3.852
19326WAT     H158220   8.455   0.561   3.822
19326WAT     H258221   8.541   0.433   3.876
19327WAT      O58222   6.150   2.259   1.269
19327WAT     H158223   6.130   2.163   1.248
19327WAT     H258224   6.116   2.282   1.360
19328WAT      O58225   2.078   0.796   5.512
19328WAT     H158226   2.059   0.872   5.450
19328WAT     H258227   2.010   0.724   5.498
19329WAT      O58228   4.709   9.828   3.599
19329WAT     H158229   4.796   9.849   3.643
19329WAT     H258230   4.634   9.862   3.657
19330WAT      O58231   3.539   5.020   8.444
19330WAT     H158232   3.447   4.982   8.453
19330WAT     H258233   3.566   5.018   8.347
19331WAT      O58234   7.867   2.563   4.209
19331WAT     H158235   7.796   2.590   4.274
19331WAT     H258236   7.923   2.642   4.186
19332WAT      O58237   0.581   9.194   6.187
19332WAT     H158238   0.508   9.200   6.255
19332WAT     H258239   0.556   9.129   6.115
19333WAT      O58240   5.436   2.333   3.542
19333WAT     H158241   5.438   2.371   3.635
19333WAT     H258242   5.357   2.272   3.533
19334WAT      O58243   4.751   5.300   0.717
19334WAT     H158244   4.696   5.221   0.745
19334WAT     H258245   4.817   5.322   0.788
19335WAT      O58246   5.019   8.151   6.391
19335WAT     H158247   5.041   8.237   6.346
19335WAT     H258248   4.965   8.094   6.330
19336WAT      O58249   6.435   2.772   7.013
19336WAT     H158250   6.515   2.831   7.026
19336WAT     H258251   6.430   2.744   6.917
19337WAT      O58252   6.380   7.374   4.783
19337WAT     H158253   6.414   7.466   4.802
19337WAT     H258254   6.313   7.348   4.853
19338WAT      O58255   1.760   9.442   3.777
19338WAT     H158256   1.742   9.365   3.716
19338WAT     H258257   1.826   9.415   3.847
19339WAT      O58258   7.667   3.169   2.156
19339WAT     H158259   7.571   3.197   2.149
19339WAT     H258260   7.724   3.249   2.172
19340WAT      O58261   1.609   4.022   6.054
19340WAT     H158262   1.510   4.034   6.048
19340WAT     H258263   1.633   3.994   6.147
19341WAT      O58264   2.378   0.176   5.308
19341WAT     H158265   2.460   0.232   5.290
19341WAT     H258266   2.392   0.085   5.270
19342WAT      O58267   1.499   1.708   6.732
19342WAT     H158268   1.568   1.697   6.803
19342WAT     H258269   1.520   1.788   6.677
19343WAT      O58270   6.879   5.401   6.166
19343WAT     H158271   6.813   5.326   6.166
19343WAT     H258272   6.845   5.475   6.108
19344WAT      O58273   3.382   8.659   2.859
19344WAT     H158274   3.428   8.665   2.770
19344WAT     H258275   3.382   8.749   2.903
19345WAT      O58276   3.538   7.277   7.784
19345WAT     H158277   3.476   7.199   7.788
19345WAT     H258278   3.485   7.362   7.784
19346WAT      O58279   8.413   0.457   0.791
19346WAT     H158280   8.408   0.481   0.888
19346WAT     H258281   8.505   0.472   0.757
19347WAT      O58282   9.483   3.669   9.836
19347WAT     H158283   9.520   3.759   9.816
19347WAT     H258284   9.480   3.655   9.935
19348WAT      O58285   0.327   2.247   9.395
19348WAT     H158286   0.313   2.298   9.480
19348WAT     H258287   0.267   2.284   9.324
19349WAT      O58288   7.376   6.330   5.674
19349WAT     H158289   7.449   6.380   5.627
19349WAT     H258290   7.410   6.294   5.761
19350WAT      O58291   4.205   2.287   9.005
19350WAT     H158292   4.285   2.328   8.962
19350WAT     H258293   4.213   2.188   9.005
19351WAT      O58294   7.860   8.312   7.260
19351WAT     H158295   7.817   8.234   7.307
19351WAT     H258296   7.958   8.297   7.254
19352WAT      O58297   0.313   1.318   2.629
19352WAT     H158298   0.264   1.336   2.544
19352WAT     H258299   0.255   1.341   2.707
19353WAT      O58300   0.762   9.172   7.489
19353WAT     H158301   0.780   9.114   7.409
19353WAT     H258302   0.714   9.119   7.559
19354WAT      O58303   9.635   4.318   7.226
19354WAT     H158304   9.541   4.296   7.197
19354WAT     H258305   9.670   4.243   7.283
19355WAT      O58306   1.108   0.302   7.288
19355WAT     H158307   1.078   0.314   7.193
19355WAT     H258308   1.135   0.390   7.326
19356WAT      O58309   0.360   5.879   4.037
19356WAT     H158310   0.445   5.862   3.988
19356WAT     H258311   0.293   5.808   4.014
19357WAT      O58312   8.061   6.920   0.773
19357WAT     H158313   8.042   6.826   0.800
19357WAT     H258314   8.155   6.944   0.800
19358WAT      O58315   8.220   0.260   8.220
19358WAT     H158316   8.258   0.197   8.152
19358WAT     H258317   8.250   0.353   8.199
19359WAT      O58318   8.135   5.539   9.423
19359WAT     H158319   8.090   5.524   9.335
19359WAT     H258320   8.114   5.630   9.457
19360WAT      O58321   8.222   7.559   1.457
19360WAT     H158322   8.267   7.609   1.383
19360WAT     H258323   8.274   7.571   1.542
19361WAT      O58324   1.418   8.049   2.254
19361WAT     H158325   1.402   8.126   2.316
19361WAT     H258326   1.347   7.979   2.269
19362WAT      O58327   7.447   6.902   4.101
19362WAT     H158328   7.394   6.969   4.049
19362WAT     H258329   7.420   6.907   4.197
19363WAT      O58330   2.455   0.285   2.877
19363WAT     H158331   2.531   0.230   2.842
19363WAT     H258332   2.482   0.330   2.962
19364WAT      O58333   9.009   7.667   2.046
19364WAT     H158334   8.918   7.696   2.017
19364WAT     H258335   9.020   7.683   2.144
19365WAT      O58336   3.222   3.483   0.585
19365WAT     H158337   3.192   3.573   0.554
19365WAT     H258338   3.319   3.471   0.565
19366WAT      O58339   6.128   4.408   8.915
19366WAT     H158340   6.098   4.502   8.896
19366WAT     H258341   6.149   4.399   9.012
19367WAT      O58342   9.661   7.159   2.208
19367WAT     H158343   9.661   7.255   2.236
19367WAT     H258344   9.566   7.126   2.205
19368WAT      O58345   2.855   0.395   6.293
19368WAT     H158346   2.860   0.323   6.362
19368WAT     H258347   2.928   0.461   6.307
19369WAT      O58348   1.028   7.617   4.157
19369WAT     H158349   0.950   7.585   4.211
19369WAT     H258350   1.056   7.708   4.189
19370WAT      O58351   0.134   8.208   2.948
19370WAT     H158352   0.200   8.154   2.999
19370WAT     H258353   0.144   8.305   2.972
19371WAT      O58354   4.302   2.087   0.555
19371WAT     H158355   4.352   2.025   0.617
19371WAT     H258356   4.218   2.117   0.600
19372WAT      O58357   4.902   9.035   9.172
19372WAT     H158358   4.972   9.086   9.122
19372WAT     H258359   4.940   9.003   9.259
19373WAT      O58360   3.987   2.012   8.901
19373WAT     H158361   4.013   2.098   8.857
19373WAT     H258362   4.057   1.987   8.968
19374WAT      O58363   7.750   9.268   3.015
19374WAT     H158364   7.761   9.226   3.105
19374WAT     H258365   7.835   9.256   2.962
19375WAT      O58366   7.669   5.628   6.546
19375WAT     H158367   7.754   5.577   6.551
19375WAT     H258368   7.631   5.620   6.453
19376WAT      O58369   6.509   0.409   3.561
19376WAT     H158370   6.608   0.408   3.550
19376WAT     H258371   6.479   0.501   3.584
19377WAT      O58372   1.238   0.426   2.028
19377WAT     H158373   1.318   0.381   2.069
19377WAT     H258374   1.232   0.520   2.063
19378WAT      O58375   7.588   6.738   4.958
19378WAT     H158376   7.635   6.718   5.044
19378WAT     H258377   7.649   6.722   4.881
19379WAT      O58378   9.083   7.395   2.132
19379WAT     H158379   9.083   7.480   2.078
19379WAT     H258380   9.163   7.340   2.107
19380WAT      O58381   9.076   0.863   7.013
19380WAT     H158382   9.124   0.793   7.066
19380WAT     H258383   9.133   0.892   6.936
19381WAT      O58384   6.385   0.618   6.303
19381WAT     H158385   6.363   0.662   6.390
19381WAT     H258386   6.433   0.532   6.320
19382WAT      O58387   1.604   8.417   2.359
19382WAT     H158388   1.680   8.418   2.424
19382WAT     H258389   1.639   8.398   2.268
19383WAT      O58390   2.645   8.065   5.420
19383WAT     H158391   2.643   7.965   5.432
19383WAT     H258392   2.555   8.102   5.440
19384WAT      O58393   3.451   9.449   6.207
19384WAT     H158394   3.484   9.543   6.219
19384WAT     H258395   3.445   9.428   6.109
19385WAT      O58396   4.908   7.441   9.753
19385WAT     H158397   5.003   7.413   9.740
19385WAT     H258398   4.900   7.539   9.738
19386WAT      O58399   4.761   3.539   5.171
19386WAT     H158400   4.688   3.534   5.102
19386WAT     H258401   4.845   3.572   5.129
19387WAT      O58402   9.482   5.962   7.074
19387WAT     H158403   9.522   5.878   7.036
19387WAT     H258404   9.483   5.957   7.173
19388WAT      O58405   8.887   5.076   7.663
19388WAT     H158406   8.956   5.004   7.666
19388WAT     H258407   8.837   5.070   7.576
19389WAT      O58408   7.515   0.790   9.127
19389WAT     H158409   7.422   0.752   9.123
19389WAT     H258410   7.515   0.870   9.187
19390WAT      O58411   2.808   5.427   8.110
19390WAT     H158412   2.838   5.522   8.104
19390WAT     H258413   2.877   5.368   8.068
19391WAT      O58414   2.568   6.758   6.575
19391WAT     H158415   2.628   6.681   6.595
19391WAT     H258416   2.473   6.728   6.576
19392WAT      O58417   5.775   2.205   0.168
19392WAT     H158418   5.847   2.189   0.101
19392WAT     H258419   5.712   2.274   0.134
19393WAT      O58420   0.430   2.600   3.658
19393WAT     H158421   0.368   2.668   3.697
19393WAT     H258422   0.387   2.558   3.578
19394WAT      O58423   5.671   2.134   4.645
19394WAT     H158424   5.655   2.227   4.613
19394WAT     H258425   5.583   2.091   4.668
19395WAT      O58426   6.751   1.426   3.966
19395WAT     H158427   6.848   1.406   3.953
19395WAT     H258428   6.736   1.525   3.962
19396WAT      O58429   8.329   9.273   1.948
19396WAT     H158430   8.309   9.371   1.946
19396WAT     H258431   8.426   9.259   1.969
19397WAT      O58432   4.662   2.131   0.589
19397WAT     H158433   4.582   2.079   0.620
19397WAT     H258434   4.656   2.225   0.623
19398WAT      O58435   4.127   8.079   0.784
19398WAT     H158436   4.030   8.074   0.760
19398WAT     H258437   4.177   8.127   0.712
19399WAT      O58438   4.452   9.138   9.639
19399WAT     H158439   4.411   9.107   9.554
19399WAT     H258440   4.380   9.158   9.706
19400WAT      O58441   9.623   5.482   6.863
19400WAT     H158442   9.610   5.384   6.881
19400WAT     H258443   9.560   5.512   6.792
19401WAT      O58444   8.977   2.519   3.236
19401WAT     H158445   9.062   2.520   3.287
19401WAT     H258446   8.901   2.545   3.296
19402WAT      O58447   1.734   6.986   1.555
19402WAT     H158448   1.681   6.989   1.640
19402WAT     H258449   1.742   6.892   1.523
19403WAT      O58450   1.189   8.673   5.394
19403WAT     H158451   1.256   8.663   5.321
19403WAT     H258452   1.099   8.643   5.362
19404WAT      O58453   1.943   9.076   5.145
19404WAT     H158454   1.991   9.029   5.071
19404WAT     H258455   2.007   9.091   5.222
19405WAT      O58456   6.826   5.517   7.094
19405WAT     H158457   6.827   5.526   7.193
19405WAT     H258458   6.882   5.589   7.053
19406WAT      O58459   1.251   2.135   0.025
19406WAT     H158460   1.316   2.195   0.072
19406WAT     H258461   1.271   2.135  -0.073
19407WAT      O58462   7.894   9.394   4.148
19407WAT     H158463   7.936   9.307   4.171
19407WAT     H258464   7.863   9.392   4.053
19408WAT      O58465   9.584   5.027   6.051
19408WAT     H158466   9.584   4.928   6.058
19408WAT     H258467   9.642   5.055   5.974
19409WAT      O58468   7.600   7.757   5.805
19409WAT     H158469   7.650   7.683   5.849
19409WAT     H258470   7.659   7.802   5.738
19410WAT      O58471   4.672   2.691   7.734
19410WAT     H158472   4.580   2.655   7.721
19410WAT     H258473   4.675   2.748   7.816
19411WAT      O58474   2.632   3.545   2.197
19411WAT     H158475   2.584   3.632   2.181
19411WAT     H258476   2.712   3.540   2.138
19412WAT      O58477   9.712   7.452   0.645
19412WAT     H158478   9.694   7.353   0.647
19412WAT     H258479   9.632   7.499   0.610
19413WAT      O58480   6.325   8.479   0.888
19413WAT     H158481   6.269   8.489   0.970
19413WAT     H258482   6.295   8.398   0.837
19414WAT      O58483   7.838   5.914   3.692
19414WAT     H158484   7.826   5.987   3.625
19414WAT     H258485   7.749   5.887   3.728
19415WAT      O58486   5.588   7.440   5.465
19415WAT     H158487   5.678   7.402   5.488
19415WAT     H258488   5.526   7.367   5.438
19416WAT      O58489   3.458   3.795   4.546
19416WAT     H158490   3.463   3.882   4.496
19416WAT     H258491   3.550   3.771   4.578
19417WAT      O58492   6.628   6.226   0.756
19417WAT     H158493   6.665   6.314   0.786
19417WAT     H258494   6.539   6.241   0.714
19418WAT      O58495   9.464   2.544   8.306
19418WAT     H158496   9.431   2.559   8.400
19418WAT     H258497   9.526   2.466   8.305
19419WAT      O58498   0.817   1.216   4.194
19419WAT     H158499   0.825   1.151   4.269
19419WAT     H258500   0.794   1.307   4.230
19420WAT      O58501   9.204   8.532   3.482
19420WAT     H158502   9.125   8.490   3.438
19420WAT     H258503   9.256   8.585   3.414
19421WAT      O58504   0.804   8.374   8.490
19421WAT     H158505   0.796   8.419   8.579
19421WAT     H258506   0.824   8.442   8.419
19422WAT      O58507   1.424   1.277   8.513
19422WAT     H158508   1.481   1.322   8.444
19422WAT     H258509   1.470   1.281   8.602
19423WAT      O58510   8.847   9.284   3.132
19423WAT     H158511   8.880   9.318   3.220
19423WAT     H258512   8.924   9.260   3.074
19424WAT      O58513   8.741   7.209   6.145
19424WAT     H158514   8.817   7.255   6.099
19424WAT     H258515   8.666   7.274   6.158
19425WAT      O58516   1.873   4.907   0.235
19425WAT     H158517   1.905   4.978   0.172
19425WAT     H258518   1.842   4.950   0.320
19426WAT      O58519   6.548   5.021   3.078
19426WAT     H158520   6.526   5.094   3.013
19426WAT     H258521   6.475   4.952   3.075
19427WAT      O58522   8.394   6.058   6.630
19427WAT     H158523   8.434   5.969   6.607
19427WAT     H258524   8.449   6.102   6.701
19428WAT      O58525   1.513   6.607   6.289
19428WAT     H158526   1.485   6.567   6.376
19428WAT     H258527   1.444   6.587   6.220
19429WAT      O58528   5.123   6.211   9.163
19429WAT     H158529   5.207   6.160   9.183
19429WAT     H258530   5.067   6.160   9.098
19430WAT      O58531   1.678   9.605   1.756
19430WAT     H158532   1.604   9.649   1.807
19430WAT     H258533   1.763   9.655   1.771
19431WAT      O58534   2.294   0.506   1.065
19431WAT     H158535   2.201   0.533   1.090
19431WAT     H258536   2.309   0.526   0.968
19432WAT      O58537   6.282   9.090   3.049
19432WAT     H158538   6.351   9.019   3.058
19432WAT     H258539   6.233   9.078   2.963
19433WAT      O58540   9.374   3.772   5.657
19433WAT     H158541   9.303   3.767   5.587
19433WAT     H258542   9.446   3.835   5.628
19434WAT      O58543   4.097   9.818   7.462
19434WAT     H158544   4.104   9.765   7.378
19434WAT     H258545   4.182   9.811   7.514
19435WAT      O58546   4.963   6.140   0.190
19435WAT     H158547   4.870   6.107   0.175
19435WAT     H258548   5.017   6.128   0.107
19436WAT      O58549   6.888   1.200   6.914
19436WAT     H158550   6.805   1.222   6.863
19436WAT     H258551   6.947   1.280   6.918
19437WAT      O58552   3.383   5.484   6.698
19437WAT     H158553   3.483   5.472   6.699
19437WAT     H258554   3.341   5.412   6.753
19438WAT      O58555   3.455   8.664   2.328
19438WAT     H158556   3.553   8.654   2.315
19438WAT     H258557   3.410   8.663   2.238
19439WAT      O58558   8.642   4.780   5.821
19439WAT     H158559   8.633   4.711   5.749
19439WAT     H258560   8.551   4.806   5.853
19440WAT      O58561   2.254   5.503   8.482
19440WAT     H158562   2.157   5.485   8.493
19440WAT     H258563   2.292   5.440   8.414
19441WAT      O58564   2.640   3.315   9.531
19441WAT     H158565   2.657   3.392   9.471
19441WAT     H258566   2.727   3.277   9.562
19442WAT      O58567   5.451   8.137   1.302
19442WAT     H158568   5.381   8.201   1.269
19442WAT     H258569   5.410   8.074   1.368
19443WAT      O58570   0.256   8.800   4.071
19443WAT     H158571   0.347   8.762   4.089
19443WAT     H258572   0.218   8.837   4.156
19444WAT      O58573   9.510   2.746   4.497
19444WAT     H158574   9.503   2.809   4.420
19444WAT     H258575   9.444   2.771   4.567
19445WAT      O58576   1.739   9.541   7.519
19445WAT     H158577   1.829   9.505   7.493
19445WAT     H258578   1.693   9.475   7.578
19446WAT      O58579   1.161   5.038   6.112
19446WAT     H158580   1.103   5.101   6.061
19446WAT     H258581   1.252   5.077   6.122
19447WAT      O58582   3.509   3.130   0.555
19447WAT     H158583   3.415   3.161   0.571
19447WAT     H258584   3.540   3.076   0.634
19448WAT      O58585   8.914   0.247   3.874
19448WAT     H158586   8.826   0.275   3.913
19448WAT     H258587   8.932   0.151   3.895
19449WAT      O58588   0.726   3.472   1.042
19449WAT     H158589   0.719   3.373   1.036
19449WAT     H258590   0.635   3.512   1.052
19450WAT      O58591   5.623   7.256   5.967
19450WAT     H158592   5.696   7.291   5.909
19450WAT     H258593   5.611   7.316   6.046
19451WAT      O58594   9.449   0.332   7.422
19451WAT     H158595   9.462   0.253   7.483
19451WAT     H258596   9.380   0.393   7.460
19452WAT      O58597   9.056   5.597   0.933
19452WAT     H158598   9.126   5.529   0.908
19452WAT     H258599   9.059   5.672   0.867
19453WAT      O58600   6.471   8.041   4.781
19453WAT     H158601   6.451   7.976   4.708
19453WAT     H258602   6.447   8.000   4.869
19454WAT      O58603   4.934   2.805   7.085
19454WAT     H158604   4.946   2.796   7.184
19454WAT     H258605   4.955   2.899   7.057
19455WAT      O58606   5.897   9.053   3.009
19455WAT     H158607   5.965   9.038   2.937
19455WAT     H258608   5.837   8.974   3.015
19456WAT      O58609   8.866   5.833   1.634
19456WAT     H158610   8.939   5.899   1.618
19456WAT     H258611   8.777   5.878   1.629
19457WAT      O58612   4.461   0.624   4.767
19457WAT     H158613   4.395   0.698   4.754
19457WAT     H258614   4.442   0.549   4.704
19458WAT      O58615   2.153   9.399   2.245
19458WAT     H158616   2.123   9.390   2.340
19458WAT     H258617   2.190   9.312   2.213
19459WAT      O58618   4.761   6.088   8.518
19459WAT     H158619   4.849   6.125   8.490
19459WAT     H258620   4.724   6.031   8.444
19460WAT      O58621   0.341   4.912   1.241
19460WAT     H158622   0.376   4.820   1.261
19460WAT     H258623   0.258   4.904   1.185
19461WAT      O58624   6.967   5.099   7.346
19461WAT     H158625   6.927   5.165   7.282
19461WAT     H258626   7.064   5.088   7.327
19462WAT      O58627   5.421   4.248   3.779
19462WAT     H158628   5.321   4.250   3.770
19462WAT     H258629   5.462   4.216   3.694
19463WAT      O58630   4.949   9.143   4.487
19463WAT     H158631   4.899   9.115   4.569
19463WAT     H258632   5.013   9.070   4.461
19464WAT      O58633   7.953   0.783   8.683
19464WAT     H158634   7.958   0.798   8.584
19464WAT     H258635   7.859   0.757   8.708
19465WAT      O58636   5.439   3.137   5.476
19465WAT     H158637   5.524   3.189   5.477
19465WAT     H258638   5.364   3.197   5.450
19466WAT      O58639   0.743   9.342   2.439
19466WAT     H158640   0.734   9.310   2.344
19466WAT     H258641   0.768   9.439   2.438
19467WAT      O58642   3.078   5.618   6.461
19467WAT     H158643   3.090   5.525   6.497
19467WAT     H258644   3.160   5.672   6.482
19468WAT      O58645   1.340   1.718   6.318
19468WAT     H158646   1.350   1.700   6.220
19468WAT     H258647   1.430   1.720   6.361
19469WAT      O58648   4.742   4.976   3.221
19469WAT     H158649   4.836   4.942   3.215
19469WAT     H258650   4.678   4.905   3.190
19470WAT      O58651   0.635   3.755   7.976
19470WAT     H158652   0.717   3.777   7.922
19470WAT     H258653   0.652   3.672   8.029
19471WAT      O58654   6.846   6.445   4.727
19471WAT     H158655   6.826   6.362   4.777
19471WAT     H258656   6.782   6.517   4.754
19472WAT      O58657   6.303   6.791   8.560
19472WAT     H158658   6.380   6.785   8.497
19472WAT     H258659   6.318   6.728   8.637
19473WAT      O58660   9.102   4.109   3.895
19473WAT     H158661   9.193   4.120   3.936
19473WAT     H258662   9.095   4.167   3.814
19474WAT      O58663   5.474   8.364   8.327
19474WAT     H158664   5.539   8.431   8.364
19474WAT     H258665   5.504   8.271   8.352
19475WAT      O58666   0.176   8.158   1.183
19475WAT     H158667   0.210   8.101   1.257
19475WAT     H258668   0.240   8.234   1.167
19476WAT      O58669   2.155   8.575   8.993
19476WAT     H158670   2.085   8.644   8.974
19476WAT     H258671   2.169   8.567   9.091
19477WAT      O58672   4.798   4.143   2.373
19477WAT     H158673   4.732   4.070   2.391
19477WAT     H258674   4.758   4.232   2.396
19478WAT      O58675   7.325   5.765   3.611
19478WAT     H158676   7.283   5.776   3.521
19478WAT     H258677   7.254   5.772   3.682
19479WAT      O58678   4.936   1.458   5.685
19479WAT     H158679   4.995   1.511   5.745
19479WAT     H258680   4.991   1.413   5.615
19480WAT      O58681   8.917   3.460   3.783
19480WAT     H158682   8.894   3.391   3.714
19480WAT     H258683   8.899   3.551   3.746
19481WAT      O58684   1.312   7.936   1.798
19481WAT     H158685   1.378   7.973   1.864
19481WAT     H258686   1.225   7.920   1.844
19482WAT      O58687   3.724   8.568   8.092
19482WAT     H158688   3.673   8.489   8.057
19482WAT     H258689   3.660   8.637   8.125
19483WAT      O58690   7.271   1.590   5.715
19483WAT     H158691   7.345   1.658   5.714
19483WAT     H258692   7.183   1.636   5.726
19484WAT      O58693   1.685   6.977   2.510
19484WAT     H158694   1.700   7.029   2.425
19484WAT     H258695   1.587   6.964   2.524
19485WAT      O58696   1.316   2.107   6.978
19485WAT     H158697   1.371   2.117   7.061
19485WAT     H258698   1.264   2.022   6.982
19486WAT      O58699   3.954   3.173   8.573
19486WAT     H158700   3.861   3.137   8.575
19486WAT     H258701   4.012   3.118   8.634
19487WAT      O58702   1.542   0.213   4.514
19487WAT     H158703   1.519   0.235   4.609
19487WAT     H258704   1.637   0.183   4.508
19488WAT      O58705   8.655   8.201   0.141
19488WAT     H158706   8.630   8.167   0.232
19488WAT     H258707   8.603   8.283   0.121
19489WAT      O58708   6.997   1.338   7.569
19489WAT     H158709   7.087   1.378   7.586
19489WAT     H258710   6.927   1.394   7.612
19490WAT      O58711   0.889   4.685   8.251
19490WAT     H158712   0.816   4.676   8.183
19490WAT     H258713   0.853   4.727   8.334
19491WAT      O58714   0.187   1.303   4.116
19491WAT     H158715   0.161   1.390   4.157
19491WAT     H258716   0.251   1.255   4.176
19492WAT      O58717   3.128   3.496   1.376
19492WAT     H158718   3.118   3.576   1.436
19492WAT     H258719   3.209   3.508   1.318
19493WAT      O58720   8.933   2.746   5.980
19493WAT     H158721   8.955   2.815   5.910
19493WAT     H258722   9.012   2.734   6.040
19494WAT      O58723   7.239   2.918   4.932
19494WAT     H158724   7.211   2.940   5.025
19494WAT     H258725   7.187   2.974   4.867
19495WAT      O58726   4.421   3.242   7.740
19495WAT     H158727   4.355   3.191   7.795
19495WAT     H258728   4.477   3.178   7.687
19496WAT      O58729   5.169   5.215   2.576
19496WAT     H158730   5.217   5.233   2.662
19496WAT     H258731   5.236   5.201   2.503
19497WAT      O58732   7.817   6.164   7.178
19497WAT     H158733   7.913   6.137   7.166
19497WAT     H258734   7.805   6.207   7.268
19498WAT      O58735   7.693   2.680   7.473
19498WAT     H158736   7.649   2.766   7.448
19498WAT     H258737   7.772   2.665   7.413
19499WAT      O58738   6.672   0.445   0.074
19499WAT     H158739   6.635   0.532   0.109
19499WAT     H258740   6.751   0.418   0.129
19500WAT      O58741   8.897   8.555   2.335
19500WAT     H158742   8.887   8.530   2.239
19500WAT     H258743   8.987   8.529   2.367
19501WAT      O58744   1.492   8.005   1.975
19501WAT     H158745   1.468   8.003   2.072
19501WAT     H258746   1.564   7.938   1.957
19502WAT      O58747   6.799   9.816   4.665
19502WAT     H158748   6.871   9.815   4.734
19502WAT     H258749   6.802   9.903   4.615
19503WAT      O58750   6.261   1.803   5.140
19503WAT     H158751   6.199   1.864   5.189
19503WAT     H258752   6.239   1.804   5.043
19504WAT      O58753   1.103   4.787   1.002
19504WAT     H158754   1.163   4.859   0.967
19504WAT     H258755   1.048   4.824   1.077
19505WAT      O58756   4.230   5.949   6.759
19505WAT     H158757   4.218   5.951   6.858
19505WAT     H258758   4.140   5.937   6.715
19506WAT      O58759   5.944   8.997   7.145
19506WAT     H158760   5.902   8.990   7.054
19506WAT     H258761   5.922   9.086   7.185
19507WAT      O58762   1.951   9.523   2.142
19507WAT     H158763   1.922   9.569   2.226
19507WAT     H258764   2.031   9.467   2.161
19508WAT      O58765   7.202   9.442   6.955
19508WAT     H158766   7.146   9.360   6.947
19508WAT     H258767   7.156   9.519   6.912
19509WAT      O58768   0.452   4.371   3.899
19509WAT     H158769   0.493   4.390   3.810
19509WAT     H258770   0.354   4.390   3.896
19510WAT      O58771   3.121   6.366   9.203
19510WAT     H158772   3.207   6.357   9.253
19510WAT     H258773   3.132   6.435   9.131
19511WAT      O58774   1.289   0.402   1.771
19511WAT     H158775   1.276   0.425   1.868
19511WAT     H258776   1.356   0.464   1.731
19512WAT      O58777   0.448   0.167   8.780
19512WAT     H158778   0.415   0.140   8.870
19512WAT     H258779   0.420   0.261   8.761
19513WAT      O58780   2.885   7.507   2.684
19513WAT     H158781   2.881   7.603   2.656
19513WAT     H258782   2.818   7.491   2.756
19514WAT      O58783   7.327   7.123   3.994
19514WAT     H158784   7.384   7.133   4.076
19514WAT     H258785   7.249   7.186   4.001
19515WAT      O58786   4.514   4.970   6.692
19515WAT     H158787   4.489   5.023   6.610
19515WAT     H258788   4.432   4.947   6.743
19516WAT      O58789   8.745   6.647   6.486
19516WAT     H158790   8.679   6.592   6.436
19516WAT     H258791   8.757   6.735   6.441
19517WAT      O58792   0.580   2.464   6.907
19517WAT     H158793   0.512   2.438   6.838
19517WAT     H258794   0.555   2.551   6.949
19518WAT      O58795   8.866   3.122   1.098
19518WAT     H158796   8.906   3.142   1.187
19518WAT     H258797   8.933   3.076   1.041
19519WAT      O58798   0.771   2.663   0.512
19519WAT     H158799   0.677   2.656   0.480
19519WAT     H258800   0.774   2.721   0.593
19520WAT      O58801   5.970   5.336   1.881
19520WAT     H158802   6.049   5.340   1.820
19520WAT     H258803   5.933   5.243   1.882
19521WAT      O58804   5.639   7.616   2.708
19521WAT     H158805   5.647   7.552   2.785
19521WAT     H258806   5.730   7.652   2.686
19522WAT      O58807   5.123   9.735   5.836
19522WAT     H158808   5.188   9.676   5.884
19522WAT     H258809   5.037   9.738   5.888
19523WAT      O58810   2.676   0.937   1.998
19523WAT     H158811   2.605   0.879   2.038
19523WAT     H258812   2.670   0.934   1.899
19524WAT      O58813   2.882   7.278   6.277
19524WAT     H158814   2.964   7.221   6.283
19524WAT     H258815   2.854   7.287   6.182
19525WAT      O58816   0.778   5.805   7.196
19525WAT     H158817   0.849   5.808   7.125
19525WAT     H258818   0.787   5.885   7.255
19526WAT      O58819   4.355   4.470   7.408
19526WAT     H158820   4.397   4.477   7.317
19526WAT     H258821   4.338   4.562   7.444
19527WAT      O58822   6.589   2.497   2.512
19527WAT     H158823   6.563   2.401   2.512
19527WAT     H258824   6.592   2.531   2.606
19528WAT      O58825   5.770   6.883   2.692
19528WAT     H158826   5.759   6.791   2.657
19528WAT     H258827   5.860   6.893   2.733
19529WAT      O58828   2.444   2.457   6.979
19529WAT     H158829   2.521   2.520   6.970
19529WAT     H258830   2.466   2.386   7.045
19530WAT      O58831   4.743   8.154   0.125
19530WAT     H158832   4.795   8.139   0.209
19530WAT     H258833   4.660   8.098   0.127
19531WAT      O58834   7.573   0.304   1.816
19531WAT     H158835   7.612   0.305   1.908
19531WAT     H258836   7.646   0.307   1.748
19532WAT      O58837   3.985   1.723   2.731
19532WAT     H158838   4.070   1.719   2.784
19532WAT     H258839   3.977   1.812   2.687
19533WAT      O58840   1.916   8.950   8.651
19533WAT     H158841   2.000   8.969   8.701
19533WAT     H258842   1.857   8.890   8.705
19534WAT      O58843   5.963   4.785   8.953
19534WAT     H158844   5.949   4.884   8.950
19534WAT     H258845   6.003   4.760   9.041
19535WAT      O58846   1.800   4.622   5.457
19535WAT     H158847   1.797   4.684   5.379
19535WAT     H258848   1.878   4.560   5.447
19536WAT      O58849   7.600   5.891   5.591
19536WAT     H158850   7.502   5.903   5.571
19536WAT     H258851   7.626   5.953   5.665
19537WAT      O58852   1.113   7.613   8.259
19537WAT     H158853   1.026   7.569   8.236
19537WAT     H258854   1.117   7.703   8.217
19538WAT      O58855   1.491   8.967   8.460
19538WAT     H158856   1.583   9.006   8.451
19538WAT     H258857   1.430   9.013   8.395
19539WAT      O58858   5.676   6.758   5.162
19539WAT     H158859   5.658   6.803   5.250
19539WAT     H258860   5.685   6.828   5.090
19540WAT      O58861   9.197   5.730   9.727
19540WAT     H158862   9.208   5.641   9.684
19540WAT     H258863   9.121   5.779   9.684
19541WAT      O58864   7.879   6.137   6.751
19541WAT     H158865   7.941   6.123   6.828
19541WAT     H258866   7.932   6.138   6.666
19542WAT      O58867   1.555   5.327   0.852
19542WAT     H158868   1.639   5.380   0.845
19542WAT     H258869   1.576   5.236   0.887
19543WAT      O58870   9.043   5.878   2.865
19543WAT     H158871   9.052   5.839   2.957
19543WAT     H258872   9.130   5.869   2.817
19544WAT      O58873   4.168   2.650   3.414
19544WAT     H158874   4.160   2.612   3.506
19544WAT     H258875   4.094   2.716   3.399
19545WAT      O58876   7.909   4.376   7.235
19545WAT     H158877   7.976   4.424   7.178
19545WAT     H258878   7.954   4.344   7.319
19546WAT      O58879   2.010   3.726   9.314
19546WAT     H158880   2.086   3.781   9.279
19546WAT     H258881   1.997   3.744   9.412
19547WAT      O58882   0.356   5.334   7.074
19547WAT     H158883   0.412   5.322   7.156
19547WAT     H258884   0.380   5.264   7.006
19548WAT      O58885   5.912   9.079   3.294
19548WAT     H158886   5.995   9.133   3.307
19548WAT     H258887   5.900   9.060   3.196
19549WAT      O58888   4.401   0.398   3.133
19549WAT     H158889   4.477   0.430   3.190
19549WAT     H258890   4.318   0.447   3.158
19550WAT      O58891   4.955   8.931   7.857
19550WAT     H158892   5.045   8.934   7.814
19550WAT     H258893   4.901   8.858   7.816
19551WAT      O58894   9.186   6.251   5.267
19551WAT     H158895   9.264   6.234   5.208
19551WAT     H258896   9.107   6.199   5.234
19552WAT      O58897   2.649   5.867   7.835
19552WAT     H158898   2.689   5.780   7.807
19552WAT     H258899   2.580   5.895   7.769
19553WAT      O58900   3.810   6.037   0.142
19553WAT     H158901   3.826   6.065   0.237
19553WAT     H258902   3.838   6.112   0.081
19554WAT      O58903   9.531   6.814   5.949
19554WAT     H158904   9.585   6.740   5.908
19554WAT     H258905   9.530   6.803   6.048
19555WAT      O58906   2.499   6.387   7.473
19555WAT     H158907   2.437   6.465   7.486
19555WAT     H258908   2.514   6.342   7.561
19556WAT      O58909   6.543   9.502   2.155
19556WAT     H158910   6.448   9.473   2.157
19556WAT     H258911   6.573   9.512   2.060
19557WAT      O58912   0.450   7.421   0.637
19557WAT     H158913   0.411   7.461   0.719
19557WAT     H258914   0.387   7.433   0.560
19558WAT      O58915   9.700   0.955   1.545
19558WAT     H158916   9.627   0.912   1.492
19558WAT     H258917   9.739   1.031   1.494
19559WAT      O58918   0.173   8.344   8.454
19559WAT     H158919   0.179   8.439   8.482
19559WAT     H258920   0.090   8.303   8.493
19560WAT      O58921   1.801   3.898   1.487
19560WAT     H158922   1.791   3.829   1.558
19560WAT     H258923   1.883   3.952   1.503
19561WAT      O58924   9.530   6.773   7.169
19561WAT     H158925   9.492   6.837   7.235
19561WAT     H258926   9.513   6.806   7.076
19562WAT      O58927   5.543   4.579   4.743
19562WAT     H158928   5.446   4.605   4.740
19562WAT     H258929   5.597   4.659   4.769
19563WAT      O58930   7.046   6.162   0.057
19563WAT     H158931   7.061   6.064   0.072
19563WAT     H258932   6.952   6.185   0.080
19564WAT      O58933   1.930   0.010   9.490
19564WAT     H158934   1.831  -0.000   9.483
19564WAT     H258935   1.966   0.046   9.404
19565WAT      O58936   2.671   8.222   2.326
19565WAT     H158937   2.689   8.169   2.242
19565WAT     H258938   2.586   8.273   2.316
19566WAT      O58939   3.500   2.644   8.512
19566WAT     H158940   3.440   2.592   8.571
19566WAT     H258941   3.564   2.582   8.466
19567WAT      O58942   0.216   4.850   1.741
19567WAT     H158943   0.238   4.894   1.828
19567WAT     H258944   0.191   4.920   1.674
19568WAT      O58945   0.315   5.583   0.973
19568WAT     H158946   0.360   5.530   1.045
19568WAT     H258947   0.217   5.587   0.992
19569WAT      O58948   3.143   7.237   4.446
19569WAT     H158949   3.125   7.175   4.370
19569WAT     H258950   3.229   7.212   4.490
19570WAT      O58951   6.857   2.179   3.353
19570WAT     H158952   6.936   2.228   3.316
19570WAT     H258953   6.788   2.169   3.281
19571WAT      O58954   6.993   1.201   7.319
19571WAT     H158955   6.951   1.254   7.245
19571WAT     H258956   6.975   1.245   7.407
19572WAT      O58957   0.411   0.134   6.536
19572WAT     H158958   0.392   0.036   6.544
19572WAT     H258959   0.475   0.149   6.460
19573WAT      O58960   0.512   1.274   0.803
19573WAT     H158961   0.507   1.363   0.847
19573WAT     H258962   0.578   1.216   0.852
19574WAT      O58963   8.057   4.256   2.677
19574WAT     H158964   8.106   4.229   2.761
19574WAT     H258965   8.119   4.306   2.617
19575WAT      O58966   4.213   7.371   4.208
19575WAT     H158967   4.136   7.351   4.147
19575WAT     H258968   4.289   7.408   4.153
19576WAT      O58969   0.324   0.128   4.734
19576WAT     H158970   0.421   0.130   4.714
19576WAT     H258971   0.289   0.221   4.745
19577WAT      O58972   7.596   6.679   0.174
19577WAT     H158973   7.638   6.730   0.098
19577WAT     H258974   7.660   6.674   0.250
19578WAT      O58975   2.433   7.587   8.239
19578WAT     H158976   2.462   7.637   8.158
19578WAT     H258977   2.392   7.650   8.305
19579WAT      O58978   2.220   6.952   4.378
19579WAT     H158979   2.279   7.015   4.429
19579WAT     H258980   2.124   6.977   4.393
19580WAT      O58981   9.067   7.806   1.000
19580WAT     H158982   9.122   7.842   0.924
19580WAT     H258983   8.975   7.786   0.967
19581WAT      O58984   7.935   2.549   3.865
19581WAT     H158985   7.876   2.594   3.931
19581WAT     H258986   7.994   2.483   3.911
19582WAT      O58987   1.909   1.602   2.834
19582WAT     H158988   1.940   1.589   2.740
19582WAT     H258989   1.938   1.692   2.867
19583WAT      O58990   1.917   1.509   0.343
19583WAT     H158991   1.928   1.530   0.246
19583WAT     H258992   1.858   1.429   0.354
19584WAT      O58993   2.820   7.795   6.480
19584WAT     H158994   2.866   7.732   6.418
19584WAT     H258995   2.733   7.825   6.440
19585WAT      O58996   7.519   3.667   9.594
19585WAT     H158997   7.435   3.643   9.641
19585WAT     H258998   7.502   3.676   9.496
19586WAT      O58999   9.488   3.636   5.155
19586WAT     H159000   9.547   3.715   5.169
19586WAT     H259001   9.480   3.585   5.241
19587WAT      O59002   3.102   7.190   3.871
19587WAT     H159003   3.155   7.262   3.916
19587WAT     H259004   3.123   7.189   3.773
19588WAT      O59005   5.971   4.491   2.534
19588WAT     H159006   5.928   4.572   2.494
19588WAT     H259007   5.905   4.416   2.534
19589WAT      O59008   4.764   5.033   9.746
19589WAT     H159009   4.718   4.980   9.674
19589WAT     H259010   4.855   4.994   9.762
19590WAT      O59011   4.844   8.363   4.060
19590WAT     H159012   4.832   8.448   4.008
19590WAT     H259013   4.934   8.325   4.039
19591WAT      O59014   3.629   5.684   6.567
19591WAT     H159015   3.624   5.781   6.593
19591WAT     H259016   3.542   5.656   6.528
19592WAT      O59017   6.193   0.524   5.354
19592WAT     H159018   6.105   0.528   5.402
19592WAT     H259019   6.190   0.450   5.287
19593WAT      O59020   9.739   5.703   3.664
19593WAT     H159021   9.668   5.638   3.691
19593WAT     H259022   9.697   5.792   3.647
19594WAT      O59023   1.696   6.694   6.565
19594WAT     H159024   1.678   6.791   6.553
19594WAT     H259025   1.768   6.665   6.502
19595WAT      O59026   5.849   6.375   0.842
19595WAT     H159027   5.813   6.296   0.893
19595WAT     H259028   5.949   6.372   0.843
19596WAT      O59029   4.266   9.096   7.459
19596WAT     H159030   4.214   9.126   7.538
19596WAT     H259031   4.364   9.103   7.478
19597WAT      O59032   6.047   3.469   1.455
19597WAT     H159033   6.065   3.500   1.548
19597WAT     H259034   6.114   3.509   1.393
19598WAT      O59035   2.763   9.794   9.778
19598WAT     H159036   2.709   9.825   9.856
19598WAT     H259037   2.744   9.851   9.699
19599WAT      O59038   5.662   3.402   3.072
19599WAT     H159039   5.627   3.375   2.983
19599WAT     H259040   5.757   3.431   3.064
19600WAT      O59041   9.168   7.893   0.753
19600WAT     H159042   9.246   7.936   0.707
19600WAT     H259043   9.097   7.872   0.686
19601WAT      O59044   3.073   3.881   5.236
19601WAT     H159045   3.141   3.845   5.172
19601WAT     H259046   3.047   3.974   5.209
19602WAT      O59047   2.513   6.396   1.429
19602WAT     H159048   2.562   6.364   1.510
19602WAT     H259049   2.546   6.347   1.349
19603WAT      O59050   6.972   1.553   2.183
19603WAT     H159051   7.040   1.607   2.232
19603WAT     H259052   6.948   1.598   2.097
19604WAT      O59053   3.241   8.386   5.512
19604WAT     H159054   3.195   8.467   5.548
19604WAT     H259055   3.204   8.304   5.555
19605WAT      O59056   0.025   8.182   1.718
19605WAT     H159057   0.068   8.227   1.796
19605WAT     H259058  -0.010   8.251   1.655
19606WAT      O59059   6.546   0.873   4.871
19606WAT     H159060   6.473   0.938   4.893
19606WAT     H259061   6.626   0.923   4.837
19607WAT      O59062   9.148   2.717   5.288
19607WAT     H159063   9.070   2.687   5.343
19607WAT     H259064   9.115   2.753   5.201
19608WAT      O59065   0.433   3.947   7.271
19608WAT     H159066   0.461   3.864   7.224
19608WAT     H259067   0.424   3.928   7.369
19609WAT      O59068   6.442   4.801   7.208
19609WAT     H159069   6.495   4.720   7.233
19609WAT     H259070   6.493   4.883   7.233
19610WAT      O59071   5.920   0.284   2.303
19610WAT     H159072   5.884   0.376   2.316
19610WAT     H259073   5.939   0.269   2.206
19611WAT      O59074   7.253   5.103   0.608
19611WAT     H159075   7.317   5.136   0.677
19611WAT     H259076   7.202   5.025   0.644
19612WAT      O59077   1.044   3.878   9.112
19612WAT     H159078   1.059   3.947   9.184
19612WAT     H259079   1.043   3.923   9.023
19613WAT      O59080   9.297   7.007   9.160
19613WAT     H159081   9.326   7.008   9.064
19613WAT     H259082   9.328   7.090   9.205
19614WAT      O59083   6.196   0.371   4.103
19614WAT     H159084   6.134   0.340   4.031
19614WAT     H259085   6.182   0.314   4.185
19615WAT      O59086   0.039   8.317   0.143
19615WAT     H159087  -0.010   8.404   0.144
19615WAT     H259088   0.098   8.313   0.063
19616WAT      O59089   3.853   6.765   0.720
19616WAT     H159090   3.770   6.811   0.753
19616WAT     H259091   3.827   6.686   0.665
19617WAT      O59092   7.693   3.232   8.884
19617WAT     H159093   7.793   3.235   8.878
19617WAT     H259094   7.665   3.218   8.979
19618WAT      O59095   0.914   6.944   6.370
19618WAT     H159096   0.900   7.013   6.441
19618WAT     H259097   0.867   6.971   6.287
19619WAT      O59098   0.503   5.157   3.435
19619WAT     H159099   0.452   5.079   3.397
19619WAT     H259100   0.520   5.224   3.363
19620WAT      O59101   1.319   0.474   7.093
19620WAT     H159102   1.368   0.410   7.152
19620WAT     H259103   1.343   0.567   7.119
19621WAT      O59104   1.823   2.480   3.299
19621WAT     H159105   1.815   2.473   3.199
19621WAT     H259106   1.917   2.504   3.323
19622WAT      O59107   5.310   4.982   1.925
19622WAT     H159108   5.373   4.905   1.933
19622WAT     H259109   5.248   4.983   2.003
19623WAT      O59110   3.947   5.509   0.942
19623WAT     H159111   3.986   5.555   0.863
19623WAT     H259112   3.858   5.470   0.918
19624WAT      O59113   6.694   5.608   8.838
19624WAT     H159114   6.709   5.653   8.750
19624WAT     H259115   6.666   5.514   8.823
19625WAT      O59116   6.754   4.644   3.670
19625WAT     H159117   6.827   4.663   3.604
19625WAT     H259118   6.687   4.582   3.629
19626WAT      O59119   3.969   9.300   9.084
19626WAT     H159120   3.950   9.281   8.988
19626WAT     H259121   4.023   9.383   9.091
19627WAT      O59122   1.084   7.274   5.157
19627WAT     H159123   1.182   7.281   5.173
19627WAT     H259124   1.042   7.219   5.230
19628WAT      O59125   8.177   2.303   8.295
19628WAT     H159126   8.149   2.377   8.357
19628WAT     H259127   8.156   2.329   8.201
19629WAT      O59128   7.224   2.359   3.812
19629WAT     H159129   7.156   2.327   3.746
19629WAT     H259130   7.188   2.439   3.859
19630WAT      O59131   1.156   5.126   1.306
19630WAT     H159132   1.225   5.069   1.261
19630WAT     H259133   1.116   5.189   1.240
19631WAT      O59134   6.397   9.846   0.971
19631WAT     H159135   6.388   9.755   1.012
19631WAT     H259136   6.492   9.875   0.974
19632WAT      O59137   2.203   9.133   9.593
19632WAT     H159138   2.138   9.086   9.533
19632WAT     H259139   2.295   9.097   9.577
19633WAT      O59140   4.489   0.080   7.371
19633WAT     H159141   4.509   0.006   7.435
19633WAT     H259142   4.530   0.165   7.403
19634WAT      O59143   1.411   0.624   4.835
19634WAT     H159144   1.378   0.664   4.920
19634WAT     H259145   1.372   0.673   4.757
19635WAT      O59146   1.664   7.843   9.024
19635WAT     H159147   1.676   7.836   9.123
19635WAT     H259148   1.713   7.923   8.989
19636WAT      O59149   7.346   3.622   5.375
19636WAT     H159150   7.318   3.641   5.469
19636WAT     H259151   7.373   3.526   5.367
19637WAT      O59152   7.023   9.137   7.926
19637WAT     H159153   6.939   9.082   7.921
19637WAT     H259154   7.029   9.179   8.017
19638WAT      O59155   0.285   5.958   7.069
19638WAT     H159156   0.375   5.921   7.092
19638WAT     H259157   0.252   5.915   6.985
19639WAT      O59158   1.576   8.652   0.500
19639WAT     H159159   1.578   8.748   0.526
19639WAT     H259160   1.648   8.634   0.433
19640WAT      O59161   2.277   8.488   1.010
19640WAT     H159162   2.363   8.447   1.041
19640WAT     H259163   2.274   8.584   1.037
19641WAT      O59164   2.800   0.686   0.928
19641WAT     H159165   2.769   0.776   0.898
19641WAT     H259166   2.721   0.625   0.938
19642WAT      O59167   4.137   1.912   4.839
19642WAT     H159168   4.063   1.935   4.775
19642WAT     H259169   4.225   1.917   4.792
19643WAT      O59170   4.869   5.490   4.066
19643WAT     H159171   4.818   5.482   4.151
19643WAT     H259172   4.922   5.575   4.066
19644WAT      O59173   5.123   8.772   7.630
19644WAT     H159174   5.211   8.740   7.594
19644WAT     H259175   5.086   8.843   7.570
19645WAT      O59176   4.137   8.747   8.525
19645WAT     H159177   4.100   8.674   8.468
19645WAT     H259178   4.221   8.716   8.569
19646WAT      O59179   4.367   0.176   9.619
19646WAT     H159180   4.435   0.249   9.627
19646WAT     H259181   4.372   0.135   9.529
19647WAT      O59182   4.966   8.750   8.877
19647WAT     H159183   5.048   8.778   8.926
19647WAT     H259184   4.990   8.707   8.791
19648WAT      O59185   2.021   2.040   7.772
19648WAT     H159186   2.114   2.048   7.735
19648WAT     H259187   1.976   2.129   7.767
19649WAT      O59188   0.104   5.994   4.606
19649WAT     H159189   0.180   6.046   4.646
19649WAT     H259190   0.049   5.954   4.679
19650WAT      O59191   9.600   7.651   7.351
19650WAT     H159192   9.699   7.648   7.357
19650WAT     H259193   9.567   7.572   7.299
19651WAT      O59194   6.950   9.220   9.120
19651WAT     H159195   6.873   9.253   9.175
19651WAT     H259196   7.033   9.268   9.146
19652WAT      O59197   9.714   4.385   9.835
19652WAT     H159198   9.777   4.370   9.910
19652WAT     H259199   9.705   4.301   9.781
19653WAT      O59200   8.417   5.612   3.536
19653WAT     H159201   8.448   5.559   3.457
19653WAT     H259202   8.319   5.597   3.549
19654WAT      O59203   8.571   9.253   3.772
19654WAT     H159204   8.658   9.208   3.793
19654WAT     H259205   8.567   9.341   3.819
19655WAT      O59206   0.575   7.731   8.942
19655WAT     H159207   0.647   7.740   9.011
19655WAT     H259208   0.499   7.678   8.980
19656WAT      O59209   4.989   3.179   1.421
19656WAT     H159210   4.965   3.183   1.323
19656WAT     H259211   4.924   3.235   1.473
19657WAT      O59212   5.137   0.808   3.766
19657WAT     H159213   5.062   0.805   3.831
19657WAT     H259214   5.113   0.755   3.684
19658WAT      O59215   4.882   7.064   2.916
19658WAT     H159216   4.840   6.983   2.874
19658WAT     H259217   4.833   7.145   2.887
19659WAT      O59218   5.797   0.653   3.299
19659WAT     H159219   5.733   0.585   3.334
19659WAT     H259220   5.799   0.648   3.199
19660WAT      O59221   3.870   7.173   6.728
19660WAT     H159222   3.940   7.204   6.663
19660WAT     H259223   3.863   7.238   6.803
19661WAT      O59224   4.662   3.271   9.027
19661WAT     H159225   4.591   3.229   8.971
19661WAT     H259226   4.674   3.367   8.999
19662WAT      O59227   8.677   9.776   0.590
19662WAT     H159228   8.677   9.756   0.492
19662WAT     H259229   8.584   9.767   0.626
19663WAT      O59230   9.882   9.487   8.290
19663WAT     H159231   9.851   9.533   8.373
19663WAT     H259232   9.838   9.398   8.282
19664WAT      O59233   0.061   7.903   3.521
19664WAT     H159234  -0.024   7.949   3.549
19664WAT     H259235   0.102   7.953   3.445
19665WAT      O59236   6.022   3.450   9.586
19665WAT     H159237   5.952   3.520   9.593
19665WAT     H259238   6.100   3.474   9.644
19666WAT      O59239   8.243   7.948   2.448
19666WAT     H159240   8.196   8.011   2.388
19666WAT     H259241   8.192   7.940   2.534
19667WAT      O59242   5.161   6.145   4.087
19667WAT     H159243   5.158   6.116   3.991
19667WAT     H259244   5.161   6.245   4.092
19668WAT      O59245   1.163   1.393   3.891
19668WAT     H159246   1.172   1.491   3.911
19668WAT     H259247   1.170   1.378   3.793
19669WAT      O59248   9.280   5.638   6.344
19669WAT     H159249   9.220   5.577   6.396
19669WAT     H259250   9.309   5.714   6.402
19670WAT      O59251   5.025   5.721   1.610
19670WAT     H159252   5.081   5.647   1.648
19670WAT     H259253   4.948   5.738   1.670
19671WAT      O59254   9.701   2.919   5.045
19671WAT     H159255   9.756   2.957   4.971
19671WAT     H259256   9.606   2.949   5.034
19672WAT      O59257   9.252   1.561   3.606
19672WAT     H159258   9.331   1.501   3.617
19672WAT     H259259   9.197   1.558   3.689
19673WAT      O59260   5.098   7.670   3.189
19673WAT     H159261   5.064   7.748   3.137
19673WAT     H259262   5.172   7.626   3.139
19674WAT      O59263   7.703   8.577   2.684
19674WAT     H159264   7.610   8.540   2.678
19674WAT     H259265   7.745   8.545   2.769
19675WAT      O59266   3.560   5.724   5.687
19675WAT     H159267   3.522   5.816   5.678
19675WAT     H259268   3.559   5.680   5.597
19676WAT      O59269   7.238   2.908   7.871
19676WAT     H159270   7.293   2.960   7.936
19676WAT     H259271   7.293   2.882   7.792
19677WAT      O59272   4.557   8.878   8.971
19677WAT     H159273   4.579   8.909   8.879
19677WAT     H259274   4.458   8.884   8.985
19678WAT      O59275   1.513   2.907   4.817
19678WAT     H159276   1.545   2.930   4.908
19678WAT     H259277   1.570   2.952   4.748
19679WAT      O59278   3.871   5.696   3.440
19679WAT     H159279   3.923   5.669   3.359
19679WAT     H259280   3.871   5.796   3.446
19680WAT      O59281   1.964   5.126   9.436
19680WAT     H159282   2.034   5.119   9.364
19680WAT     H259283   1.899   5.198   9.412
19681WAT      O59284   6.600   0.693   4.272
19681WAT     H159285   6.501   0.691   4.262
19681WAT     H259286   6.627   0.647   4.357
19682WAT      O59287   4.806   7.223   2.353
19682WAT     H159288   4.756   7.197   2.435
19682WAT     H259289   4.904   7.221   2.371
19683WAT      O59290   0.440   1.439   2.913
19683WAT     H159291   0.416   1.451   2.817
19683WAT     H259292   0.536   1.412   2.921
19684WAT      O59293   1.010   3.940   7.975
19684WAT     H159294   1.077   3.945   8.049
19684WAT     H259295   1.045   3.987   7.894
19685WAT      O59296   3.819   9.631   3.017
19685WAT     H159297   3.724   9.660   3.021
19685WAT     H259298   3.865   9.678   2.942
19686WAT      O59299   7.207   8.547   3.600
19686WAT     H159300   7.279   8.536   3.669
19686WAT     H259301   7.167   8.638   3.609
19687WAT      O59302   3.192   4.157   1.622
19687WAT     H159303   3.161   4.158   1.718
19687WAT     H259304   3.207   4.251   1.591
19688WAT      O59305   9.017   0.077   2.433
19688WAT     H159306   9.010   0.081   2.533
19688WAT     H259307   9.112   0.092   2.406
19689WAT      O59308   9.393   3.172   9.086
19689WAT     H159309   9.400   3.163   8.986
19689WAT     H259310   9.473   3.221   9.120
19690WAT      O59311   2.624   3.529   4.372
19690WAT     H159312   2.712   3.546   4.328
19690WAT     H259313   2.551   3.530   4.303
19691WAT      O59314   6.235   4.044   1.621
19691WAT     H159315   6.175   4.119   1.651
19691WAT     H259316   6.291   4.076   1.544
19692WAT      O59317   5.006   0.420   4.022
19692WAT     H159318   5.067   0.492   4.055
19692WAT     H259319   5.010   0.417   3.922
19693WAT      O59320   3.901   3.810   5.409
19693WAT     H159321   3.886   3.721   5.452
19693WAT     H259322   3.925   3.877   5.480
19694WAT      O59323   7.923   2.750   3.379
19694WAT     H159324   7.872   2.760   3.294
19694WAT     H259325   8.012   2.709   3.360
19695WAT      O59326   9.227   2.492   0.191
19695WAT     H159327   9.250   2.581   0.230
19695WAT     H259328   9.134   2.493   0.156
19696WAT      O59329   0.825   1.500   3.547
19696WAT     H159330   0.869   1.540   3.468
19696WAT     H259331   0.753   1.561   3.580
19697WAT      O59332   4.318   5.750   8.057
19697WAT     H159333   4.410   5.788   8.055
19697WAT     H259334   4.323   5.651   8.049
19698WAT      O59335   3.946   8.479   7.364
19698WAT     H159336   4.036   8.491   7.407
19698WAT     H259337   3.958   8.451   7.269
19699WAT      O59338   1.221   5.836   1.463
19699WAT     H159339   1.186   5.825   1.556
19699WAT     H259340   1.311   5.793   1.456
19700WAT      O59341   6.993   2.954   7.791
19700WAT     H159342   7.083   2.922   7.819
19700WAT     H259343   6.947   2.998   7.868
19701WAT      O59344   1.873   1.781   1.551
19701WAT     H159345   1.924   1.802   1.635
19701WAT     H259346   1.776   1.772   1.573
19702WAT      O59347   5.568   0.264   6.182
19702WAT     H159348   5.493   0.289   6.121
19702WAT     H259349   5.548   0.177   6.227
19703WAT      O59350   2.039   7.888   4.293
19703WAT     H159351   1.952   7.908   4.337
19703WAT     H259352   2.033   7.800   4.246
19704WAT      O59353   6.615   1.053   0.327
19704WAT     H159354   6.694   1.113   0.341
19704WAT     H259355   6.594   1.048   0.230
19705WAT      O59356   1.195   2.445   4.102
19705WAT     H159357   1.162   2.527   4.055
19705WAT     H259358   1.286   2.422   4.068
19706WAT      O59359   5.735   8.739   7.600
19706WAT     H159360   5.749   8.753   7.698
19706WAT     H259361   5.680   8.656   7.585
19707WAT      O59362   0.943   2.213   1.890
19707WAT     H159363   0.890   2.297   1.889
19707WAT     H259364   1.041   2.235   1.890
19708WAT      O59365   5.811   7.118   7.118
19708WAT     H159366   5.893   7.133   7.062
19708WAT     H259367   5.835   7.119   7.215
19709WAT      O59368   1.064   1.623   6.191
19709WAT     H159369   1.044   1.691   6.121
19709WAT     H259370   1.137   1.657   6.251
19710WAT      O59371   0.851   7.003   9.732
19710WAT     H159372   0.754   7.023   9.738
19710WAT     H259373   0.869   6.943   9.654
19711WAT      O59374   7.333   9.475   4.745
19711WAT     H159375   7.358   9.425   4.828
19711WAT     H259376   7.250   9.435   4.706
19712WAT      O59377   7.506   9.229   7.454
19712WAT     H159378   7.462   9.307   7.409
19712WAT     H259379   7.442   9.189   7.520
19713WAT      O59380   0.102   0.216   4.526
19713WAT     H159381   0.114   0.255   4.435
19713WAT     H259382   0.094   0.289   4.594
19714WAT      O59383   3.803   0.048   9.063
19714WAT     H159384   3.818   0.076   8.969
19714WAT     H259385   3.861  -0.030   9.085
19715WAT      O59386   3.966   1.476   7.867
19715WAT     H159387   3.952   1.425   7.952
19715WAT     H259388   3.917   1.563   7.873
19716WAT      O59389   0.166   0.707   2.049
19716WAT     H159390   0.228   0.728   2.124
19716WAT     H259391   0.200   0.628   1.998
19717WAT      O59392   6.186   0.470   9.792
19717WAT     H159393   6.093   0.505   9.778
19717WAT     H259394   6.215   0.418   9.712
19718WAT      O59395   2.905   5.606   4.929
19718WAT     H159396   2.953   5.518   4.936
19718WAT     H259397   2.914   5.655   5.016
19719WAT      O59398   2.701   6.368   6.838
19719WAT     H159399   2.660   6.281   6.865
19719WAT     H259400   2.794   6.351   6.805
19720WAT      O59401   2.303   1.656   6.886
19720WAT     H159402   2.397   1.661   6.853
19720WAT     H259403   2.240   1.673   6.810
19721WAT      O59404   3.065   6.538   4.703
19721WAT     H159405   2.993   6.514   4.638
19721WAT     H259406   3.071   6.467   4.773
19722WAT      O59407   0.785   5.364   0.902
19722WAT     H159408   0.797   5.413   0.989
19722WAT     H259409   0.739   5.424   0.836
19723WAT      O59410   6.018   4.527   2.810
19723WAT     H159411   6.001   4.520   2.712
19723WAT     H259412   5.982   4.446   2.856
19724WAT      O59413   6.695   3.807   3.811
19724WAT     H159414   6.712   3.768   3.720
19724WAT     H259415   6.762   3.770   3.875
19725WAT      O59416   4.138   1.668   9.529
19725WAT     H159417   4.146   1.629   9.437
19725WAT     H259418   4.160   1.765   9.526
19726WAT      O59419   0.110   1.235   7.407
19726WAT     H159420   0.182   1.170   7.434
19726WAT     H259421   0.024   1.186   7.396
19727WAT      O59422   2.400   1.338   1.115
19727WAT     H159423   2.398   1.434   1.141
19727WAT     H259424   2.308   1.299   1.122
19728WAT      O59425   1.912   2.757   3.780
19728WAT     H159426   1.958   2.845   3.793
19728WAT     H259427   1.978   2.682   3.791
19729WAT      O59428   4.503   4.379   7.985
19729WAT     H159429   4.404   4.362   7.987
19729WAT     H259430   4.522   4.449   7.915
19730WAT      O59431   0.609   4.380   8.555
19730WAT     H159432   0.511   4.378   8.573
19730WAT     H259433   0.652   4.300   8.597
19731WAT      O59434   1.799   3.918   1.781
19731WAT     H159435   1.758   3.838   1.737
19731WAT     H259436   1.767   3.924   1.875
19732WAT      O59437   8.972   2.734   4.732
19732WAT     H159438   8.975   2.728   4.633
19732WAT     H259439   9.042   2.674   4.771
19733WAT      O59440   5.983   8.994   3.693
19733WAT     H159441   5.988   8.915   3.632
19733WAT     H259442   5.897   8.990   3.745
19734WAT      O59443   3.861   8.647   8.940
19734WAT     H159444   3.762   8.653   8.954
19734WAT     H259445   3.900   8.739   8.940
19735WAT      O59446   7.963   3.187   8.948
19735WAT     H159447   8.034   3.179   8.877
19735WAT     H259448   7.987   3.262   9.010
19736WAT      O59449   8.836   4.243   6.214
19736WAT     H159450   8.748   4.289   6.215
19736WAT     H259451   8.843   4.181   6.293
19737WAT      O59452   8.087   4.326   5.021
19737WAT     H159453   8.009   4.266   5.036
19737WAT     H259454   8.116   4.320   4.925
19738WAT      O59455   6.716   3.977   2.130
19738WAT     H159456   6.662   3.957   2.048
19738WAT     H259457   6.657   4.013   2.202
19739WAT      O59458   3.351   6.596   3.174
19739WAT     H159459   3.342   6.681   3.123
19739WAT     H259460   3.432   6.601   3.233
19740WAT      O59461   5.964   9.364   8.724
19740WAT     H159462   5.922   9.389   8.637
19740WAT     H259463   6.063   9.367   8.716
19741WAT      O59464   3.679   8.498   0.689
19741WAT     H159465   3.769   8.532   0.715
19741WAT     H259466   3.628   8.471   0.770
19742WAT      O59467   4.118   7.793   1.775
19742WAT     H159468   4.023   7.761   1.767
19742WAT     H259469   4.180   7.717   1.756
19743WAT      O59470   8.294   2.230   3.278
19743WAT     H159471   8.373   2.169   3.289
19743WAT     H259472   8.308   2.312   3.333
19744WAT      O59473   8.963   4.140   0.183
19744WAT     H159474   8.947   4.152   0.085
19744WAT     H259475   9.012   4.055   0.199
19745WAT      O59476   8.716   9.496   8.031
19745WAT     H159477   8.664   9.558   7.971
19745WAT     H259478   8.676   9.405   8.026
19746WAT      O59479   3.617   0.840   4.376
19746WAT     H159480   3.715   0.863   4.379
19746WAT     H259481   3.576   0.860   4.465
19747WAT      O59482   3.286   0.361   5.477
19747WAT     H159483   3.247   0.449   5.449
19747WAT     H259484   3.360   0.377   5.543
19748WAT      O59485   1.757   2.181   5.438
19748WAT     H159486   1.717   2.259   5.487
19748WAT     H259487   1.689   2.142   5.377
19749WAT      O59488   5.598   7.832   8.378
19749WAT     H159489   5.545   7.911   8.407
19749WAT     H259490   5.543   7.777   8.314
19750WAT      O59491   1.931   8.478   8.668
19750WAT     H159492   1.913   8.458   8.572
19750WAT     H259493   2.029   8.468   8.687
19751WAT      O59494   8.681   6.371   3.647
19751WAT     H159495   8.754   6.383   3.714
19751WAT     H259496   8.696   6.287   3.596
19752WAT      O59497   4.326   2.708   5.397
19752WAT     H159498   4.425   2.700   5.413
19752WAT     H259499   4.285   2.760   5.471
19753WAT      O59500   0.957   1.964   7.733
19753WAT     H159501   0.927   1.908   7.810
19753WAT     H259502   0.971   1.906   7.653
19754WAT      O59503   6.366   6.534   0.736
19754WAT     H159504   6.331   6.534   0.830
19754WAT     H259505   6.318   6.604   0.683
19755WAT      O59506   6.923   4.613   9.207
19755WAT     H159507   7.016   4.627   9.171
19755WAT     H259508   6.924   4.624   9.306
19756WAT      O59509   0.285   5.062   9.590
19756WAT     H159510   0.206   5.105   9.634
19756WAT     H259511   0.323   4.992   9.650
19757WAT      O59512   4.081   6.242   2.159
19757WAT     H159513   3.992   6.283   2.177
19757WAT     H259514   4.133   6.300   2.096
19758WAT      O59515   3.894   3.624   2.858
19758WAT     H159516   3.847   3.597   2.774
19758WAT     H259517   3.990   3.596   2.852
19759WAT      O59518   2.026   8.353   2.894
19759WAT     H159519   2.071   8.432   2.936
19759WAT     H259520   2.065   8.335   2.804
19760WAT      O59521   7.199   6.295   9.539
19760WAT     H159522   7.228   6.275   9.445
19760WAT     H259523   7.112   6.250   9.557
19761WAT      O59524   6.970   7.861   4.342
19761WAT     H159525   6.909   7.928   4.299
19761WAT     H259526   7.064   7.896   4.339
19762WAT      O59527   5.634   3.235   2.803
19762WAT     H159528   5.725   3.261   2.771
19762WAT     H259529   5.589   3.180   2.733
19763WAT      O59530   5.902   2.895   9.659
19763WAT     H159531   5.945   2.866   9.745
19763WAT     H259532   5.947   2.978   9.626
19764WAT      O59533   0.990   3.131   4.280
19764WAT     H159534   0.929   3.087   4.214
19764WAT     H259535   0.999   3.073   4.361
19765WAT      O59536   3.081   3.669   9.770
19765WAT     H159537   3.173   3.649   9.734
19765WAT     H259538   3.054   3.598   9.835
19766WAT      O59539   6.926   5.830   7.091
19766WAT     H159540   6.940   5.923   7.124
19766WAT     H259541   7.007   5.775   7.112
19767WAT      O59542   6.023   0.253   9.605
19767WAT     H159543   5.967   0.321   9.651
19767WAT     H259544   6.117   0.288   9.596
19768WAT      O59545   7.900   3.857   5.654
19768WAT     H159546   7.844   3.903   5.723
19768WAT     H259547   7.970   3.802   5.700
19769WAT      O59548   5.397   8.819   6.175
19769WAT     H159549   5.315   8.762   6.164
19769WAT     H259550   5.470   8.784   6.117
19770WAT      O59551   3.981   1.274   4.807
19770WAT     H159552   4.008   1.367   4.832
19770WAT     H259553   3.883   1.272   4.787
19771WAT      O59554   1.193   9.002   6.168
19771WAT     H159555   1.117   8.945   6.199
19771WAT     H259556   1.184   9.093   6.208
19772WAT      O59557   9.688   9.561   6.497
19772WAT     H159558   9.656   9.467   6.506
19772WAT     H259559   9.734   9.588   6.582
19773WAT      O59560   8.189   3.128   7.461
19773WAT     H159561   8.178   3.096   7.555
19773WAT     H259562   8.113   3.095   7.405
19774WAT      O59563   1.110   8.916   8.199
19774WAT     H159564   1.065   8.933   8.111
19774WAT     H259565   1.155   8.827   8.196
19775WAT      O59566   2.609   3.497   7.128
19775WAT     H159567   2.625   3.589   7.092
19775WAT     H259568   2.553   3.502   7.211
19776WAT      O59569   7.346   3.514   9.736
19776WAT     H159570   7.249   3.520   9.758
19776WAT     H259571   7.397   3.483   9.817
19777WAT      O59572   3.659   1.776   7.927
19777WAT     H159573   3.651   1.702   7.994
19777WAT     H259574   3.567   1.804   7.899
19778WAT      O59575   2.054   8.949   1.964
19778WAT     H159576   2.049   8.963   1.865
19778WAT     H259577   2.008   9.025   2.010
19779WAT      O59578   0.206   1.085   7.865
19779WAT     H159579   0.122   1.071   7.813
19779WAT     H259580   0.251   1.169   7.835
19780WAT      O59581   0.174   3.980   3.372
19780WAT     H159582   0.128   3.891   3.371
19780WAT     H259583   0.112   4.050   3.406
19781WAT      O59584   0.193   7.531   0.046
19781WAT     H159585   0.211   7.434   0.027
19781WAT     H259586   0.257   7.563   0.116
19782WAT      O59587   2.786   2.372   2.156
19782WAT     H159588   2.881   2.367   2.187
19782WAT     H259589   2.744   2.281   2.165
19783WAT      O59590   9.602   7.806   0.703
19783WAT     H159591   9.617   7.816   0.802
19783WAT     H259592   9.638   7.886   0.655
19784WAT      O59593   9.021   4.092   1.820
19784WAT     H159594   9.015   3.995   1.796
19784WAT     H259595   9.034   4.101   1.919
19785WAT      O59596   7.259   6.058   3.722
19785WAT     H159597   7.177   6.113   3.737
19785WAT     H259598   7.247   6.001   3.641
19786WAT      O59599   4.983   2.847   5.648
19786WAT     H159600   4.922   2.871   5.724
19786WAT     H259601   4.958   2.899   5.567
19787WAT      O59602   0.295   3.781   3.886
19787WAT     H159603   0.269   3.699   3.937
19787WAT     H259604   0.394   3.784   3.876
19788WAT      O59605   2.497   5.913   7.614
19788WAT     H159606   2.508   5.992   7.553
19788WAT     H259607   2.442   5.844   7.569
19789WAT      O59608   0.465   5.232   0.215
19789WAT     H159609   0.425   5.277   0.135
19789WAT     H259610   0.538   5.289   0.252
19790WAT      O59611   9.635   5.944   6.599
19790WAT     H159612   9.585   5.953   6.512
19790WAT     H259613   9.583   5.987   6.672
19791WAT      O59614   9.873   8.599   8.715
19791WAT     H159615   9.956   8.567   8.669
19791WAT     H259616   9.793   8.570   8.663
19792WAT      O59617   9.543   5.788   5.874
19792WAT     H159618   9.501   5.871   5.835
19792WAT     H259619   9.487   5.709   5.852
19793WAT      O59620   1.591   0.953   8.631
19793WAT     H159621   1.555   0.991   8.716
19793WAT     H259622   1.676   1.000   8.606
19794WAT      O59623   8.910   4.478   2.044
19794WAT     H159624   8.996   4.516   2.012
19794WAT     H259625   8.882   4.403   1.984
19795WAT      O59626   3.113   2.161   7.771
19795WAT     H159627   3.143   2.248   7.733
19795WAT     H259628   3.081   2.101   7.698
19796WAT      O59629   2.542   1.608   9.453
19796WAT     H159630   2.625   1.625   9.507
19796WAT     H259631   2.522   1.510   9.453
19797WAT      O59632   7.146   0.403   1.084
19797WAT     H159633   7.067   0.344   1.094
19797WAT     H259634   7.172   0.441   1.173
19798WAT      O59635   9.009   8.923   3.343
19798WAT     H159636   9.044   8.953   3.432
19798WAT     H259637   9.044   8.985   3.272
19799WAT      O59638   7.309   6.181   0.099
19799WAT     H159639   7.358   6.238   0.033
19799WAT     H259640   7.213   6.175   0.074
19800WAT      O59641   1.790   3.681   2.188
19800WAT     H159642   1.770   3.755   2.122
19800WAT     H259643   1.875   3.636   2.162
19801WAT      O59644   8.142   8.139   2.849
19801WAT     H159645   8.233   8.178   2.832
19801WAT     H259646   8.072   8.201   2.813
19802WAT      O59647   3.808   6.013   2.558
19802WAT     H159648   3.887   5.953   2.567
19802WAT     H259649   3.724   5.962   2.580
19803WAT      O59650   1.051   1.925   0.583
19803WAT     H159651   1.095   1.842   0.618
19803WAT     H259652   1.121   1.990   0.553
19804WAT      O59653   1.551   9.693   4.822
19804WAT     H159654   1.491   9.614   4.835
19804WAT     H259655   1.641   9.662   4.793
19805WAT      O59656   0.246   0.385   9.857
19805WAT     H159657   0.199   0.354   9.774
19805WAT     H259658   0.179   0.410   9.926
19806WAT      O59659   1.698   1.262   6.372
19806WAT     H159660   1.682   1.357   6.398
19806WAT     H259661   1.687   1.252   6.273
19807WAT      O59662   2.339   4.193   9.110
19807WAT     H159663   2.240   4.178   9.110
19807WAT     H259664   2.386   4.105   9.119
19808WAT      O59665   7.196   0.540   8.943
19808WAT     H159666   7.098   0.524   8.937
19808WAT     H259667   7.223   0.610   8.876
19809WAT      O59668   8.499   4.222   4.352
19809WAT     H159669   8.497   4.125   4.376
19809WAT     H259670   8.412   4.248   4.310
19810WAT      O59671   7.243   0.800   5.307
19810WAT     H159672   7.254   0.898   5.290
19810WAT     H259673   7.153   0.771   5.274
19811WAT      O59674   4.631   5.683   0.333
19811WAT     H159675   4.710   5.700   0.274
19811WAT     H259676   4.653   5.614   0.401
19812WAT      O59677   8.260   9.391   3.377
19812WAT     H159678   8.240   9.488   3.386
19812WAT     H259679   8.326   9.364   3.447
19813WAT      O59680   9.653   3.169   2.264
19813WAT     H159681   9.556   3.152   2.284
19813WAT     H259682   9.664   3.263   2.232
19814WAT      O59683   4.521   9.618   4.640
19814WAT     H159684   4.503   9.536   4.695
19814WAT     H259685   4.588   9.596   4.569
19815WAT      O59686   1.447   3.633   0.578
19815WAT     H159687   1.478   3.580   0.657
19815WAT     H259688   1.351   3.611   0.559
19816WAT      O59689   0.286   1.736   1.849
19816WAT     H159690   0.189   1.724   1.830
19816WAT     H259691   0.298   1.813   1.912
19817WAT      O59692   7.624   8.503   3.402
19817WAT     H159693   7.659   8.418   3.441
19817WAT     H259694   7.681   8.580   3.431
19818WAT      O59695   8.691   2.645   4.846
19818WAT     H159696   8.678   2.682   4.938
19818WAT     H259697   8.763   2.695   4.800
19819WAT      O59698   7.626   6.057   0.212
19819WAT     H159699   7.566   6.137   0.214
19819WAT     H259700   7.700   6.074   0.147
19820WAT      O59701   7.270   2.096   0.250
19820WAT     H159702   7.176   2.090   0.282
19820WAT     H259703   7.322   2.016   0.280
19821WAT      O59704   0.664   2.661   4.571
19821WAT     H159705   0.758   2.656   4.539
19821WAT     H259706   0.662   2.672   4.670
19822WAT      O59707   7.133   0.554   2.515
19822WAT     H159708   7.199   0.479   2.520
19822WAT     H259709   7.113   0.575   2.419
19823WAT      O59710   4.852   5.357   1.628
19823WAT     H159711   4.865   5.264   1.664
19823WAT     H259712   4.839   5.353   1.529
19824WAT      O59713   6.498   2.395   8.031
19824WAT     H159714   6.534   2.486   8.049
19824WAT     H259715   6.569   2.338   7.989
19825WAT      O59716   6.530   9.535   8.622
19825WAT     H159717   6.488   9.493   8.541
19825WAT     H259718   6.616   9.578   8.596
19826WAT      O59719   0.869   7.664   7.618
19826WAT     H159720   0.864   7.657   7.717
19826WAT     H259721   0.919   7.585   7.582
19827WAT      O59722   4.538   7.549   0.009
19827WAT     H159723   4.607   7.485   0.044
19827WAT     H259724   4.542   7.634   0.061
19828WAT      O59725   5.182   7.622   1.270
19828WAT     H159726   5.083   7.628   1.259
19828WAT     H259727   5.204   7.606   1.366
19829WAT      O59728   1.592   0.161   1.630
19829WAT     H159729   1.628   0.150   1.723
19829WAT     H259730   1.492   0.159   1.633
19830WAT      O59731   8.475   7.138   3.410
19830WAT     H159732   8.454   7.216   3.469
19830WAT     H259733   8.415   7.138   3.330
19831WAT      O59734   7.651   5.222   7.630
19831WAT     H159735   7.723   5.153   7.635
19831WAT     H259736   7.624   5.250   7.722
19832WAT      O59737   1.147   1.067   4.973
19832WAT     H159738   1.085   1.003   4.927
19832WAT     H259739   1.190   1.022   5.051
19833WAT      O59740   1.067   9.776   4.816
19833WAT     H159741   0.987   9.826   4.849
19833WAT     H259742   1.132   9.841   4.776
19834WAT      O59743   7.340   0.180   3.662
19834WAT     H159744   7.314   0.144   3.573
19834WAT     H259745   7.398   0.260   3.650
19835WAT      O59746   7.055   2.464   1.522
19835WAT     H159747   7.011   2.378   1.496
19835WAT     H259748   7.002   2.541   1.485
19836WAT      O59749   5.144   1.905   9.171
19836WAT     H159750   5.057   1.878   9.128
19836WAT     H259751   5.125   1.957   9.254
19837WAT      O59752   7.583   1.140   7.045
19837WAT     H159753   7.601   1.213   7.111
19837WAT     H259754   7.527   1.070   7.088
19838WAT      O59755   5.491   6.638   2.283
19838WAT     H159756   5.458   6.728   2.253
19838WAT     H259757   5.489   6.574   2.207
19839WAT      O59758   2.056   8.833   0.013
19839WAT     H159759   1.969   8.873   0.041
19839WAT     H259760   2.060   8.826  -0.087
19840WAT      O59761   0.890   4.615   3.137
19840WAT     H159762   0.943   4.697   3.114
19840WAT     H259763   0.793   4.634   3.127
19841WAT      O59764   2.863   4.814   8.481
19841WAT     H159765   2.916   4.849   8.558
19841WAT     H259766   2.924   4.768   8.416
19842WAT      O59767   1.947   5.743   9.515
19842WAT     H159768   1.958   5.692   9.600
19842WAT     H259769   2.011   5.820   9.514
19843WAT      O59770   9.803   6.992   3.244
19843WAT     H159771   9.714   6.968   3.205
19843WAT     H259772   9.875   6.939   3.198
19844WAT      O59773   9.885   1.815   7.192
19844WAT     H159774   9.870   1.866   7.277
19844WAT     H259775   9.819   1.846   7.123
19845WAT      O59776   9.091   5.638   5.713
19845WAT     H159777   9.021   5.694   5.757
19845WAT     H259778   9.049   5.575   5.648
19846WAT      O59779   5.082   4.857   2.169
19846WAT     H159780   5.128   4.774   2.136
19846WAT     H259781   5.140   4.901   2.238
19847WAT      O59782   3.505   0.614   0.991
19847WAT     H159783   3.523   0.569   0.903
19847WAT     H259784   3.460   0.701   0.975
19848WAT      O59785   7.384   7.163   7.029
19848WAT     H159786   7.358   7.142   7.123
19848WAT     H259787   7.307   7.143   6.968
19849WAT      O59788   1.147   3.912   3.540
19849WAT     H159789   1.109   3.955   3.622
19849WAT     H259790   1.192   3.982   3.484
19850WAT      O59791   7.566   7.103   6.171
19850WAT     H159792   7.539   7.008   6.154
19850WAT     H259793   7.511   7.140   6.246
19851WAT      O59794   1.432   9.552   5.609
19851WAT     H159795   1.499   9.609   5.562
19851WAT     H259796   1.411   9.591   5.699
19852WAT      O59797   2.858   6.535   2.413
19852WAT     H159798   2.812   6.557   2.499
19852WAT     H259799   2.886   6.439   2.412
19853WAT      O59800   2.862   7.057   8.648
19853WAT     H159801   2.824   7.068   8.556
19853WAT     H259802   2.791   7.024   8.710
19854WAT      O59803   8.741   1.439   3.187
19854WAT     H159804   8.758   1.498   3.267
19854WAT     H259805   8.733   1.344   3.218
19855WAT      O59806   7.023   3.135   2.876
19855WAT     H159807   6.989   3.119   2.969
19855WAT     H259808   6.970   3.209   2.834
19856WAT      O59809   5.472   5.308   9.785
19856WAT     H159810   5.418   5.360   9.852
19856WAT     H259811   5.556   5.276   9.829
19857WAT      O59812   8.692   1.577   2.317
19857WAT     H159813   8.749   1.500   2.345
19857WAT     H259814   8.695   1.587   2.218
19858WAT      O59815   2.514   5.713   8.765
19858WAT     H159816   2.607   5.727   8.731
19858WAT     H259817   2.481   5.624   8.735
19859WAT      O59818   6.166   7.239   4.374
19859WAT     H159819   6.223   7.220   4.454
19859WAT     H259820   6.080   7.189   4.382
19860WAT      O59821   9.727   1.048   3.805
19860WAT     H159822   9.793   1.118   3.777
19860WAT     H259823   9.701   0.993   3.725
19861WAT      O59824   0.562   5.216   4.943
19861WAT     H159825   0.581   5.136   4.886
19861WAT     H259826   0.496   5.274   4.895
19862WAT      O59827   0.076   7.778   1.509
19862WAT     H159828   0.028   7.700   1.470
19862WAT     H259829   0.146   7.745   1.573
19863WAT      O59830   3.018   6.663   0.219
19863WAT     H159831   2.959   6.662   0.299
19863WAT     H259832   2.963   6.680   0.137
19864WAT      O59833   4.786   1.918   5.182
19864WAT     H159834   4.854   1.990   5.165
19864WAT     H259835   4.752   1.883   5.095
19865WAT      O59836   5.432   2.998   9.420
19865WAT     H159837   5.381   3.017   9.336
19865WAT     H259838   5.512   3.058   9.424
19866WAT      O59839   0.445   4.533   8.285
19866WAT     H159840   0.398   4.450   8.317
19866WAT     H259841   0.525   4.508   8.232
19867WAT      O59842   9.418   6.263   7.453
19867WAT     H159843   9.433   6.185   7.513
19867WAT     H259844   9.437   6.348   7.503
19868WAT      O59845   1.276   9.147   0.110
19868WAT     H159846   1.236   9.123   0.199
19868WAT     H259847   1.206   9.139   0.039
19869WAT      O59848   9.431   5.585   2.818
19869WAT     H159849   9.477   5.503   2.783
19869WAT     H259850   9.385   5.563   2.905
19870WAT      O59851   4.521   7.240   1.318
19870WAT     H159852   4.488   7.180   1.245
19870WAT     H259853   4.555   7.184   1.394
19871WAT      O59854   0.510   5.154   8.088
19871WAT     H159855   0.527   5.224   8.158
19871WAT     H259856   0.429   5.101   8.113
19872WAT      O59857   7.652   2.523   0.529
19872WAT     H159858   7.592   2.511   0.608
19872WAT     H259859   7.730   2.461   0.537
19873WAT      O59860   9.274   1.996   6.648
19873WAT     H159861   9.231   1.933   6.712
19873WAT     H259862   9.286   2.085   6.692
19874WAT      O59863   4.397   2.603   0.543
19874WAT     H159864   4.428   2.628   0.451
19874WAT     H259865   4.370   2.507   0.543
19875WAT      O59866   0.590   0.418   7.999
19875WAT     H159867   0.607   0.426   7.901
19875WAT     H259868   0.677   0.412   8.048
19876WAT      O59869   8.561   7.641   4.088
19876WAT     H159870   8.520   7.702   4.155
19876WAT     H259871   8.641   7.684   4.048
19877WAT      O59872   5.273   5.005   4.876
19877WAT     H159873   5.359   4.957   4.857
19877WAT     H259874   5.197   4.957   4.833
19878WAT      O59875   4.324   2.036   3.259
19878WAT     H159876   4.251   2.009   3.322
19878WAT     H259877   4.290   2.106   3.196
19879WAT      O59878   5.358   3.061   8.045
19879WAT     H159879   5.450   3.049   8.083
19879WAT     H259880   5.365   3.097   7.952
19880WAT      O59881   3.160   1.204   5.670
19880WAT     H159882   3.213   1.185   5.587
19880WAT     H259883   3.207   1.167   5.749
19881WAT      O59884   5.281   2.496   6.102
19881WAT     H159885   5.219   2.439   6.048
19881WAT     H259886   5.311   2.574   6.048
19882WAT      O59887   9.613   2.486   5.065
19882WAT     H159888   9.566   2.569   5.094
19882WAT     H259889   9.633   2.492   4.967
19883WAT      O59890   2.763   3.935   5.550
19883WAT     H159891   2.762   3.997   5.472
19883WAT     H259892   2.772   3.841   5.519
19884WAT      O59893   2.395   3.256   6.547
19884WAT     H159894   2.379   3.334   6.487
19884WAT     H259895   2.321   3.249   6.613
19885WAT      O59896   0.457   5.652   5.117
19885WAT     H159897   0.434   5.750   5.114
19885WAT     H259898   0.502   5.626   5.032
19886WAT      O59899   5.667   7.669   1.111
19886WAT     H159900   5.760   7.684   1.143
19886WAT     H259901   5.658   7.575   1.078
19887WAT      O59902   9.442   0.548   8.868
19887WAT     H159903   9.352   0.554   8.912
19887WAT     H259904   9.437   0.588   8.776
19888WAT      O59905   0.635   3.789   2.423
19888WAT     H159906   0.583   3.791   2.338
19888WAT     H259907   0.703   3.863   2.422
19889WAT      O59908   8.827   0.703   1.571
19889WAT     H159909   8.749   0.651   1.606
19889WAT     H259910   8.842   0.680   1.475
19890WAT      O59911   3.601   8.773   8.179
19890WAT     H159912   3.523   8.822   8.141
19890WAT     H259913   3.656   8.835   8.235
19891WAT      O59914   3.212   0.670   2.282
19891WAT     H159915   3.160   0.660   2.366
19891WAT     H259916   3.298   0.619   2.289
19892WAT      O59917   6.430   3.207   7.207
19892WAT     H159918   6.392   3.128   7.256
19892WAT     H259919   6.474   3.268   7.272
19893WAT      O59920   2.412   5.101   4.006
19893WAT     H159921   2.402   5.009   3.968
19893WAT     H259922   2.367   5.105   4.096
19894WAT      O59923   1.633   6.079   9.677
19894WAT     H159924   1.562   6.135   9.635
19894WAT     H259925   1.721   6.097   9.632
19895WAT      O59926   9.402   7.710   8.028
19895WAT     H159927   9.388   7.774   7.952
19895WAT     H259928   9.447   7.628   7.994
19896WAT      O59929   2.953   8.323   6.470
19896WAT     H159930   3.015   8.342   6.394
19896WAT     H259931   2.997   8.260   6.534
19897WAT      O59932   6.204   5.809   3.795
19897WAT     H159933   6.180   5.724   3.841
19897WAT     H259934   6.283   5.851   3.841
19898WAT      O59935   6.018   6.803   1.281
19898WAT     H159936   6.024   6.755   1.369
19898WAT     H259937   6.066   6.890   1.287
19899WAT      O59938   5.304   5.393   0.336
19899WAT     H159939   5.354   5.307   0.329
19899WAT     H259940   5.226   5.381   0.398
19900WAT      O59941   2.319   4.040   3.613
19900WAT     H159942   2.394   4.053   3.548
19900WAT     H259943   2.283   4.129   3.640
19901WAT      O59944   2.956   5.683   8.036
19901WAT     H159945   2.966   5.668   7.937
19901WAT     H259946   2.903   5.766   8.052
19902WAT      O59947   7.259   3.935   7.715
19902WAT     H159948   7.179   3.913   7.771
19902WAT     H259949   7.265   4.035   7.703
19903WAT      O59950   2.851   1.717   1.254
19903WAT     H159951   2.853   1.817   1.254
19903WAT     H259952   2.943   1.681   1.241
19904WAT      O59953   7.123   1.965   8.842
19904WAT     H159954   7.031   2.000   8.827
19904WAT     H259955   7.156   1.921   8.758
19905WAT      O59956   8.187   3.691   3.454
19905WAT     H159957   8.275   3.651   3.430
19905WAT     H259958   8.202   3.781   3.495
19906WAT      O59959   0.017   1.850   5.541
19906WAT     H159960   0.078   1.796   5.484
19906WAT     H259961   0.042   1.947   5.535
19907WAT      O59962   9.808   6.936   0.299
19907WAT     H159963   9.820   7.002   0.373
19907WAT     H259964   9.826   6.844   0.334
19908WAT      O59965   4.403   2.563   0.979
19908WAT     H159966   4.319   2.509   0.984
19908WAT     H259967   4.470   2.527   1.045
19909WAT      O59968   7.406   7.972   6.815
19909WAT     H159969   7.411   8.063   6.772
19909WAT     H259970   7.333   7.919   6.772
19910WAT      O59971   2.629   8.804   5.436
19910WAT     H159972   2.563   8.748   5.386
19910WAT     H259973   2.674   8.868   5.374
19911WAT      O59974   1.520   3.821   2.481
19911WAT     H159975   1.551   3.731   2.510
19911WAT     H259976   1.429   3.839   2.517
19912WAT      O59977   4.831   6.720   8.950
19912WAT     H159978   4.739   6.693   8.922
19912WAT     H259979   4.837   6.820   8.952
19913WAT      O59980   7.358   6.428   9.804
19913WAT     H159981   7.283   6.486   9.839
19913WAT     H259982   7.433   6.428   9.870
19914WAT      O59983   5.075   0.322   9.730
19914WAT     H159984   5.149   0.358   9.674
19914WAT     H259985   5.002   0.287   9.671
19915WAT      O59986   3.421   4.032   3.196
19915WAT     H159987   3.520   4.050   3.190
19915WAT     H259988   3.405   3.959   3.263
19916WAT      O59989   6.632   1.217   9.100
19916WAT     H159990   6.731   1.212   9.093
19916WAT     H259991   6.606   1.297   9.154
19917WAT      O59992   2.674   8.171   6.961
19917WAT     H159993   2.743   8.121   7.013
19917WAT     H259994   2.712   8.199   6.873
19918WAT      O59995   6.950   7.288   7.700
19918WAT     H159996   7.003   7.269   7.783
19918WAT     H259997   6.853   7.278   7.720
19919WAT      O59998   1.736   3.368   8.198
19919WAT     H159999   1.767   3.377   8.103
19919WAT     H260000   1.812   3.341   8.256
19920WAT      O60001   4.084   3.019   4.351
19920WAT     H160002   3.996   3.012   4.398
19920WAT     H260003   4.086   3.103   4.296
19921WAT      O60004   7.770   1.196   4.361
19921WAT     H160005   7.813   1.107   4.378
19921WAT     H260006   7.678   1.182   4.326
19922WAT      O60007   4.060   7.320   9.718
19922WAT     H160008   4.053   7.291   9.622
19922WAT     H260009   4.068   7.419   9.722
19923WAT      O60010   1.596   4.970   0.128
19923WAT     H160011   1.688   4.968   0.168
19923WAT     H260012   1.549   5.053   0.157
19924WAT      O60013   4.927   2.550   7.379
19924WAT     H160014   4.838   2.540   7.334
19924WAT     H260015   4.915   2.544   7.478
19925WAT      O60016   7.653   6.047   1.961
19925WAT     H160017   7.606   5.972   1.914
19925WAT     H260018   7.751   6.025   1.970
19926WAT      O60019   0.329   1.894   6.866
19926WAT     H160020   0.277   1.966   6.911
19926WAT     H260021   0.314   1.807   6.913
19927WAT      O60022   6.529   0.778   3.027
19927WAT     H160023   6.546   0.833   2.945
19927WAT     H260024   6.431   0.782   3.050
19928WAT      O60025   9.454   3.434   1.909
19928WAT     H160026   9.537   3.476   1.872
19928WAT     H260027   9.383   3.503   1.919
19929WAT      O60028   8.301   0.652   9.389
19929WAT     H160029   8.256   0.709   9.321
19929WAT     H260030   8.246   0.569   9.404
19930WAT      O60031   8.101   8.220   3.637
19930WAT     H160032   8.108   8.292   3.568
19930WAT     H260033   8.065   8.259   3.721
19931WAT      O60034   4.148   0.640   9.017
19931WAT     H160035   4.205   0.697   9.075
19931WAT     H260036   4.105   0.696   8.946
19932WAT      O60037   6.472   6.512   6.079
19932WAT     H160038   6.418   6.501   5.995
19932WAT     H260039   6.480   6.424   6.126
19933WAT      O60040   9.777   1.808   5.778
19933WAT     H160041   9.847   1.806   5.707
19933WAT     H260042   9.820   1.797   5.868
19934WAT      O60043   1.163   6.073   1.323
19934WAT     H160044   1.172   6.002   1.393
19934WAT     H260045   1.212   6.044   1.241
19935WAT      O60046   4.185   5.841   2.419
19935WAT     H160047   4.120   5.909   2.385
19935WAT     H260048   4.151   5.749   2.397
19936WAT      O60049   4.245   6.725   8.333
19936WAT     H160050   4.243   6.700   8.236
19936WAT     H260051   4.338   6.719   8.367
19937WAT      O60052   5.940   2.041   7.347
19937WAT     H160053   5.952   2.140   7.344
19937WAT     H260054   5.847   2.019   7.378
19938WAT      O60055   8.823   3.175   2.459
19938WAT     H160056   8.759   3.207   2.390
19938WAT     H260057   8.914   3.214   2.440
19939WAT      O60058   4.926   5.532   1.889
19939WAT     H160059   4.987   5.543   1.810
19939WAT     H260060   4.833   5.515   1.857
19940WAT      O60061   1.083   5.264   5.956
19940WAT     H160062   1.104   5.345   6.010
19940WAT     H260063   1.167   5.229   5.914
19941WAT      O60064   6.562   8.279   6.828
19941WAT     H160065   6.612   8.203   6.869
19941WAT     H260066   6.551   8.263   6.730
19942WAT      O60067   8.089   0.432   4.930
19942WAT     H160068   8.004   0.385   4.903
19942WAT     H260069   8.167   0.376   4.903
19943WAT      O60070   2.698   6.241   0.327
19943WAT     H160071   2.780   6.229   0.271
19943WAT     H260072   2.656   6.329   0.307
19944WAT      O60073   7.911   0.739   5.084
19944WAT     H160074   7.995   0.731   5.029
19944WAT     H260075   7.890   0.651   5.126
19945WAT      O60076   1.301   3.291   6.864
19945WAT     H160077   1.283   3.335   6.775
19945WAT     H260078   1.326   3.195   6.849
19946WAT      O60079   7.278   7.240   6.215
19946WAT     H160080   7.195   7.188   6.231
19946WAT     H260081   7.288   7.258   6.117
19947WAT      O60082   0.452   7.243   8.607
19947WAT     H160083   0.521   7.171   8.597
19947WAT     H260084   0.396   7.225   8.687
19948WAT      O60085   4.882   0.962   9.381
19948WAT     H160086   4.964   0.965   9.437
19948WAT     H260087   4.856   1.055   9.354
19949WAT      O60088   0.138   0.223   8.004
19949WAT     H160089   0.098   0.169   8.078
19949WAT     H260090   0.140   0.169   7.920
19950WAT      O60091   8.928   7.476   5.627
19950WAT     H160092   8.882   7.563   5.611
19950WAT     H260093   8.942   7.463   5.725
19951WAT      O60094   6.503   4.680   7.742
19951WAT     H160095   6.564   4.757   7.725
19951WAT     H260096   6.409   4.712   7.748
19952WAT      O60097   6.549   1.044   5.202
19952WAT     H160098   6.629   0.983   5.207
19952WAT     H260099   6.495   1.034   5.286
19953WAT      O60100   0.025  -0.002   5.488
19953WAT     H160101   0.010   0.081   5.542
19953WAT     H260102   0.102   0.011   5.427
19954WAT      O60103   2.599   2.147   4.624
19954WAT     H160104   2.536   2.074   4.596
19954WAT     H260105   2.660   2.170   4.548
19955WAT      O60106   0.745   6.844   1.267
19955WAT     H160107   0.792   6.929   1.242
19955WAT     H260108   0.706   6.802   1.185
19956WAT      O60109   3.035   4.615   1.715
19956WAT     H160110   2.958   4.657   1.667
19956WAT     H260111   3.026   4.515   1.711
19957WAT      O60112   5.780   3.545   1.454
19957WAT     H160113   5.767   3.562   1.552
19957WAT     H260114   5.871   3.506   1.439
19958WAT      O60115   5.426   3.789   9.229
19958WAT     H160116   5.484   3.739   9.163
19958WAT     H260117   5.427   3.886   9.206
19959WAT      O60118   1.179   5.219   0.202
19959WAT     H160119   1.124   5.198   0.283
19959WAT     H260120   1.122   5.264   0.134
19960WAT      O60121   1.641   3.974   5.136
19960WAT     H160122   1.585   3.892   5.140
19960WAT     H260123   1.709   3.971   5.210
19961WAT      O60124   7.913   3.218   4.291
19961WAT     H160125   7.832   3.205   4.233
19961WAT     H260126   7.886   3.212   4.387
19962WAT      O60127   2.394   5.316   5.333
19962WAT     H160128   2.375   5.258   5.254
19962WAT     H260129   2.404   5.258   5.415
19963WAT      O60130   0.446   1.757   4.825
19963WAT     H160131   0.368   1.703   4.794
19963WAT     H260132   0.526   1.734   4.771
19964WAT      O60133   5.399   6.667   4.160
19964WAT     H160134   5.354   6.673   4.071
19964WAT     H260135   5.378   6.749   4.213
19965WAT      O60136   6.299   9.157   3.341
19965WAT     H160137   6.304   9.108   3.254
19965WAT     H260138   6.206   9.191   3.355
19966WAT      O60139   2.932   3.087   3.561
19966WAT     H160140   3.011   3.119   3.613
19966WAT     H260141   2.963   3.041   3.478
19967WAT      O60142   0.427   8.885   6.152
19967WAT     H160143   0.348   8.826   6.135
19967WAT     H260144   0.493   8.836   6.209
19968WAT      O60145   4.170   6.644   4.855
19968WAT     H160146   4.125   6.595   4.929
19968WAT     H260147   4.162   6.592   4.770
19969WAT      O60148   0.437   3.526   3.345
19969WAT     H160149   0.458   3.459   3.415
19969WAT     H260150   0.337   3.535   3.337
19970WAT      O60151   9.767   2.439   5.892
19970WAT     H160152   9.859   2.477   5.888
19970WAT     H260153   9.756   2.370   5.821
19971WAT      O60154   1.547   8.197   0.463
19971WAT     H160155   1.503   8.285   0.479
19971WAT     H260156   1.637   8.196   0.505
19972WAT      O60157   8.503   1.876   8.273
19972WAT     H160158   8.463   1.961   8.306
19972WAT     H260159   8.432   1.807   8.260
19973WAT      O60160   3.220   4.769   4.454
19973WAT     H160161   3.293   4.833   4.481
19973WAT     H260162   3.243   4.727   4.366
19974WAT      O60163   3.390   6.216   6.411
19974WAT     H160164   3.388   6.255   6.319
19974WAT     H260165   3.350   6.281   6.476
19975WAT      O60166   1.126   0.748   2.277
19975WAT     H160167   1.216   0.740   2.320
19975WAT     H260168   1.103   0.844   2.267
19976WAT      O60169   0.483   5.415   1.366
19976WAT     H160170   0.558   5.402   1.430
19976WAT     H260171   0.427   5.492   1.394
19977WAT      O60172   0.332   6.049   0.895
19977WAT     H160173   0.404   6.113   0.921
19977WAT     H260174   0.280   6.088   0.819
19978WAT      O60175   0.437   9.240   9.353
19978WAT     H160176   0.340   9.260   9.342
19978WAT     H260177   0.484   9.320   9.391
19979WAT      O60178   8.054   9.844   4.813
19979WAT     H160179   8.025   9.759   4.768
19979WAT     H260180   7.987   9.916   4.793
19980WAT      O60181   2.844   0.620   0.634
19980WAT     H160182   2.833   0.625   0.733
19980WAT     H260183   2.934   0.655   0.609
19981WAT      O60184   8.516   5.831   6.479
19981WAT     H160185   8.530   5.733   6.490
19981WAT     H260186   8.463   5.848   6.395
19982WAT      O60187   0.415   8.205   1.587
19982WAT     H160188   0.380   8.249   1.670
19982WAT     H260189   0.381   8.110   1.583
19983WAT      O60190   8.783   7.277   1.943
19983WAT     H160191   8.863   7.306   1.996
19983WAT     H260192   8.740   7.356   1.901
19984WAT      O60193   2.780   6.598   0.363
19984WAT     H160194   2.835   6.581   0.445
19984WAT     H260195   2.728   6.683   0.376
19985WAT      O60196   3.090   1.922   9.731
19985WAT     H160197   3.188   1.926   9.749
19985WAT     H260198   3.074   1.922   9.632
19986WAT      O60199   7.640   0.574   2.145
19986WAT     H160200   7.648   0.488   2.093
19986WAT     H260201   7.721   0.630   2.129
19987WAT      O60202   4.876   9.350   8.697
19987WAT     H160203   4.835   9.313   8.780
19987WAT     H260204   4.828   9.433   8.669
19988WAT      O60205   7.423   2.762   3.688
19988WAT     H160206   7.349   2.746   3.754
19988WAT     H260207   7.390   2.824   3.616
19989WAT      O60208   0.669   2.327   8.881
19989WAT     H160209   0.695   2.322   8.977
19989WAT     H260210   0.602   2.256   8.861
19990WAT      O60211   7.551   8.749   5.959
19990WAT     H160212   7.609   8.717   6.034
19990WAT     H260213   7.508   8.836   5.985
19991WAT      O60214   9.888   1.696   6.289
19991WAT     H160215   9.934   1.785   6.284
19991WAT     H260216   9.862   1.678   6.384
19992WAT      O60217   6.869   0.546   2.902
19992WAT     H160218   6.951   0.490   2.900
19992WAT     H260219   6.821   0.532   2.989
19993WAT      O60220   7.432   5.344   7.520
19993WAT     H160221   7.385   5.409   7.580
19993WAT     H260222   7.515   5.312   7.564
19994WAT      O60223   3.490   3.214   8.710
19994WAT     H160224   3.429   3.174   8.642
19994WAT     H260225   3.513   3.307   8.684
19995WAT      O60226   7.448   5.024   3.561
19995WAT     H160227   7.402   4.985   3.640
19995WAT     H260228   7.539   4.982   3.551
19996WAT      O60229   8.889   7.567   8.500
19996WAT     H160230   8.963   7.633   8.516
19996WAT     H260231   8.846   7.585   8.412
19997WAT      O60232   4.638   4.189   5.218
19997WAT     H160233   4.707   4.170   5.149
19997WAT     H260234   4.671   4.158   5.307
19998WAT      O60235   5.219   9.755   1.710
19998WAT     H160236   5.193   9.672   1.660
19998WAT     H260237   5.297   9.736   1.769
19999WAT      O60238   9.693   8.050   2.413
19999WAT     H160239   9.668   8.047   2.316
19999WAT     H260240   9.630   7.995   2.466
20000WAT      O60241   8.706   2.481   8.770
20000WAT     H160242   8.793   2.452   8.731
20000WAT     H260243   8.715   2.491   8.869
20001WAT      O60244   8.056   4.083   8.026
20001WAT     H160245   8.083   4.051   8.116
20001WAT     H260246   7.958   4.066   8.012
20002WAT      O60247   9.007   0.227   5.525
20002WAT     H160248   9.033   0.283   5.446
20002WAT     H260249   8.911   0.201   5.517
20003WAT      O60250   9.830   0.661   2.658
20003WAT     H160251   9.893   0.587   2.634
20003WAT     H260252   9.827   0.671   2.758
20004WAT      O60253   2.374   7.993   4.027
20004WAT     H160254   2.326   8.018   4.111
20004WAT     H260255   2.386   7.893   4.024
20005WAT      O60256   3.223   5.276   6.166
20005WAT     H160257   3.211   5.375   6.160
20005WAT     H260258   3.232   5.248   6.261
20006WAT      O60259   7.502   2.155   1.925
20006WAT     H160260   7.541   2.196   1.842
20006WAT     H260261   7.511   2.056   1.920
20007WAT      O60262   5.399   6.747   5.444
20007WAT     H160263   5.449   6.833   5.441
20007WAT     H260264   5.462   6.673   5.467
20008WAT      O60265   6.566   1.412   5.442
20008WAT     H160266   6.487   1.351   5.435
20008WAT     H260267   6.615   1.412   5.354
20009WAT      O60268   0.027   6.262   0.523
20009WAT     H160269   0.080   6.198   0.469
20009WAT     H260270  -0.069   6.259   0.495
20010WAT      O60271   2.798   3.516   5.786
20010WAT     H160272   2.858   3.499   5.708
20010WAT     H260273   2.784   3.615   5.796
20011WAT      O60274   6.072   0.761   7.927
20011WAT     H160275   6.143   0.696   7.899
20011WAT     H260276   5.984   0.714   7.934
20012WAT      O60277   0.740   8.068   3.628
20012WAT     H160278   0.706   7.978   3.656
20012WAT     H260279   0.818   8.056   3.566
20013WAT      O60280   1.756   5.671   1.596
20013WAT     H160281   1.789   5.670   1.501
20013WAT     H260282   1.830   5.697   1.657
20014WAT      O60283   9.282   9.680   9.776
20014WAT     H160284   9.185   9.659   9.788
20014WAT     H260285   9.311   9.745   9.846
20015WAT      O60286   6.039   3.706   2.025
20015WAT     H160287   5.986   3.759   1.959
20015WAT     H260288   5.979   3.641   2.072
20016WAT      O60289   1.767   0.311   8.389
20016WAT     H160290   1.787   0.291   8.485
20016WAT     H260291   1.751   0.409   8.377
20017WAT      O60292   9.510   4.384   9.646
20017WAT     H160293   9.571   4.399   9.724
20017WAT     H260294   9.421   4.354   9.679
20018WAT      O60295   0.531   6.346   6.233
20018WAT     H160296   0.495   6.384   6.148
20018WAT     H260297   0.604   6.281   6.212
20019WAT      O60298   1.469   8.140   3.275
20019WAT     H160299   1.464   8.128   3.374
20019WAT     H260300   1.565   8.143   3.247
20020WAT      O60301   5.664   0.490   6.266
20020WAT     H160302   5.616   0.416   6.220
20020WAT     H260303   5.761   0.485   6.245
20021WAT      O60304   5.348   0.927   9.759
20021WAT     H160305   5.375   1.020   9.784
20021WAT     H260306   5.249   0.921   9.751
20022WAT      O60307   8.995   9.035   4.004
20022WAT     H160308   9.078   9.085   4.026
20022WAT     H260309   9.013   8.937   4.008
20023WAT      O60310   0.975   6.554   0.170
20023WAT     H160311   1.053   6.560   0.232
20023WAT     H260312   1.000   6.592   0.081
20024WAT      O60313   4.337   5.060   5.379
20024WAT     H160314   4.424   5.102   5.354
20024WAT     H260315   4.263   5.105   5.328
20025WAT      O60316   4.410   7.013   8.441
20025WAT     H160317   4.497   7.054   8.468
20025WAT     H260318   4.409   6.917   8.469
20026WAT      O60319   9.303   4.018   3.638
20026WAT     H160320   9.384   4.035   3.581
20026WAT     H260321   9.252   4.103   3.650
20027WAT      O60322   3.919   6.560   9.229
20027WAT     H160323   3.969   6.564   9.316
20027WAT     H260324   3.882   6.468   9.216
20028WAT      O60325   3.168   1.101   9.123
20028WAT     H160326   3.205   1.067   9.036
20028WAT     H260327   3.201   1.195   9.138
20029WAT      O60328   9.053   0.068   2.713
20029WAT     H160329   8.980   0.015   2.756
20029WAT     H260330   9.121   0.094   2.782
20030WAT      O60331   0.391   9.484   6.015
20030WAT     H160332   0.323   9.411   6.008
20030WAT     H260333   0.378   9.549   5.940
20031WAT      O60334   3.080   8.388   2.737
20031WAT     H160335   2.981   8.385   2.721
20031WAT     H260336   3.128   8.355   2.656
20032WAT      O60337   8.940   0.048   0.591
20032WAT     H160338   8.977   0.011   0.506
20032WAT     H260339   8.846   0.016   0.603
20033WAT      O60340   3.740   9.721   4.517
20033WAT     H160341   3.795   9.733   4.435
20033WAT     H260342   3.685   9.803   4.532
20034WAT      O60343   8.107   2.400   4.017
20034WAT     H160344   8.163   2.464   4.068
20034WAT     H260345   8.113   2.309   4.060
20035WAT      O60346   8.470   6.801   9.686
20035WAT     H160347   8.444   6.827   9.779
20035WAT     H260348   8.454   6.703   9.673
20036WAT      O60349   9.337   1.079   6.977
20036WAT     H160350   9.375   1.159   6.929
20036WAT     H260351   9.293   1.019   6.911
20037WAT      O60352   0.184   3.362   6.640
20037WAT     H160353   0.204   3.442   6.582
20037WAT     H260354   0.166   3.283   6.581
20038WAT      O60355   9.004   5.435   1.738
20038WAT     H160356   9.064   5.512   1.718
20038WAT     H260357   8.983   5.386   1.653
20039WAT      O60358   8.364   4.005   7.101
20039WAT     H160359   8.397   4.027   7.010
20039WAT     H260360   8.423   4.048   7.170
20040WAT      O60361   3.748   0.216   2.157
20040WAT     H160362   3.762   0.280   2.082
20040WAT     H260363   3.786   0.127   2.132
20041WAT      O60364   2.977   0.412   1.731
20041WAT     H160365   2.995   0.354   1.652
20041WAT     H260366   2.998   0.362   1.815
20042WAT      O60367   3.690   1.438   1.252
20042WAT     H160368   3.719   1.447   1.156
20042WAT     H260369   3.769   1.416   1.309
20043WAT      O60370   8.684   1.405   7.364
20043WAT     H160371   8.744   1.476   7.328
20043WAT     H260372   8.714   1.315   7.332
20044WAT      O60373   6.481   8.718   1.368
20044WAT     H160374   6.490   8.683   1.275
20044WAT     H260375   6.413   8.664   1.418
20045WAT      O60376   2.053   2.446   9.671
20045WAT     H160377   2.060   2.456   9.770
20045WAT     H260378   2.030   2.351   9.649
20046WAT      O60379   1.001   3.735   1.676
20046WAT     H160380   1.054   3.797   1.733
20046WAT     H260381   0.937   3.683   1.733
20047WAT      O60382   1.584   4.991   5.678
20047WAT     H160383   1.486   4.976   5.676
20047WAT     H260384   1.620   4.970   5.769
20048WAT      O60385   2.384   6.190   2.182
20048WAT     H160386   2.406   6.247   2.262
20048WAT     H260387   2.465   6.178   2.126
20049WAT      O60388   6.608   7.535   4.995
20049WAT     H160389   6.566   7.444   4.997
20049WAT     H260390   6.567   7.589   4.922
20050WAT      O60391   1.035   9.670   5.992
20050WAT     H160392   0.993   9.605   6.055
20050WAT     H260393   0.968   9.697   5.923
20051WAT      O60394   4.889   5.733   5.767
20051WAT     H160395   4.951   5.722   5.689
20051WAT     H260396   4.931   5.692   5.848
20052WAT      O60397   1.982   9.727   0.487
20052WAT     H160398   1.894   9.705   0.443
20052WAT     H260399   2.056   9.679   0.440
20053WAT      O60400   2.135   0.297   1.386
20053WAT     H160401   2.199   0.374   1.397
20053WAT     H260402   2.067   0.320   1.316
20054WAT      O60403   1.831   6.117   1.320
20054WAT     H160404   1.903   6.125   1.389
20054WAT     H260405   1.768   6.044   1.346
20055WAT      O60406   4.699   2.894   2.586
20055WAT     H160407   4.710   2.906   2.685
20055WAT     H260408   4.720   2.981   2.539
20056WAT      O60409   1.095   0.377   8.074
20056WAT     H160410   1.129   0.288   8.044
20056WAT     H260411   1.064   0.429   7.995
20057WAT      O60412   3.839   8.695   8.557
20057WAT     H160413   3.874   8.602   8.540
20057WAT     H260414   3.916   8.759   8.558
20058WAT      O60415   1.539   5.857   9.354
20058WAT     H160416   1.466   5.790   9.369
20058WAT     H260417   1.501   5.949   9.354
20059WAT      O60418   8.209   2.630   4.687
20059WAT     H160419   8.306   2.606   4.688
20059WAT     H260420   8.172   2.626   4.780
20060WAT      O60421   4.018   8.251   4.311
20060WAT     H160422   4.113   8.283   4.310
20060WAT     H260423   3.967   8.295   4.237
20061WAT      O60424   1.797   3.031   7.392
20061WAT     H160425   1.734   3.109   7.385
20061WAT     H260426   1.827   3.004   7.300
20062WAT      O60427   0.064   6.476   5.397
20062WAT     H160428   0.092   6.386   5.364
20062WAT     H260429  -0.025   6.469   5.443
20063WAT      O60430   9.881   1.503   6.070
20063WAT     H160431   9.903   1.565   6.145
20063WAT     H260432   9.791   1.526   6.032
20064WAT      O60433   9.614   1.905   2.050
20064WAT     H160434   9.585   1.809   2.053
20064WAT     H260435   9.690   1.915   1.985
20065WAT      O60436   8.418   1.305   8.792
20065WAT     H160437   8.380   1.379   8.736
20065WAT     H260438   8.384   1.314   8.886
20066WAT      O60439   0.269   0.555   7.509
20066WAT     H160440   0.342   0.590   7.568
20066WAT     H260441   0.232   0.471   7.549
20067WAT      O60442   7.465   8.256   8.097
20067WAT     H160443   7.467   8.347   8.139
20067WAT     H260444   7.398   8.199   8.145
20068WAT      O60445   0.337   2.743   9.005
20068WAT     H160446   0.423   2.761   8.958
20068WAT     H260447   0.269   2.712   8.938
20069WAT      O60448   2.952   9.105   4.864
20069WAT     H160449   2.950   9.023   4.921
20069WAT     H260450   2.875   9.164   4.887
20070WAT      O60451   6.664   4.953   3.633
20070WAT     H160452   6.730   4.891   3.673
20070WAT     H260453   6.634   5.019   3.702
20071WAT      O60454   2.090   1.164   2.988
20071WAT     H160455   2.117   1.121   3.074
20071WAT     H260456   2.009   1.119   2.951
20072WAT      O60457   6.830   1.948   3.879
20072WAT     H160458   6.753   2.012   3.876
20072WAT     H260459   6.857   1.924   3.786
20073WAT      O60460   5.591   4.794   9.220
20073WAT     H160461   5.613   4.712   9.169
20073WAT     H260462   5.655   4.867   9.195
20074WAT      O60463   7.995   1.557   8.074
20074WAT     H160464   8.051   1.526   7.997
20074WAT     H260465   7.975   1.654   8.064
20075WAT      O60466   4.140   9.124   3.837
20075WAT     H160467   4.182   9.210   3.865
20075WAT     H260468   4.124   9.125   3.738
20076WAT      O60469   3.223   2.758   4.316
20076WAT     H160470   3.201   2.708   4.232
20076WAT     H260471   3.233   2.855   4.294
20077WAT      O60472   5.476   3.197   3.183
20077WAT     H160473   5.539   3.269   3.154
20077WAT     H260474   5.383   3.235   3.188
20078WAT      O60475   8.781   3.496   9.185
20078WAT     H160476   8.794   3.492   9.086
20078WAT     H260477   8.701   3.443   9.210
20079WAT      O60478   0.474   7.107   8.976
20079WAT     H160479   0.409   7.138   8.906
20079WAT     H260480   0.567   7.111   8.939
20080WAT      O60481   5.012   6.509   0.575
20080WAT     H160482   4.986   6.476   0.666
20080WAT     H260483   5.073   6.588   0.584
20081WAT      O60484   6.920   8.299   9.090
20081WAT     H160485   7.015   8.271   9.076
20081WAT     H260486   6.893   8.278   9.184
20082WAT      O60487   8.226   1.829   7.396
20082WAT     H160488   8.146   1.769   7.396
20082WAT     H260489   8.288   1.801   7.323
20083WAT      O60490   1.912   6.062   0.148
20083WAT     H160491   1.815   6.055   0.124
20083WAT     H260492   1.924   6.133   0.218
20084WAT      O60493   5.490   8.699   1.711
20084WAT     H160494   5.396   8.694   1.745
20084WAT     H260495   5.544   8.624   1.749
20085WAT      O60496   9.725   8.791   8.421
20085WAT     H160497   9.667   8.845   8.482
20085WAT     H260498   9.777   8.852   8.362
20086WAT      O60499   1.132   8.781   5.960
20086WAT     H160500   1.220   8.740   5.983
20086WAT     H260501   1.124   8.869   6.007
20087WAT      O60502   9.412   9.361   3.271
20087WAT     H160503   9.449   9.363   3.178
20087WAT     H260504   9.436   9.274   3.314
20088WAT      O60505   7.680   4.334   5.212
20088WAT     H160506   7.755   4.363   5.272
20088WAT     H260507   7.717   4.284   5.134
20089WAT      O60508   5.176   4.427   9.681
20089WAT     H160509   5.093   4.463   9.724
20089WAT     H260510   5.161   4.330   9.657
20090WAT      O60511   4.974   0.307   0.449
20090WAT     H160512   4.921   0.224   0.466
20090WAT     H260513   4.944   0.349   0.364
20091WAT      O60514   0.816   7.029   3.648
20091WAT     H160515   0.854   6.950   3.598
20091WAT     H260516   0.766   6.996   3.728
20092WAT      O60517   9.722   9.214   3.697
20092WAT     H160518   9.821   9.227   3.705
20092WAT     H260519   9.675   9.271   3.763
20093WAT      O60520   5.109   6.810   6.766
20093WAT     H160521   5.077   6.902   6.788
20093WAT     H260522   5.203   6.815   6.731
20094WAT      O60523   9.199   8.888   1.083
20094WAT     H160524   9.279   8.947   1.078
20094WAT     H260525   9.207   8.826   1.161
20095WAT      O60526   9.369   0.865   9.036
20095WAT     H160527   9.402   0.898   8.947
20095WAT     H260528   9.270   0.878   9.041
20096WAT      O60529   3.367   3.894   5.265
20096WAT     H160530   3.463   3.923   5.265
20096WAT     H260531   3.308   3.975   5.263
20097WAT      O60532   3.290   9.320   0.540
20097WAT     H160533   3.201   9.347   0.579
20097WAT     H260534   3.322   9.392   0.478
20098WAT      O60535   6.838   4.777   8.145
20098WAT     H160536   6.893   4.721   8.207
20098WAT     H260537   6.826   4.728   8.058
20099WAT      O60538   9.323   8.238   3.147
20099WAT     H160539   9.290   8.332   3.135
20099WAT     H260540   9.316   8.189   3.060
20100WAT      O60541   8.004   0.855   7.507
20100WAT     H160542   8.022   0.947   7.474
20100WAT     H260543   8.085   0.798   7.496
20101WAT      O60544   7.615   1.549   4.287
20101WAT     H160545   7.705   1.520   4.320
20101WAT     H260546   7.570   1.605   4.357
20102WAT      O60547   4.872   2.260   6.989
20102WAT     H160548   4.914   2.351   6.992
20102WAT     H260549   4.926   2.201   6.930
20103WAT      O60550  -0.001   2.336   7.425
20103WAT     H160551   0.055   2.321   7.344
20103WAT     H260552   0.044   2.404   7.484
20104WAT      O60553   3.421   1.137   4.355
20104WAT     H160554   3.453   1.226   4.324
20104WAT     H260555   3.362   1.150   4.435
20105WAT      O60556   6.592   9.307   1.521
20105WAT     H160557   6.592   9.282   1.425
20105WAT     H260558   6.590   9.225   1.578
20106WAT      O60559   3.925   0.833   6.521
20106WAT     H160560   3.921   0.930   6.547
20106WAT     H260561   3.989   0.822   6.445
20107WAT      O60562   3.000   1.501   4.672
20107WAT     H160563   3.042   1.559   4.742
20107WAT     H260564   3.021   1.405   4.691
20108WAT      O60565   3.340   2.489   5.414
20108WAT     H160566   3.279   2.441   5.477
20108WAT     H260567   3.419   2.431   5.394
20109WAT      O60568   1.019   3.721   6.675
20109WAT     H160569   1.000   3.809   6.717
20109WAT     H260570   1.115   3.718   6.645
20110WAT      O60571   6.966   3.619   5.461
20110WAT     H160572   6.965   3.543   5.396
20110WAT     H260573   6.988   3.704   5.413
20111WAT      O60574   1.722   0.299   2.032
20111WAT     H160575   1.763   0.391   2.025
20111WAT     H260576   1.672   0.291   2.118
20112WAT      O60577   8.572   8.235   7.048
20112WAT     H160578   8.619   8.307   7.099
20112WAT     H260579   8.474   8.251   7.049
20113WAT      O60580   6.225   6.946   1.616
20113WAT     H160581   6.265   7.001   1.690
20113WAT     H260582   6.126   6.938   1.630
20114WAT      O60583   4.704   1.096   7.212
20114WAT     H160584   4.617   1.141   7.192
20114WAT     H260585   4.771   1.119   7.142
20115WAT      O60586   7.088   8.398   2.359
20115WAT     H160587   7.078   8.481   2.414
20115WAT     H260588   7.058   8.416   2.265
20116WAT      O60589   2.627   5.078   0.219
20116WAT     H160590   2.708   5.134   0.201
20116WAT     H260591   2.655   4.982   0.224
20117WAT      O60592   4.482   9.536   3.160
20117WAT     H160593   4.550   9.562   3.228
20117WAT     H260594   4.516   9.557   3.068
20118WAT      O60595   6.677   2.371   6.668
20118WAT     H160596   6.731   2.291   6.640
20118WAT     H260597   6.591   2.340   6.708
20119WAT      O60598   0.622   0.850   8.331
20119WAT     H160599   0.687   0.781   8.299
20119WAT     H260600   0.580   0.818   8.416
20120WAT      O60601   9.197   9.202   1.520
20120WAT     H160602   9.194   9.227   1.617
20120WAT     H260603   9.154   9.112   1.508
20121WAT      O60604   8.028   4.855   1.576
20121WAT     H160605   7.942   4.902   1.598
20121WAT     H260606   8.027   4.826   1.481
20122WAT      O60607   2.038   5.756   0.744
20122WAT     H160608   2.125   5.716   0.717
20122WAT     H260609   1.969   5.738   0.674
20123WAT      O60610   8.600   1.885   0.464
20123WAT     H160611   8.643   1.833   0.390
20123WAT     H260612   8.532   1.947   0.425
20124WAT      O60613   9.633   9.230   9.188
20124WAT     H160614   9.632   9.321   9.228
20124WAT     H260615   9.719   9.184   9.210
20125WAT      O60616   4.608   9.180   3.155
20125WAT     H160617   4.606   9.090   3.112
20125WAT     H260618   4.550   9.179   3.237
20126WAT      O60619   2.343   1.456   5.763
20126WAT     H160620   2.431   1.460   5.811
20126WAT     H260621   2.326   1.545   5.719
20127WAT      O60622   2.650   5.890   5.720
20127WAT     H160623   2.627   5.962   5.785
20127WAT     H260624   2.634   5.922   5.627
20128WAT      O60625   4.786   7.877   2.220
20128WAT     H160626   4.818   7.912   2.308
20128WAT     H260627   4.842   7.798   2.194
20129WAT      O60628   1.158   3.508   1.610
20129WAT     H160629   1.063   3.540   1.605
20129WAT     H260630   1.219   3.578   1.576
20130WAT      O60631   4.167   5.949   8.805
20130WAT     H160632   4.253   5.999   8.801
20130WAT     H260633   4.133   5.947   8.899
20131WAT      O60634   7.332   2.626   6.267
20131WAT     H160635   7.309   2.671   6.353
20131WAT     H260636   7.430   2.640   6.248
20132WAT      O60637   0.305   7.621   3.824
20132WAT     H160638   0.264   7.537   3.859
20132WAT     H260639   0.233   7.686   3.800
20133WAT      O60640   5.342   9.542   0.243
20133WAT     H160641   5.388   9.631   0.240
20133WAT     H260642   5.386   9.479   0.179
20134WAT      O60643   0.526   2.207   2.602
20134WAT     H160644   0.441   2.218   2.653
20134WAT     H260645   0.584   2.288   2.617
20135WAT      O60646   3.568   1.892   2.431
20135WAT     H160647   3.618   1.938   2.504
20135WAT     H260648   3.479   1.862   2.465
20136WAT      O60649   6.426   2.401   7.743
20136WAT     H160650   6.381   2.489   7.759
20136WAT     H260651   6.437   2.353   7.830
20137WAT      O60652   1.884   4.245   0.613
20137WAT     H160653   1.910   4.342   0.610
20137WAT     H260654   1.911   4.206   0.701
20138WAT      O60655   7.180   4.939   3.935
20138WAT     H160656   7.215   4.903   3.848
20138WAT     H260657   7.168   5.038   3.928
20139WAT      O60658   1.381   2.937   6.156
20139WAT     H160659   1.290   2.954   6.121
20139WAT     H260660   1.434   3.021   6.155
20140WAT      O60661   8.457   9.132   8.736
20140WAT     H160662   8.398   9.125   8.816
20140WAT     H260663   8.462   9.044   8.690
20141WAT      O60664   8.993   9.118   2.951
20141WAT     H160665   8.954   9.034   2.988
20141WAT     H260666   8.968   9.127   2.854
20142WAT      O60667   0.691   7.160   2.857
20142WAT     H160668   0.710   7.110   2.942
20142WAT     H260669   0.617   7.225   2.873
20143WAT      O60670   8.940   2.461   0.108
20143WAT     H160671   8.897   2.381   0.067
20143WAT     H260672   8.870   2.521   0.146
20144WAT      O60673   5.300   4.675   7.796
20144WAT     H160674   5.310   4.587   7.844
20144WAT     H260675   5.391   4.708   7.769
20145WAT      O60676   5.715   7.529   1.502
20145WAT     H160677   5.728   7.617   1.547
20145WAT     H260678   5.629   7.530   1.452
20146WAT      O60679   6.650   3.411   2.484
20146WAT     H160680   6.654   3.501   2.525
20146WAT     H260681   6.593   3.351   2.540
20147WAT      O60682   1.305   4.966   1.153
20147WAT     H160683   1.375   4.901   1.184
20147WAT     H260684   1.305   4.969   1.053
20148WAT      O60685   9.630   8.429   1.203
20148WAT     H160686   9.646   8.352   1.141
20148WAT     H260687   9.532   8.448   1.206
20149WAT      O60688   7.507   9.373   5.403
20149WAT     H160689   7.571   9.449   5.404
20149WAT     H260690   7.474   9.356   5.497
20150WAT      O60691   7.217   9.692   1.609
20150WAT     H160692   7.165   9.693   1.524
20150WAT     H260693   7.275   9.773   1.614
20151WAT      O60694   3.748   1.444   2.353
20151WAT     H160695   3.755   1.400   2.443
20151WAT     H260696   3.838   1.478   2.326
20152WAT      O60697   3.638   9.322   9.009
20152WAT     H160698   3.678   9.285   9.092
20152WAT     H260699   3.656   9.420   9.003
20153WAT      O60700   3.031   0.777   6.909
20153WAT     H160701   3.056   0.859   6.961
20153WAT     H260702   2.931   0.764   6.913
20154WAT      O60703   7.976   7.652   5.165
20154WAT     H160704   7.888   7.628   5.126
20154WAT     H260705   7.963   7.724   5.234
20155WAT      O60706   9.829   8.559   4.099
20155WAT     H160707   9.860   8.497   4.027
20155WAT     H260708   9.731   8.545   4.115
20156WAT      O60709   3.311   7.201   6.297
20156WAT     H160710   3.409   7.220   6.289
20156WAT     H260711   3.267   7.277   6.345
20157WAT      O60712   4.567   0.061   5.427
20157WAT     H160713   4.503   0.127   5.388
20157WAT     H260714   4.626   0.107   5.493
20158WAT      O60715   6.274   8.058   0.926
20158WAT     H160716   6.245   7.981   0.983
20158WAT     H260717   6.224   8.054   0.839
20159WAT      O60718   1.946   6.233   6.464
20159WAT     H160719   1.981   6.270   6.378
20159WAT     H260720   1.875   6.294   6.499
20160WAT      O60721   3.185   4.024   4.687
20160WAT     H160722   3.096   4.067   4.704
20160WAT     H260723   3.234   4.075   4.616
20161WAT      O60724   4.472   4.632   8.714
20161WAT     H160725   4.483   4.654   8.618
20161WAT     H260726   4.550   4.579   8.746
20162WAT      O60727   6.209   8.652   1.935
20162WAT     H160728   6.280   8.703   1.887
20162WAT     H260729   6.246   8.615   2.021
20163WAT      O60730   1.093   0.143   8.983
20163WAT     H160731   1.151   0.162   8.904
20163WAT     H260732   1.033   0.221   9.000
20164WAT      O60733   7.343   5.162   8.137
20164WAT     H160734   7.313   5.202   8.224
20164WAT     H260735   7.290   5.202   8.062
20165WAT      O60736   4.339   7.899   3.476
20165WAT     H160737   4.432   7.864   3.464
20165WAT     H260738   4.285   7.833   3.527
20166WAT      O60739   6.678   3.831   4.845
20166WAT     H160740   6.580   3.819   4.826
20166WAT     H260741   6.715   3.900   4.783
20167WAT      O60742   7.595   3.419   8.441
20167WAT     H160743   7.655   3.339   8.443
20167WAT     H260744   7.527   3.406   8.369
20168WAT      O60745   1.478   9.681   0.286
20168WAT     H160746   1.443   9.739   0.359
20168WAT     H260747   1.481   9.733   0.201
20169WAT      O60748   0.416   2.234   3.672
20169WAT     H160749   0.399   2.144   3.632
20169WAT     H260750   0.382   2.305   3.611
20170WAT      O60751   0.675   4.787   5.718
20170WAT     H160752   0.600   4.722   5.705
20170WAT     H260753   0.758   4.738   5.745
20171WAT      O60754   1.641   6.957   6.539
20171WAT     H160755   1.578   6.950   6.462
20171WAT     H260756   1.710   7.026   6.519
20172WAT      O60757   2.066   3.170   9.853
20172WAT     H160758   2.096   3.076   9.841
20172WAT     H260759   2.033   3.183   9.947
20173WAT      O60760   9.808   7.310   4.487
20173WAT     H160761   9.806   7.232   4.424
20173WAT     H260762   9.903   7.339   4.501
20174WAT      O60763   5.140   6.871   0.171
20174WAT     H160764   5.127   6.959   0.125
20174WAT     H260765   5.214   6.878   0.237
20175WAT      O60766   1.437   1.259   2.031
20175WAT     H160767   1.413   1.349   2.068
20175WAT     H260768   1.484   1.206   2.101
20176WAT      O60769   5.351   3.201   9.628
20176WAT     H160770   5.327   3.128   9.564
20176WAT     H260771   5.268   3.238   9.669
20177WAT      O60772   5.050   9.336   4.980
20177WAT     H160773   4.961   9.314   5.019
20177WAT     H260774   5.103   9.390   5.045
20178WAT      O60775   4.200   3.967   6.191
20178WAT     H160776   4.293   3.939   6.168
20178WAT     H260777   4.203   4.040   6.259
20179WAT      O60778   0.052   5.804   0.895
20179WAT     H160779   0.108   5.815   0.813
20179WAT     H260780  -0.036   5.763   0.871
20180WAT      O60781   4.782   5.388   8.812
20180WAT     H160782   4.751   5.476   8.849
20180WAT     H260783   4.854   5.352   8.870
20181WAT      O60784   5.776   3.957   0.333
20181WAT     H160785   5.683   3.990   0.348
20181WAT     H260786   5.775   3.885   0.264
20182WAT      O60787   8.330   1.863   6.916
20182WAT     H160788   8.338   1.961   6.932
20182WAT     H260789   8.234   1.839   6.902
20183WAT      O60790   3.206   8.572   6.316
20183WAT     H160791   3.295   8.555   6.358
20183WAT     H260792   3.155   8.637   6.372
20184WAT      O60793   9.122   3.366   5.576
20184WAT     H160794   9.045   3.430   5.569
20184WAT     H260795   9.156   3.344   5.484
20185WAT      O60796   2.412   0.112   7.276
20185WAT     H160797   2.448   0.156   7.358
20185WAT     H260798   2.427   0.172   7.197
20186WAT      O60799   0.477   5.755   8.227
20186WAT     H160800   0.540   5.814   8.177
20186WAT     H260801   0.470   5.667   8.179
20187WAT      O60802   7.416   5.308   1.082
20187WAT     H160803   7.397   5.210   1.076
20187WAT     H260804   7.366   5.347   1.159
20188WAT      O60805   7.608   0.124   6.037
20188WAT     H160806   7.676   0.198   6.038
20188WAT     H260807   7.640   0.051   5.976
20189WAT      O60808   5.637   8.898   1.124
20189WAT     H160809   5.674   8.990   1.129
20189WAT     H260810   5.542   8.902   1.094
20190WAT      O60811   5.527   1.358   9.641
20190WAT     H160812   5.624   1.349   9.662
20190WAT     H260813   5.500   1.285   9.578
20191WAT      O60814   7.273   1.728   9.131
20191WAT     H160815   7.340   1.703   9.201
20191WAT     H260816   7.318   1.732   9.042
20192WAT      O60817   3.970   6.404   0.692
20192WAT     H160818   3.897   6.473   0.688
20192WAT     H260819   4.035   6.419   0.618
20193WAT      O60820   4.508   1.071   6.864
20193WAT     H160821   4.435   1.118   6.814
20193WAT     H260822   4.520   0.979   6.828
20194WAT      O60823   5.059   9.130   3.982
20194WAT     H160824   5.059   9.088   3.892
20194WAT     H260825   5.080   9.061   4.052
20195WAT      O60826   1.094   9.746   8.074
20195WAT     H160827   1.041   9.699   8.145
20195WAT     H260828   1.045   9.739   7.987
20196WAT      O60829   2.326   9.456   7.693
20196WAT     H160830   2.396   9.398   7.734
20196WAT     H260831   2.259   9.482   7.763
20197WAT      O60832   4.700   7.142   9.701
20197WAT     H160833   4.699   7.227   9.647
20197WAT     H260834   4.635   7.150   9.777
20198WAT      O60835   7.114   4.742   5.101
20198WAT     H160836   7.058   4.815   5.140
20198WAT     H260837   7.081   4.719   5.009
20199WAT      O60838   7.371   7.344   8.023
20199WAT     H160839   7.433   7.421   8.008
20199WAT     H260840   7.417   7.274   8.077
20200WAT      O60841   6.904   1.499   4.887
20200WAT     H160842   6.919   1.474   4.791
20200WAT     H260843   6.846   1.431   4.931
20201WAT      O60844   2.694   5.600   7.758
20201WAT     H160845   2.690   5.519   7.818
20201WAT     H260846   2.783   5.604   7.714
20202WAT      O60847   8.506   5.987   4.266
20202WAT     H160848   8.411   5.980   4.298
20202WAT     H260849   8.516   6.068   4.208
20203WAT      O60850   6.808   0.754   6.106
20203WAT     H160851   6.868   0.812   6.049
20203WAT     H260852   6.742   0.812   6.153
20204WAT      O60853   4.367   2.426   3.980
20204WAT     H160854   4.435   2.423   4.053
20204WAT     H260855   4.346   2.333   3.950
20205WAT      O60856   1.315   1.672   5.789
20205WAT     H160857   1.269   1.637   5.708
20205WAT     H260858   1.381   1.742   5.762
20206WAT      O60859   1.381   6.766   1.385
20206WAT     H160860   1.460   6.724   1.340
20206WAT     H260861   1.297   6.719   1.355
20207WAT      O60862   3.365   3.653   2.514
20207WAT     H160863   3.322   3.576   2.561
20207WAT     H260864   3.369   3.732   2.576
20208WAT      O60865   4.924   2.248   2.037
20208WAT     H160866   4.953   2.189   1.962
20208WAT     H260867   4.976   2.333   2.035
20209WAT      O60868   1.703   8.727   4.030
20209WAT     H160869   1.685   8.728   4.128
20209WAT     H260870   1.708   8.633   3.997
20210WAT      O60871   5.037   8.723   8.059
20210WAT     H160872   4.983   8.659   8.004
20210WAT     H260873   5.006   8.817   8.042
20211WAT      O60874   2.521   2.896   5.016
20211WAT     H160875   2.494   2.935   5.104
20211WAT     H260876   2.621   2.893   5.010
20212WAT      O60877   9.138   4.355   9.414
20212WAT     H160878   9.089   4.354   9.327
20212WAT     H260879   9.168   4.263   9.437
20213WAT      O60880   2.164   3.784   2.286
20213WAT     H160881   2.213   3.700   2.261
20213WAT     H260882   2.093   3.763   2.353
20214WAT      O60883   7.253   0.085   3.397
20214WAT     H160884   7.243   0.167   3.341
20214WAT     H260885   7.178   0.022   3.378
20215WAT      O60886   3.181   7.838   4.895
20215WAT     H160887   3.123   7.892   4.956
20215WAT     H260888   3.178   7.878   4.803
20216WAT      O60889   5.121   0.583   0.114
20216WAT     H160890   5.180   0.610   0.038
20216WAT     H260891   5.174   0.581   0.198
20217WAT      O60892   7.982   1.457   5.621
20217WAT     H160893   7.882   1.460   5.613
20217WAT     H260894   8.022   1.532   5.567
20218WAT      O60895   2.227   2.787   9.549
20218WAT     H160896   2.260   2.868   9.502
20218WAT     H260897   2.244   2.706   9.493
20219WAT      O60898   3.751   2.152   7.551
20219WAT     H160899   3.816   2.200   7.492
20219WAT     H260900   3.668   2.131   7.499
20220WAT      O60901   0.425   3.161   4.721
20220WAT     H160902   0.342   3.106   4.706
20220WAT     H260903   0.461   3.143   4.812
20221WAT      O60904   1.755   4.980   3.828
20221WAT     H160905   1.740   4.924   3.910
20221WAT     H260906   1.701   5.063   3.833
20222WAT      O60907   4.896   9.120   5.385
20222WAT     H160908   4.829   9.152   5.451
20222WAT     H260909   4.872   9.153   5.294
20223WAT      O60910   7.154   8.122   2.991
20223WAT     H160911   7.081   8.061   2.960
20223WAT     H260912   7.240   8.071   2.999
20224WAT      O60913   6.676   9.222   2.160
20224WAT     H160914   6.580   9.201   2.143
20224WAT     H260915   6.733   9.146   2.130
20225WAT      O60916   5.214   1.480   4.257
20225WAT     H160917   5.211   1.392   4.306
20225WAT     H260918   5.121   1.517   4.252
20226WAT      O60919   2.776   6.764   6.880
20226WAT     H160920   2.779   6.742   6.783
20226WAT     H260921   2.712   6.702   6.926
20227WAT      O60922   2.964   0.482   7.129
20227WAT     H160923   2.872   0.447   7.108
20227WAT     H260924   3.014   0.493   7.043
20228WAT      O60925   5.885   2.474   8.772
20228WAT     H160926   5.847   2.566   8.762
20228WAT     H260927   5.959   2.475   8.838
20229WAT      O60928   0.365   6.073   2.238
20229WAT     H160929   0.316   6.060   2.324
20229WAT     H260930   0.299   6.089   2.164
20230WAT      O60931   1.941   2.072   9.392
20230WAT     H160932   1.864   2.087   9.330
20230WAT     H260933   1.936   1.979   9.429
20231WAT      O60934   5.517   6.975   0.938
20231WAT     H160935   5.587   7.012   0.999
20231WAT     H260936   5.450   6.923   0.990
20232WAT      O60937   6.187   7.711   9.676
20232WAT     H160938   6.200   7.729   9.774
20232WAT     H260939   6.248   7.637   9.648
20233WAT      O60940   9.563   3.280   4.568
20233WAT     H160941   9.572   3.379   4.558
20233WAT     H260942   9.549   3.238   4.479
20234WAT      O60943   1.970   1.847   9.518
20234WAT     H160944   2.062   1.808   9.530
20234WAT     H260945   1.907   1.806   9.584
20235WAT      O60946   8.263   0.674   5.359
20235WAT     H160947   8.217   0.751   5.315
20235WAT     H260948   8.230   0.589   5.320
20236WAT      O60949   4.324   4.138   9.080
20236WAT     H160950   4.239   4.190   9.076
20236WAT     H260951   4.304   4.042   9.101
20237WAT      O60952   6.788   6.219   5.337
20237WAT     H160953   6.836   6.148   5.389
20237WAT     H260954   6.780   6.301   5.393
20238WAT      O60955   2.594   7.080   3.800
20238WAT     H160956   2.679   7.028   3.810
20238WAT     H260957   2.516   7.019   3.815
20239WAT      O60958   7.435   0.854   2.216
20239WAT     H160959   7.515   0.820   2.266
20239WAT     H260960   7.463   0.883   2.124
20240WAT      O60961   3.138   1.015   7.007
20240WAT     H160962   3.105   0.981   7.095
20240WAT     H260963   3.236   1.038   7.014
20241WAT      O60964   6.070   6.161   8.033
20241WAT     H160965   5.981   6.126   8.003
20241WAT     H260966   6.123   6.190   7.953
20242WAT      O60967   5.426   3.327   8.212
20242WAT     H160968   5.472   3.245   8.177
20242WAT     H260969   5.388   3.308   8.302
20243WAT      O60970   9.238   1.257   3.050
20243WAT     H160971   9.210   1.296   3.138
20243WAT     H260972   9.248   1.330   2.982
20244WAT      O60973   9.760   1.153   4.282
20244WAT     H160974   9.674   1.103   4.275
20244WAT     H260975   9.744   1.242   4.324
20245WAT      O60976   7.551   6.303   8.432
20245WAT     H160977   7.520   6.210   8.415
20245WAT     H260978   7.645   6.301   8.465
20246WAT      O60979   6.688   4.014   8.207
20246WAT     H160980   6.620   4.063   8.153
20246WAT     H260981   6.710   3.927   8.162
20247WAT      O60982   6.954   8.428   2.113
20247WAT     H160983   6.893   8.349   2.100
20247WAT     H260984   7.042   8.409   2.069
20248WAT      O60985   6.477   3.132   6.954
20248WAT     H160986   6.436   3.132   7.045
20248WAT     H260987   6.405   3.116   6.885
20249WAT      O60988   4.244   3.055   1.113
20249WAT     H160989   4.227   2.973   1.167
20249WAT     H260990   4.278   3.128   1.173
20250WAT      O60991   6.137   5.628   0.893
20250WAT     H160992   6.195   5.553   0.923
20250WAT     H260993   6.089   5.666   0.973
20251WAT      O60994   7.416   8.003   3.021
20251WAT     H160995   7.398   7.921   2.966
20251WAT     H260996   7.482   7.981   3.093
20252WAT      O60997   7.030   6.083   6.035
20252WAT     H160998   7.000   6.179   6.035
20252WAT     H260999   6.951   6.024   6.022
20253WAT      O61000   2.477   1.747   7.553
20253WAT     H161001   2.446   1.662   7.512
20253WAT     H261002   2.523   1.803   7.483
20254WAT      O61003   1.793   4.818   7.879
20254WAT     H161004   1.851   4.898   7.862
20254WAT     H261005   1.826   4.740   7.827
20255WAT      O61006   3.817   8.387   5.561
20255WAT     H161007   3.911   8.420   5.568
20255WAT     H261008   3.755   8.449   5.609
20256WAT      O61009   7.054   9.275   5.331
20256WAT     H161010   7.103   9.295   5.247
20256WAT     H261011   7.039   9.177   5.340
20257WAT      O61012   9.682   0.542   9.342
20257WAT     H161013   9.708   0.486   9.263
20257WAT     H261014   9.637   0.626   9.310
20258WAT      O61015   6.655   2.918   7.024
20258WAT     H161016   6.743   2.872   7.018
20258WAT     H261017   6.648   2.986   6.950
20259WAT      O61018   4.061   5.824   1.845
20259WAT     H161019   3.963   5.828   1.866
20259WAT     H261020   4.113   5.823   1.930
20260WAT      O61021   1.120   8.700   4.344
20260WAT     H161022   1.079   8.668   4.259
20260WAT     H261023   1.186   8.772   4.324
20261WAT      O61024   4.025   9.183   6.721
20261WAT     H161025   4.064   9.130   6.796
20261WAT     H261026   4.096   9.241   6.681
20262WAT      O61027   0.171   9.729   4.227
20262WAT     H161028   0.186   9.788   4.147
20262WAT     H261029   0.119   9.649   4.200
20263WAT      O61030   5.581   2.545   1.444
20263WAT     H161031   5.543   2.627   1.401
20263WAT     H261032   5.507   2.486   1.475
20264WAT      O61033   9.565   0.095   8.275
20264WAT     H161034   9.598   0.107   8.182
20264WAT     H261035   9.466   0.080   8.274
20265WAT      O61036   2.550   9.212   4.509
20265WAT     H161037   2.534   9.261   4.594
20265WAT     H261038   2.525   9.116   4.521
20266WAT      O61039   2.559   5.084   6.503
20266WAT     H161040   2.591   5.011   6.443
20266WAT     H261041   2.459   5.087   6.502
20267WAT      O61042   5.145   8.616   6.474
20267WAT     H161043   5.244   8.601   6.485
20267WAT     H261044   5.106   8.644   6.561
20268WAT      O61045   8.735   5.226   0.848
20268WAT     H161046   8.723   5.131   0.818
20268WAT     H261047   8.832   5.250   0.842
20269WAT      O61048   7.459   0.253   8.222
20269WAT     H161049   7.399   0.333   8.231
20269WAT     H261050   7.545   0.272   8.268
20270WAT      O61051   3.652   3.772   5.879
20270WAT     H161052   3.554   3.750   5.886
20270WAT     H261053   3.705   3.688   5.888
20271WAT      O61054   3.597   6.447   7.876
20271WAT     H161055   3.501   6.473   7.864
20271WAT     H261056   3.607   6.350   7.852
20272WAT      O61057   9.736   4.922   2.134
20272WAT     H161058   9.781   4.833   2.145
20272WAT     H261059   9.745   4.952   2.039
20273WAT      O61060   1.219   4.343   1.707
20273WAT     H161061   1.166   4.416   1.751
20273WAT     H261062   1.160   4.265   1.690
20274WAT      O61063   5.925   1.868   6.910
20274WAT     H161064   5.975   1.905   6.988
20274WAT     H261065   5.937   1.928   6.831
20275WAT      O61066   0.979   7.629   8.656
20275WAT     H161067   0.895   7.674   8.687
20275WAT     H261068   0.956   7.547   8.604
20276WAT      O61069   6.428   0.119   6.422
20276WAT     H161070   6.519   0.132   6.463
20276WAT     H261071   6.430   0.038   6.363
20277WAT      O61072   7.997   1.056   7.752
20277WAT     H161073   8.053   1.007   7.819
20277WAT     H261074   7.906   1.016   7.750
20278WAT      O61075   2.224   2.682   2.272
20278WAT     H161076   2.210   2.776   2.303
20278WAT     H261077   2.159   2.621   2.318
20279WAT      O61078   4.112   7.153   1.127
20279WAT     H161079   4.077   7.060   1.117
20279WAT     H261080   4.057   7.216   1.072
20280WAT      O61081   0.463   7.188   9.260
20280WAT     H161082   0.396   7.260   9.240
20280WAT     H261083   0.480   7.135   9.177
20281WAT      O61084   6.792   3.966   9.539
20281WAT     H161085   6.806   3.892   9.604
20281WAT     H261086   6.794   3.929   9.446
20282WAT      O61087   5.653   5.831   0.679
20282WAT     H161088   5.741   5.876   0.689
20282WAT     H261089   5.665   5.732   0.682
20283WAT      O61090   9.246   3.237   6.042
20283WAT     H161091   9.198   3.230   6.130
20283WAT     H261092   9.180   3.236   5.967
20284WAT      O61093   6.880   2.041   1.895
20284WAT     H161094   6.951   2.007   1.832
20284WAT     H261095   6.822   2.107   1.847
20285WAT      O61096   9.426   8.985   5.800
20285WAT     H161097   9.516   8.974   5.757
20285WAT     H261098   9.417   9.079   5.835
20286WAT      O61099   0.768   3.590   6.143
20286WAT     H161100   0.821   3.568   6.062
20286WAT     H261101   0.823   3.647   6.205
20287WAT      O61102   6.880   0.120   2.481
20287WAT     H161103   6.887   0.062   2.562
20287WAT     H261104   6.844   0.066   2.405
20288WAT      O61105   2.232   4.305   8.723
20288WAT     H161106   2.197   4.380   8.780
20288WAT     H261107   2.237   4.335   8.628
20289WAT      O61108   5.179   6.533   4.988
20289WAT     H161109   5.252   6.491   5.043
20289WAT     H261110   5.164   6.479   4.905
20290WAT      O61111   0.139   3.293   2.208
20290WAT     H161112   0.094   3.360   2.148
20290WAT     H261113   0.216   3.336   2.254
20291WAT      O61114   7.590   1.118   7.428
20291WAT     H161115   7.520   1.065   7.477
20291WAT     H261116   7.652   1.055   7.381
20292WAT      O61117   0.260   8.802   4.681
20292WAT     H161118   0.276   8.728   4.615
20292WAT     H261119   0.286   8.890   4.639
20293WAT      O61120   8.805   0.023   0.848
20293WAT     H161121   8.806   0.122   0.838
20293WAT     H261122   8.782  -0.019   0.760
20294WAT      O61123   5.287   5.321   7.122
20294WAT     H161124   5.213   5.320   7.189
20294WAT     H261125   5.373   5.343   7.169
20295WAT      O61126   0.971   2.202   8.095
20295WAT     H161127   0.988   2.181   7.999
20295WAT     H261128   0.877   2.176   8.118
20296WAT      O61129   0.992   0.616   7.707
20296WAT     H161130   1.089   0.636   7.694
20296WAT     H261131   0.978   0.517   7.711
20297WAT      O61132   3.899   3.860   1.301
20297WAT     H161133   3.912   3.939   1.361
20297WAT     H261134   3.947   3.781   1.339
20298WAT      O61135   1.908   2.192   0.988
20298WAT     H161136   1.963   2.258   0.935
20298WAT     H261137   1.817   2.230   1.004
20299WAT      O61138   7.203   0.812   6.197
20299WAT     H161139   7.221   0.881   6.267
20299WAT     H261140   7.156   0.855   6.120
20300WAT      O61141   2.495   0.501   9.201
20300WAT     H161142   2.477   0.420   9.146
20300WAT     H261143   2.578   0.488   9.255
20301WAT      O61144   9.174   3.014   4.734
20301WAT     H161145   9.201   2.934   4.679
20301WAT     H261146   9.241   3.087   4.721
20302WAT      O61147   7.691   5.056   2.196
20302WAT     H161148   7.702   5.095   2.105
20302WAT     H261149   7.666   4.959   2.188
20303WAT      O61150   4.969   8.491   2.740
20303WAT     H161151   4.964   8.590   2.755
20303WAT     H261152   4.891   8.461   2.685
20304WAT      O61153   5.688   2.521   2.893
20304WAT     H161154   5.759   2.509   2.823
20304WAT     H261155   5.697   2.448   2.961
20305WAT      O61156   9.476   1.890   8.642
20305WAT     H161157   9.533   1.938   8.708
20305WAT     H261158   9.490   1.930   8.551
20306WAT      O61159   4.293   0.352   7.600
20306WAT     H161160   4.274   0.262   7.559
20306WAT     H261161   4.209   0.390   7.638
20307WAT      O61162   3.548   0.817   4.687
20307WAT     H161163   3.648   0.824   4.685
20307WAT     H261164   3.511   0.887   4.748
20308WAT      O61165   6.823   3.880   4.258
20308WAT     H161166   6.728   3.859   4.282
20308WAT     H261167   6.830   3.976   4.231
20309WAT      O61168   2.861   3.348   9.814
20309WAT     H161169   2.822   3.429   9.859
20309WAT     H261170   2.796   3.273   9.818
20310WAT      O61171   2.890   8.337   3.600
20310WAT     H161172   2.860   8.377   3.514
20310WAT     H261173   2.962   8.394   3.640
20311WAT      O61174   1.345   4.860   4.588
20311WAT     H161175   1.299   4.800   4.653
20311WAT     H261176   1.290   4.942   4.572
20312WAT      O61177   4.618   2.423   7.492
20312WAT     H161178   4.652   2.418   7.397
20312WAT     H261179   4.694   2.446   7.553
20313WAT      O61180   1.194   7.051   6.012
20313WAT     H161181   1.160   7.145   6.025
20313WAT     H261182   1.204   7.033   5.914
20314WAT      O61183   6.971   2.502   5.230
20314WAT     H161184   6.993   2.551   5.145
20314WAT     H261185   7.047   2.511   5.294
20315WAT      O61186   7.721   6.986   9.658
20315WAT     H161187   7.787   7.052   9.693
20315WAT     H261188   7.700   7.007   9.562
20316WAT      O61189   1.655   3.927   7.626
20316WAT     H161190   1.617   3.864   7.694
20316WAT     H261191   1.714   3.994   7.671
20317WAT      O61192   2.605   7.246   2.014
20317WAT     H161193   2.566   7.236   1.922
20317WAT     H261194   2.571   7.173   2.073
20318WAT      O61195   1.238   6.825   8.893
20318WAT     H161196   1.220   6.738   8.847
20318WAT     H261197   1.336   6.832   8.913
20319WAT      O61198   2.748   0.675   8.066
20319WAT     H161199   2.758   0.685   7.967
20319WAT     H261200   2.744   0.578   8.089
20320WAT      O61201   6.472   6.035   9.260
20320WAT     H161202   6.468   5.940   9.227
20320WAT     H261203   6.466   6.036   9.360
20321WAT      O61204   3.472   7.504   5.466
20321WAT     H161205   3.507   7.534   5.377
20321WAT     H261206   3.548   7.489   5.528
20322WAT      O61207   9.735   8.273   5.706
20322WAT     H161208   9.643   8.266   5.666
20322WAT     H261209   9.733   8.240   5.800
20323WAT      O61210   7.332   1.320   9.804
20323WAT     H161211   7.303   1.385   9.734
20323WAT     H261212   7.346   1.368   9.890
20324WAT      O61213   0.791   3.657   1.829
20324WAT     H161214   0.733   3.578   1.850
20324WAT     H261215   0.738   3.723   1.774
20325WAT      O61216   2.206   3.457   0.845
20325WAT     H161217   2.220   3.499   0.935
20325WAT     H261218   2.287   3.404   0.820
20326WAT      O61219   0.504   3.098   4.184
20326WAT     H161220   0.451   3.047   4.251
20326WAT     H261221   0.562   3.165   4.231
20327WAT      O61222   0.342   6.340   7.163
20327WAT     H161223   0.440   6.326   7.149
20327WAT     H261224   0.327   6.391   7.247
20328WAT      O61225   3.391   5.975   0.530
20328WAT     H161226   3.319   6.033   0.569
20328WAT     H261227   3.349   5.898   0.482
20329WAT      O61228   2.125   0.594   4.768
20329WAT     H161229   2.070   0.616   4.688
20329WAT     H261230   2.068   0.548   4.836
20330WAT      O61231   2.105   1.436   0.756
20330WAT     H161232   2.095   1.457   0.658
20330WAT     H261233   2.070   1.513   0.810
20331WAT      O61234   1.560   7.981   7.551
20331WAT     H161235   1.516   7.925   7.622
20331WAT     H261236   1.501   8.059   7.529
20332WAT      O61237   2.238   0.806   7.172
20332WAT     H161238   2.199   0.755   7.096
20332WAT     H261239   2.337   0.813   7.160
20333WAT      O61240   5.481   9.774   1.828
20333WAT     H161241   5.518   9.753   1.919
20333WAT     H261242   5.556   9.799   1.767
20334WAT      O61243   6.588   6.813   4.996
20334WAT     H161244   6.598   6.865   5.080
20334WAT     H261245   6.668   6.753   4.984
20335WAT      O61246   0.300   3.611   8.559
20335WAT     H161247   0.272   3.657   8.644
20335WAT     H261248   0.255   3.656   8.481
20336WAT      O61249   2.775   2.277   1.470
20336WAT     H161250   2.807   2.250   1.561
20336WAT     H261251   2.716   2.357   1.478
20337WAT      O61252   3.385   0.728   2.570
20337WAT     H161253   3.354   0.807   2.518
20337WAT     H261254   3.483   0.716   2.555
20338WAT      O61255   3.890   8.695   6.985
20338WAT     H161256   3.903   8.686   6.887
20338WAT     H261257   3.792   8.697   7.006
20339WAT      O61258   7.726   6.356   2.063
20339WAT     H161259   7.772   6.299   2.132
20339WAT     H261260   7.638   6.315   2.040
20340WAT      O61261   1.901   7.021   9.493
20340WAT     H161262   1.835   7.071   9.548
20340WAT     H261263   1.917   7.069   9.407
20341WAT      O61264   8.353   0.766   5.019
20341WAT     H161265   8.433   0.825   5.009
20341WAT     H261266   8.369   0.700   5.092
20342WAT      O61267   3.016   5.102   0.213
20342WAT     H161268   2.950   5.171   0.183
20342WAT     H261269   2.969   5.014   0.226
20343WAT      O61270   5.719   9.730   6.777
20343WAT     H161271   5.671   9.766   6.857
20343WAT     H261272   5.725   9.801   6.707
20344WAT      O61273   5.484   9.608   2.433
20344WAT     H161274   5.526   9.595   2.523
20344WAT     H261275   5.516   9.694   2.394
20345WAT      O61276   4.714   0.013   5.878
20345WAT     H161277   4.725   0.079   5.804
20345WAT     H261278   4.797  -0.041   5.887
20346WAT      O61279   5.526   5.028   4.056
20346WAT     H161280   5.531   5.031   3.956
20346WAT     H261281   5.518   5.120   4.092
20347WAT      O61282   5.857   8.120   0.784
20347WAT     H161283   5.817   8.139   0.695
20347WAT     H261284   5.865   8.204   0.837
20348WAT      O61285   9.565   5.342   9.414
20348WAT     H161286   9.585   5.263   9.472
20348WAT     H261287   9.646   5.401   9.409
20349WAT      O61288   1.201   2.581   6.583
20349WAT     H161289   1.114   2.620   6.615
20349WAT     H261290   1.184   2.515   6.511
20350WAT      O61291   4.529   2.439   1.884
20350WAT     H161292   4.556   2.347   1.911
20350WAT     H261293   4.603   2.481   1.831
20351WAT      O61294   7.615   1.646   6.469
20351WAT     H161295   7.607   1.734   6.515
20351WAT     H261296   7.525   1.602   6.464
20352WAT      O61297   4.605   0.962   3.321
20352WAT     H161298   4.661   1.034   3.362
20352WAT     H261299   4.534   1.003   3.264
20353WAT      O61300   1.392   2.086   6.723
20353WAT     H161301   1.373   2.039   6.809
20353WAT     H261302   1.391   2.185   6.739
20354WAT      O61303   1.310   7.402   3.984
20354WAT     H161304   1.232   7.387   4.044
20354WAT     H261305   1.277   7.416   3.890
20355WAT      O61306   9.094   0.943   9.052
20355WAT     H161307   9.069   0.883   8.977
20355WAT     H261308   9.062   0.905   9.139
20356WAT      O61309   7.982   6.157   5.925
20356WAT     H161310   8.064   6.215   5.925
20356WAT     H261311   8.009   6.061   5.915
20357WAT      O61312   3.712   6.629   5.768
20357WAT     H161313   3.614   6.643   5.752
20357WAT     H261314   3.760   6.628   5.680
20358WAT      O61315   6.146   8.152   9.507
20358WAT     H161316   6.149   8.070   9.564
20358WAT     H261317   6.061   8.202   9.525
20359WAT      O61318   7.266   4.759   8.058
20359WAT     H161319   7.263   4.660   8.074
20359WAT     H261320   7.217   4.780   7.973
20360WAT      O61321   3.994   2.852   3.290
20360WAT     H161322   4.062   2.878   3.221
20360WAT     H261323   3.979   2.928   3.353
20361WAT      O61324   4.684   0.601   6.658
20361WAT     H161325   4.599   0.591   6.710
20361WAT     H261326   4.670   0.571   6.564
20362WAT      O61327   9.576   7.592   5.211
20362WAT     H161328   9.617   7.642   5.134
20362WAT     H261329   9.525   7.513   5.175
20363WAT      O61330   6.768   6.352   6.028
20363WAT     H161331   6.677   6.339   5.990
20363WAT     H261332   6.773   6.310   6.118
20364WAT      O61333   3.860   6.261   9.232
20364WAT     H161334   3.868   6.169   9.194
20364WAT     H261335   3.765   6.278   9.257
20365WAT      O61336   4.205   2.355   6.715
20365WAT     H161337   4.280   2.329   6.655
20365WAT     H261338   4.140   2.279   6.723
20366WAT      O61339   5.968   3.746   8.239
20366WAT     H161340   5.985   3.778   8.146
20366WAT     H261341   6.052   3.754   8.293
20367WAT      O61342   4.576   3.875   7.273
20367WAT     H161343   4.650   3.809   7.285
20367WAT     H261344   4.521   3.850   7.194
20368WAT      O61345   4.512   4.138   6.018
20368WAT     H161346   4.598   4.171   6.059
20368WAT     H261347   4.450   4.215   6.005
20369WAT      O61348   4.512   3.064   6.215
20369WAT     H161349   4.516   3.144   6.156
20369WAT     H261350   4.418   3.048   6.244
20370WAT      O61351   2.290   7.195   0.137
20370WAT     H161352   2.282   7.221   0.040
20370WAT     H261353   2.199   7.183   0.176
20371WAT      O61354   7.716   9.509   2.818
20371WAT     H161355   7.683   9.597   2.853
20371WAT     H261356   7.736   9.448   2.894
20372WAT      O61357   3.146   1.818   5.706
20372WAT     H161358   3.159   1.720   5.696
20372WAT     H261359   3.096   1.837   5.791
20373WAT      O61360   6.615   2.850   6.234
20373WAT     H161361   6.601   2.752   6.248
20373WAT     H261362   6.527   2.897   6.233
20374WAT      O61363   3.704   9.019   3.978
20374WAT     H161364   3.621   9.025   4.034
20374WAT     H261365   3.777   8.976   4.030
20375WAT      O61366   3.075   5.638   0.478
20375WAT     H161367   2.999   5.578   0.453
20375WAT     H261368   3.044   5.705   0.546
20376WAT      O61369   5.162   0.825   5.134
20376WAT     H161370   5.107   0.761   5.079
20376WAT     H261371   5.205   0.891   5.073
20377WAT      O61372   3.061   4.656   1.064
20377WAT     H161373   2.987   4.608   1.016
20377WAT     H261374   3.059   4.631   1.161
20378WAT      O61375   7.966   8.133   6.633
20378WAT     H161376   7.886   8.132   6.573
20378WAT     H261377   8.015   8.047   6.625
20379WAT      O61378   5.403   6.271   6.692
20379WAT     H161379   5.400   6.213   6.773
20379WAT     H261380   5.334   6.241   6.626
20380WAT      O61381   4.583   3.263   4.993
20380WAT     H161382   4.488   3.281   5.018
20380WAT     H261383   4.633   3.349   4.984
20381WAT      O61384   5.893   2.130   5.698
20381WAT     H161385   5.950   2.210   5.718
20381WAT     H261386   5.813   2.159   5.646
20382WAT      O61387   6.524   3.920   5.319
20382WAT     H161388   6.571   3.859   5.255
20382WAT     H261389   6.547   3.894   5.413
20383WAT      O61390   0.735   0.347   3.590
20383WAT     H161391   0.810   0.361   3.655
20383WAT     H261392   0.751   0.401   3.508
20384WAT      O61393   5.993   2.138   9.886
20384WAT     H161394   6.064   2.176   9.946
20384WAT     H261395   5.999   2.181   9.796
20385WAT      O61396   3.380   8.637   7.369
20385WAT     H161397   3.368   8.686   7.283
20385WAT     H261398   3.440   8.689   7.429
20386WAT      O61399   8.303   4.617   3.249
20386WAT     H161400   8.286   4.530   3.202
20386WAT     H261401   8.270   4.610   3.344
20387WAT      O61402   6.273   1.903   8.018
20387WAT     H161403   6.300   1.855   7.935
20387WAT     H261404   6.254   1.999   7.997
20388WAT      O61405   0.094   7.638   3.575
20388WAT     H161406   0.070   7.731   3.548
20388WAT     H261407   0.023   7.575   3.542
20389WAT      O61408   5.545   9.269   6.385
20389WAT     H161409   5.529   9.272   6.484
20389WAT     H261410   5.552   9.174   6.355
20390WAT      O61411   5.207   1.882   6.969
20390WAT     H161412   5.223   1.825   6.888
20390WAT     H261413   5.277   1.953   6.975
20391WAT      O61414   5.052   7.035   6.208
20391WAT     H161415   4.958   7.000   6.214
20391WAT     H261416   5.111   6.985   6.271
20392WAT      O61417   8.353   7.033   7.801
20392WAT     H161418   8.331   6.936   7.813
20392WAT     H261419   8.403   7.066   7.882
20393WAT      O61420   1.021   2.550   2.304
20393WAT     H161421   0.966   2.483   2.253
20393WAT     H261422   0.961   2.606   2.361
20394WAT      O61423   3.028   7.032   0.131
20394WAT     H161424   3.087   7.048   0.051
20394WAT     H261425   2.934   7.056   0.107
20395WAT      O61426   5.130   2.515   5.127
20395WAT     H161427   5.200   2.460   5.172
20395WAT     H261428   5.109   2.596   5.183
20396WAT      O61429   6.785   7.120   7.991
20396WAT     H161430   6.806   7.185   8.064
20396WAT     H261431   6.691   7.135   7.959
20397WAT      O61432   0.490   4.145   2.655
20397WAT     H161433   0.545   4.181   2.580
20397WAT     H261434   0.549   4.126   2.734
20398WAT      O61435   9.879   4.473   4.715
20398WAT     H161436   9.880   4.384   4.761
20398WAT     H261437   9.832   4.539   4.773
20399WAT      O61438   4.018   6.754   1.486
20399WAT     H161439   4.018   6.755   1.386
20399WAT     H261440   3.925   6.766   1.520
20400WAT      O61441   0.983   8.075   8.125
20400WAT     H161442   0.982   8.123   8.212
20400WAT     H261443   0.892   8.041   8.104
20401WAT      O61444   6.574   8.373   2.579
20401WAT     H161445   6.586   8.408   2.672
20401WAT     H261446   6.618   8.283   2.572
20402WAT      O61447   4.322   9.070   3.358
20402WAT     H161448   4.281   8.980   3.345
20402WAT     H261449   4.262   9.126   3.415
20403WAT      O61450   9.854   3.387   4.279
20403WAT     H161451   9.813   3.477   4.295
20403WAT     H261452   9.868   3.374   4.181
20404WAT      O61453   4.193   2.093   6.522
20404WAT     H161454   4.268   2.159   6.530
20404WAT     H261455   4.118   2.122   6.582
20405WAT      O61456   6.591   7.399   6.667
20405WAT     H161457   6.522   7.471   6.675
20405WAT     H261458   6.571   7.326   6.731
20406WAT      O61459   9.008   8.096   6.335
20406WAT     H161460   8.918   8.069   6.371
20406WAT     H261461   9.005   8.191   6.305
20407WAT      O61462   2.834   3.712   2.540
20407WAT     H161463   2.734   3.715   2.547
20407WAT     H261464   2.869   3.805   2.533
20408WAT      O61465   6.375   1.997   5.403
20408WAT     H161466   6.352   1.966   5.495
20408WAT     H261467   6.432   1.929   5.357
20409WAT      O61468   8.726   4.183   0.289
20409WAT     H161469   8.816   4.184   0.246
20409WAT     H261470   8.723   4.114   0.361
20410WAT      O61471   4.629   4.572   1.188
20410WAT     H161472   4.561   4.597   1.120
20410WAT     H261473   4.658   4.478   1.173
20411WAT      O61474   9.649   6.594   5.858
20411WAT     H161475   9.578   6.531   5.827
20411WAT     H261476   9.708   6.617   5.781
20412WAT      O61477   1.060   8.190   0.004
20412WAT     H161478   0.964   8.207   0.029
20412WAT     H261479   1.120   8.229   0.074
20413WAT      O61480   1.555   7.956   8.016
20413WAT     H161481   1.456   7.968   8.006
20413WAT     H261482   1.573   7.877   8.074
20414WAT      O61483   0.128   5.183   6.900
20414WAT     H161484   0.085   5.255   6.955
20414WAT     H261485   0.057   5.137   6.845
20415WAT      O61486   7.061   1.758   5.777
20415WAT     H161487   6.995   1.690   5.810
20415WAT     H261488   7.074   1.828   5.846
20416WAT      O61489   2.833   7.676   4.125
20416WAT     H161490   2.933   7.682   4.116
20416WAT     H261491   2.791   7.676   4.035
20417WAT      O61492   0.144   9.716   1.106
20417WAT     H161493   0.089   9.707   1.023
20417WAT     H261494   0.095   9.773   1.172
20418WAT      O61495   5.012   1.262   1.957
20418WAT     H161496   4.943   1.212   2.009
20418WAT     H261497   5.089   1.285   2.017
20419WAT      O61498   7.886   6.828   6.820
20419WAT     H161499   7.901   6.738   6.779
20419WAT     H261500   7.850   6.816   6.913
20420WAT      O61501   8.118   2.408   1.036
20420WAT     H161502   8.200   2.444   0.990
20420WAT     H261503   8.136   2.314   1.067
20421WAT      O61504   2.164   8.283   2.662
20421WAT     H161505   2.210   8.366   2.694
20421WAT     H261506   2.233   8.217   2.632
20422WAT      O61507   3.979   7.541   9.537
20422WAT     H161508   3.906   7.474   9.521
20422WAT     H261509   3.949   7.631   9.506
20423WAT      O61510   0.334   6.598   5.107
20423WAT     H161511   0.280   6.630   5.184
20423WAT     H261512   0.347   6.672   5.041
20424WAT      O61513   9.705   5.691   8.116
20424WAT     H161514   9.708   5.787   8.143
20424WAT     H261515   9.668   5.683   8.023
20425WAT      O61516   4.995   7.705   6.420
20425WAT     H161517   4.960   7.616   6.391
20425WAT     H261518   4.946   7.736   6.501
20426WAT      O61519   5.345   3.046   2.772
20426WAT     H161520   5.373   3.001   2.857
20426WAT     H261521   5.253   3.083   2.783
20427WAT      O61522   9.460   8.148   0.426
20427WAT     H161523   9.455   8.237   0.381
20427WAT     H261524   9.412   8.079   0.372
20428WAT      O61525   4.649   1.748   7.902
20428WAT     H161526   4.658   1.730   7.804
20428WAT     H261527   4.711   1.821   7.929
20429WAT      O61528   8.261   3.577   7.014
20429WAT     H161529   8.348   3.572   6.966
20429WAT     H261530   8.229   3.484   7.033
20430WAT      O61531   2.247   5.063   9.343
20430WAT     H161532   2.190   5.080   9.263
20430WAT     H261533   2.340   5.096   9.325
20431WAT      O61534   0.700   3.421   6.390
20431WAT     H161535   0.752   3.450   6.310
20431WAT     H261536   0.618   3.478   6.399
20432WAT      O61537   4.707   7.890   0.271
20432WAT     H161538   4.670   7.896   0.364
20432WAT     H261539   4.635   7.912   0.205
20433WAT      O61540   6.228   4.778   1.304
20433WAT     H161541   6.268   4.712   1.241
20433WAT     H261542   6.142   4.742   1.341
20434WAT      O61543   4.378   4.991   3.821
20434WAT     H161544   4.437   4.975   3.741
20434WAT     H261545   4.428   4.968   3.904
20435WAT      O61546   6.794   7.662   1.102
20435WAT     H161547   6.849   7.688   1.022
20435WAT     H261548   6.812   7.567   1.126
20436WAT      O61549   6.876   9.265   3.778
20436WAT     H161550   6.959   9.230   3.735
20436WAT     H261551   6.836   9.336   3.720
20437WAT      O61552   7.175   7.917   8.874
20437WAT     H161553   7.177   7.882   8.968
20437WAT     H261554   7.171   8.016   8.875
20438WAT      O61555   1.497   1.709   7.906
20438WAT     H161556   1.410   1.755   7.925
20438WAT     H261557   1.518   1.717   7.809
20439WAT      O61558   8.217   7.919   1.415
20439WAT     H161559   8.125   7.902   1.382
20439WAT     H261560   8.215   7.986   1.489
20440WAT      O61561   5.604   6.059   2.970
20440WAT     H161562   5.560   6.071   2.881
20440WAT     H261563   5.544   6.094   3.042
20441WAT      O61564   8.710   3.616   0.273
20441WAT     H161565   8.653   3.695   0.297
20441WAT     H261566   8.755   3.633   0.186
20442WAT      O61567   7.143   6.743   4.041
20442WAT     H161568   7.234   6.755   4.080
20442WAT     H261569   7.117   6.647   4.045
20443WAT      O61570   2.481   6.006   4.156
20443WAT     H161571   2.515   5.960   4.073
20443WAT     H261572   2.557   6.023   4.218
20444WAT      O61573   8.077   6.212   3.383
20444WAT     H161574   8.176   6.203   3.398
20444WAT     H261575   8.048   6.304   3.408
20445WAT      O61576   3.876   7.803   6.144
20445WAT     H161577   3.823   7.782   6.061
20445WAT     H261578   3.830   7.764   6.224
20446WAT      O61579   5.928   9.237   9.209
20446WAT     H161580   6.021   9.198   9.210
20446WAT     H261581   5.869   9.184   9.269
20447WAT      O61582   6.838   1.654   0.305
20447WAT     H161583   6.811   1.672   0.210
20447WAT     H261584   6.918   1.593   0.306
20448WAT      O61585   2.509   4.218   5.555
20448WAT     H161586   2.553   4.175   5.634
20448WAT     H261587   2.413   4.238   5.577
20449WAT      O61588   5.783   8.404   9.727
20449WAT     H161589   5.836   8.403   9.812
20449WAT     H261590   5.711   8.335   9.733
20450WAT      O61591   9.820   5.102   6.749
20450WAT     H161592   9.857   5.124   6.659
20450WAT     H261593   9.842   5.008   6.773
20451WAT      O61594   8.599   3.426   8.848
20451WAT     H161595   8.648   3.361   8.906
20451WAT     H261596   8.655   3.448   8.768
20452WAT      O61597   8.179   7.194   7.686
20452WAT     H161598   8.248   7.137   7.730
20452WAT     H261599   8.089   7.149   7.692
20453WAT      O61600   8.050   1.968   2.882
20453WAT     H161601   7.978   2.028   2.917
20453WAT     H261602   8.012   1.908   2.812
20454WAT      O61603   6.230   7.301   5.438
20454WAT     H161604   6.163   7.326   5.368
20454WAT     H261605   6.205   7.344   5.525
20455WAT      O61606   1.094   1.001   6.683
20455WAT     H161607   1.054   0.924   6.632
20455WAT     H261608   1.191   1.009   6.659
20456WAT      O61609   8.332   8.389   2.996
20456WAT     H161610   8.401   8.332   3.041
20456WAT     H261611   8.374   8.434   2.917
20457WAT      O61612   1.085   5.557   1.297
20457WAT     H161613   0.987   5.547   1.314
20457WAT     H261614   1.135   5.534   1.380
20458WAT      O61615   4.570   0.778   4.275
20458WAT     H161616   4.556   0.853   4.339
20458WAT     H261617   4.606   0.814   4.189
20459WAT      O61618   3.503   4.711   9.020
20459WAT     H161619   3.466   4.623   9.049
20459WAT     H261620   3.603   4.705   9.016
20460WAT      O61621   5.539   4.642   4.463
20460WAT     H161622   5.512   4.630   4.558
20460WAT     H261623   5.458   4.639   4.405
20461WAT      O61624   2.138   6.026   4.742
20461WAT     H161625   2.177   6.117   4.755
20461WAT     H261626   2.039   6.032   4.747
20462WAT      O61627   6.831   8.980   8.720
20462WAT     H161628   6.822   9.047   8.647
20462WAT     H261629   6.741   8.958   8.757
20463WAT      O61630   4.189   5.144   9.277
20463WAT     H161631   4.194   5.079   9.201
20463WAT     H261632   4.231   5.103   9.358
20464WAT      O61633   3.670   3.800   0.910
20464WAT     H161634   3.579   3.781   0.874
20464WAT     H261635   3.739   3.750   0.857
20465WAT      O61636   9.758   5.026   1.898
20465WAT     H161637   9.679   5.080   1.867
20465WAT     H261638   9.775   4.953   1.832
20466WAT      O61639   0.238   0.643   6.054
20466WAT     H161640   0.150   0.686   6.072
20466WAT     H261641   0.311   0.708   6.076
20467WAT      O61642   2.458   8.063   2.723
20467WAT     H161643   2.399   8.065   2.643
20467WAT     H261644   2.516   7.981   2.720
20468WAT      O61645   0.439   7.715   6.153
20468WAT     H161646   0.528   7.726   6.109
20468WAT     H261647   0.427   7.786   6.222
20469WAT      O61648   7.385   7.293   9.146
20469WAT     H161649   7.385   7.253   9.238
20469WAT     H261650   7.291   7.301   9.113
20470WAT      O61651   7.554   1.882   1.493
20470WAT     H161652   7.613   1.940   1.550
20470WAT     H261653   7.461   1.881   1.531
20471WAT      O61654   1.077   8.674   3.777
20471WAT     H161655   1.045   8.730   3.700
20471WAT     H261656   1.138   8.728   3.834
20472WAT      O61657   5.165   1.599   6.164
20472WAT     H161658   5.111   1.597   6.080
20472WAT     H261659   5.177   1.694   6.194
20473WAT      O61660   4.173   7.320   8.112
20473WAT     H161661   4.102   7.284   8.051
20473WAT     H261662   4.172   7.268   8.198
20474WAT      O61663   4.658   3.920   2.532
20474WAT     H161664   4.654   3.976   2.615
20474WAT     H261665   4.570   3.873   2.520
20475WAT      O61666   6.829   8.633   7.783
20475WAT     H161667   6.915   8.623   7.732
20475WAT     H261668   6.786   8.543   7.793
20476WAT      O61669   2.473   4.517   7.370
20476WAT     H161670   2.441   4.474   7.286
20476WAT     H261671   2.423   4.603   7.385
20477WAT      O61672   4.228   3.230   0.036
20477WAT     H161673   4.187   3.277  -0.042
20477WAT     H261674   4.252   3.297   0.106
20478WAT      O61675   2.971   2.996   8.878
20478WAT     H161676   2.989   3.024   8.973
20478WAT     H261677   3.055   3.004   8.825
20479WAT      O61678   6.451   1.947   5.013
20479WAT     H161679   6.374   1.893   5.048
20479WAT     H261680   6.522   1.886   4.978
20480WAT      O61681   6.436   0.990   3.317
20480WAT     H161682   6.490   1.029   3.243
20480WAT     H261683   6.494   0.930   3.373
20481WAT      O61684   9.381   2.296   8.772
20481WAT     H161685   9.456   2.236   8.799
20481WAT     H261686   9.351   2.273   8.679
20482WAT      O61687   2.061   1.541   3.702
20482WAT     H161688   2.150   1.536   3.748
20482WAT     H261689   2.044   1.635   3.673
20483WAT      O61690   9.259   0.548   9.373
20483WAT     H161691   9.273   0.449   9.384
20483WAT     H261692   9.318   0.597   9.437
20484WAT      O61693   9.355   9.453   7.778
20484WAT     H161694   9.374   9.539   7.827
20484WAT     H261695   9.439   9.422   7.733
20485WAT      O61696   1.096   0.526   9.139
20485WAT     H161697   1.189   0.512   9.105
20485WAT     H261698   1.097   0.596   9.211
20486WAT      O61699   7.141   1.603   3.907
20486WAT     H161700   7.067   1.605   3.975
20486WAT     H261701   7.220   1.652   3.943
20487WAT      O61702   8.345   5.264   5.785
20487WAT     H161703   8.268   5.236   5.842
20487WAT     H261704   8.414   5.192   5.785
20488WAT      O61705   4.423   0.813   2.684
20488WAT     H161706   4.507   0.867   2.679
20488WAT     H261707   4.409   0.781   2.777
20489WAT      O61708   1.175   6.346   0.941
20489WAT     H161709   1.223   6.388   0.864
20489WAT     H261710   1.100   6.406   0.969
20490WAT      O61711   2.673   1.926   6.934
20490WAT     H161712   2.765   1.886   6.933
20490WAT     H261713   2.623   1.892   7.013
20491WAT      O61714   4.569   5.845   1.342
20491WAT     H161715   4.538   5.834   1.436
20491WAT     H261716   4.505   5.800   1.280
20492WAT      O61717   2.397   6.080   9.143
20492WAT     H161718   2.410   6.102   9.239
20492WAT     H261719   2.319   6.132   9.107
20493WAT      O61720   6.679   5.337   7.686
20493WAT     H161721   6.704   5.330   7.589
20493WAT     H261722   6.693   5.249   7.731
20494WAT      O61723   2.373   6.566   9.469
20494WAT     H161724   2.333   6.589   9.558
20494WAT     H261725   2.419   6.646   9.432
20495WAT      O61726   8.525   3.699   1.584
20495WAT     H161727   8.573   3.613   1.569
20495WAT     H261728   8.465   3.718   1.507
20496WAT      O61729   1.889   2.935   7.156
20496WAT     H161730   1.915   2.839   7.163
20496WAT     H261731   1.818   2.946   7.086
20497WAT      O61732   4.059   9.684   6.894
20497WAT     H161733   4.090   9.766   6.846
20497WAT     H261734   3.968   9.701   6.933
20498WAT      O61735   4.009   5.231   1.576
20498WAT     H161736   4.024   5.223   1.674
20498WAT     H261737   3.951   5.310   1.557
20499WAT      O61738   3.489   7.445   1.000
20499WAT     H161739   3.400   7.459   1.043
20499WAT     H261740   3.561   7.476   1.063
20500WAT      O61741   2.174   2.965   8.230
20500WAT     H161742   2.170   2.961   8.330
20500WAT     H261743   2.251   3.023   8.203
20501WAT      O61744   4.129   4.620   8.196
20501WAT     H161745   4.153   4.523   8.196
20501WAT     H261746   4.204   4.673   8.156
20502WAT      O61747   9.843   5.951   6.764
20502WAT     H161748   9.767   5.923   6.706
20502WAT     H261749   9.818   5.941   6.860
20503WAT      O61750   3.509   0.525   0.141
20503WAT     H161751   3.532   0.438   0.185
20503WAT     H261752   3.492   0.594   0.211
20504WAT      O61753   7.113   7.505   1.321
20504WAT     H161754   7.058   7.589   1.328
20504WAT     H261755   7.208   7.525   1.345
20505WAT      O61756   6.066   3.988   0.052
20505WAT     H161757   6.103   3.941   0.132
20505WAT     H261758   5.966   3.994   0.060
20506WAT      O61759   0.808   8.972   9.204
20506WAT     H161760   0.753   8.895   9.238
20506WAT     H261761   0.826   8.959   9.107
20507WAT      O61762   4.068   3.959   8.055
20507WAT     H161763   4.043   3.899   7.979
20507WAT     H261764   4.160   3.935   8.086
20508WAT      O61765   2.043   7.048   7.106
20508WAT     H161766   2.011   6.976   7.168
20508WAT     H261767   1.968   7.077   7.047
20509WAT      O61768   7.762   5.778   0.755
20509WAT     H161769   7.834   5.808   0.818
20509WAT     H261770   7.700   5.715   0.803
20510WAT      O61771   6.853   2.707   4.645
20510WAT     H161772   6.906   2.776   4.596
20510WAT     H261773   6.814   2.643   4.579
20511WAT      O61774   8.808   0.039   5.694
20511WAT     H161775   8.776   0.051   5.600
20511WAT     H261776   8.849  -0.051   5.704
20512WAT      O61777   7.628   8.749   7.129
20512WAT     H161778   7.698   8.787   7.069
20512WAT     H261779   7.621   8.806   7.211
20513WAT      O61780   5.870   5.022   3.991
20513WAT     H161781   5.945   5.026   3.925
20513WAT     H261782   5.792   4.975   3.951
20514WAT      O61783   7.533   4.604   6.505
20514WAT     H161784   7.567   4.599   6.411
20514WAT     H261785   7.544   4.698   6.539
20515WAT      O61786   3.005   9.367   7.366
20515WAT     H161787   3.005   9.408   7.458
20515WAT     H261788   2.936   9.412   7.309
20516WAT      O61789   7.876   3.815   9.442
20516WAT     H161790   7.924   3.840   9.527
20516WAT     H261791   7.921   3.737   9.400
20517WAT      O61792   3.253   5.179   7.796
20517WAT     H161793   3.255   5.089   7.753
20517WAT     H261794   3.313   5.180   7.875
20518WAT      O61795   6.478   1.755   5.273
20518WAT     H161796   6.397   1.777   5.219
20518WAT     H261797   6.552   1.726   5.211
20519WAT      O61798   7.446   7.804   5.088
20519WAT     H161799   7.402   7.743   5.154
20519WAT     H261800   7.476   7.887   5.134
20520WAT      O61801   7.346   4.599   5.129
20520WAT     H161802   7.353   4.500   5.143
20520WAT     H261803   7.249   4.624   5.122
20521WAT      O61804   1.307   6.007   0.655
20521WAT     H161805   1.293   5.973   0.748
20521WAT     H261806   1.398   6.049   0.648
20522WAT      O61807   5.023   6.395   8.511
20522WAT     H161808   5.058   6.306   8.539
20522WAT     H261809   5.098   6.462   8.511
20523WAT      O61810   1.704   7.522   7.715
20523WAT     H161811   1.654   7.452   7.664
20523WAT     H261812   1.654   7.609   7.710
20524WAT      O61813   3.754   4.032   0.760
20524WAT     H161814   3.700   4.113   0.736
20524WAT     H261815   3.695   3.964   0.804
20525WAT      O61816   1.423   5.551   2.247
20525WAT     H161817   1.506   5.603   2.225
20525WAT     H261818   1.409   5.481   2.176
20526WAT      O61819   1.956   2.189   5.038
20526WAT     H161820   1.904   2.104   5.037
20526WAT     H261821   1.901   2.262   5.078
20527WAT      O61822   0.162   1.730   4.012
20527WAT     H161823   0.072   1.702   4.046
20527WAT     H261824   0.199   1.802   4.072
20528WAT      O61825   9.536   4.131   9.309
20528WAT     H161826   9.482   4.201   9.262
20528WAT     H261827   9.627   4.168   9.331
20529WAT      O61828   1.147   2.662   3.944
20529WAT     H161829   1.190   2.730   4.004
20529WAT     H261830   1.052   2.688   3.927
20530WAT      O61831   1.514   2.399   6.657
20530WAT     H161832   1.500   2.483   6.709
20530WAT     H261833   1.584   2.343   6.702
20531WAT      O61834   1.660   2.471   3.996
20531WAT     H161835   1.665   2.473   3.896
20531WAT     H261836   1.570   2.439   4.024
20532WAT      O61837   8.089   3.698   0.045
20532WAT     H161838   8.091   3.730   0.140
20532WAT     H261839   8.182   3.679   0.014
20533WAT      O61840   7.694   7.989   0.270
20533WAT     H161841   7.627   8.026   0.334
20533WAT     H261842   7.685   7.890   0.266
20534WAT      O61843   5.049   0.576   7.398
20534WAT     H161844   5.085   0.669   7.397
20534WAT     H261845   5.020   0.552   7.491
20535WAT      O61846   7.191   7.455   9.459
20535WAT     H161847   7.245   7.372   9.443
20535WAT     H261848   7.151   7.451   9.551
20536WAT      O61849   4.456   6.321   8.691
20536WAT     H161850   4.486   6.284   8.779
20536WAT     H261851   4.416   6.247   8.636
20537WAT      O61852   4.759   2.938   3.625
20537WAT     H161853   4.751   2.940   3.526
20537WAT     H261854   4.829   2.873   3.653
20538WAT      O61855   3.306   1.857   6.061
20538WAT     H161856   3.219   1.890   6.026
20538WAT     H261857   3.377   1.865   5.991
20539WAT      O61858   7.715   2.879   4.248
20539WAT     H161859   7.637   2.931   4.212
20539WAT     H261860   7.734   2.909   4.341
20540WAT      O61861   9.362   1.464   7.712
20540WAT     H161862   9.322   1.479   7.621
20540WAT     H261863   9.374   1.366   7.726
20541WAT      O61864   5.300   0.889   3.965
20541WAT     H161865   5.242   0.881   4.046
20541WAT     H261866   5.245   0.872   3.883
20542WAT      O61867   7.230   6.904   8.185
20542WAT     H161868   7.133   6.891   8.163
20542WAT     H261869   7.282   6.910   8.100
20543WAT      O61870   1.695   1.167   5.537
20543WAT     H161871   1.749   1.206   5.462
20543WAT     H261872   1.693   1.232   5.613
20544WAT      O61873   3.239   5.738   2.848
20544WAT     H161874   3.284   5.825   2.868
20544WAT     H261875   3.302   5.677   2.801
20545WAT      O61876   4.708   1.028   4.948
20545WAT     H161877   4.753   0.945   4.917
20545WAT     H261878   4.614   1.030   4.913
20546WAT      O61879   2.386   3.524   1.987
20546WAT     H161880   2.455   3.498   1.920
20546WAT     H261881   2.407   3.615   2.022
20547WAT      O61882   1.479   8.975   5.646
20547WAT     H161883   1.490   9.031   5.564
20547WAT     H261884   1.470   9.034   5.726
20548WAT      O61885   2.416   0.745   3.807
20548WAT     H161886   2.439   0.664   3.862
20548WAT     H261887   2.452   0.827   3.851
20549WAT      O61888   0.498   1.855   2.568
20549WAT     H161889   0.498   1.861   2.668
20549WAT     H261890   0.528   1.942   2.530
20550WAT      O61891   1.764   9.721   6.889
20550WAT     H161892   1.685   9.759   6.842
20550WAT     H261893   1.759   9.745   6.986
20551WAT      O61894   5.006   4.142   7.141
20551WAT     H161895   4.972   4.226   7.099
20551WAT     H261896   4.987   4.065   7.081
20552WAT      O61897   2.253   3.844   7.835
20552WAT     H161898   2.169   3.888   7.802
20552WAT     H261899   2.326   3.857   7.767
20553WAT      O61900   9.716   9.281   7.955
20553WAT     H161901   9.738   9.190   7.919
20553WAT     H261902   9.739   9.284   8.053
20554WAT      O61903   6.923   3.390   2.424
20554WAT     H161904   6.823   3.384   2.429
20554WAT     H261905   6.949   3.460   2.358
20555WAT      O61906   1.328   2.442   1.158
20555WAT     H161907   1.326   2.351   1.199
20555WAT     H261908   1.398   2.444   1.086
20556WAT      O61909   5.891   9.642   8.946
20556WAT     H161910   5.860   9.547   8.934
20556WAT     H261911   5.990   9.646   8.934
20557WAT      O61912   7.130   0.252   6.435
20557WAT     H161913   7.209   0.241   6.373
20557WAT     H261914   7.046   0.241   6.383
20558WAT      O61915   7.519   8.955   0.621
20558WAT     H161916   7.560   8.978   0.533
20558WAT     H261917   7.579   8.985   0.695
20559WAT      O61918   8.488   7.116   7.118
20559WAT     H161919   8.587   7.107   7.128
20559WAT     H261920   8.459   7.075   7.032
20560WAT      O61921   1.252   1.528   4.829
20560WAT     H161922   1.296   1.551   4.741
20560WAT     H261923   1.222   1.433   4.827
20561WAT      O61924   0.767   5.445   7.568
20561WAT     H161925   0.670   5.445   7.591
20561WAT     H261926   0.780   5.487   7.479
20562WAT      O61927   2.401   4.975   8.079
20562WAT     H161928   2.485   4.943   8.035
20562WAT     H261929   2.322   4.930   8.036
20563WAT      O61930   4.808   0.489   6.392
20563WAT     H161931   4.827   0.484   6.294
20563WAT     H261932   4.709   0.490   6.407
20564WAT      O61933   5.614   8.451   3.383
20564WAT     H161934   5.535   8.511   3.393
20564WAT     H261935   5.675   8.462   3.461
20565WAT      O61936   6.465   4.148   0.676
20565WAT     H161937   6.381   4.151   0.622
20565WAT     H261938   6.462   4.218   0.747
20566WAT      O61939   7.895   5.300   6.111
20566WAT     H161940   7.952   5.253   6.178
20566WAT     H261941   7.798   5.289   6.135
20567WAT      O61942   6.263   4.023   8.174
20567WAT     H161943   6.187   3.995   8.116
20567WAT     H261944   6.232   4.032   8.269
20568WAT      O61945   2.527   2.289   0.564
20568WAT     H161946   2.458   2.347   0.609
20568WAT     H261947   2.573   2.342   0.493
20569WAT      O61948   9.723   6.508   3.788
20569WAT     H161949   9.718   6.496   3.888
20569WAT     H261950   9.690   6.599   3.764
20570WAT      O61951   7.530   6.915   9.256
20570WAT     H161952   7.482   6.881   9.337
20570WAT     H261953   7.553   6.838   9.197
20571WAT      O61954   7.707   2.910   6.832
20571WAT     H161955   7.804   2.911   6.853
20571WAT     H261956   7.688   2.971   6.755
20572WAT      O61957   8.013   2.879   7.522
20572WAT     H161958   8.031   2.781   7.518
20572WAT     H261959   7.982   2.904   7.613
20573WAT      O61960   8.519   1.233   7.091
20573WAT     H161961   8.568   1.216   7.177
20573WAT     H261962   8.524   1.151   7.034
20574WAT      O61963   1.140   0.156   7.788
20574WAT     H161964   1.178   0.148   7.881
20574WAT     H261965   1.203   0.114   7.723
20575WAT      O61966   5.721   6.935   6.617
20575WAT     H161967   5.751   6.882   6.696
20575WAT     H261968   5.788   6.926   6.543
20576WAT      O61969   9.779   3.720   1.639
20576WAT     H161970   9.858   3.769   1.675
20576WAT     H261971   9.775   3.731   1.540
20577WAT      O61972   2.773   6.695   4.745
20577WAT     H161973   2.691   6.746   4.772
20577WAT     H261974   2.852   6.755   4.753
20578WAT      O61975   0.158   0.927   5.875
20578WAT     H161976   0.195   0.857   5.814
20578WAT     H261977   0.183   1.018   5.840
20579WAT      O61978   4.059   3.111   3.932
20579WAT     H161979   3.979   3.051   3.940
20579WAT     H261980   4.110   3.109   4.018
20580WAT      O61981   9.037   6.889   0.785
20580WAT     H161982   9.075   6.907   0.876
20580WAT     H261983   8.984   6.804   0.788
20581WAT      O61984   7.513   2.832   3.969
20581WAT     H161985   7.505   2.922   4.012
20581WAT     H261986   7.423   2.788   3.968
20582WAT      O61987   5.201   2.920   5.232
20582WAT     H161988   5.128   2.858   5.262
20582WAT     H261989   5.206   2.997   5.295
20583WAT      O61990   2.326   3.241   5.203
20583WAT     H161991   2.299   3.332   5.234
20583WAT     H261992   2.307   3.232   5.105
20584WAT      O61993   0.831   7.016   2.424
20584WAT     H161994   0.843   7.025   2.523
20584WAT     H261995   0.737   6.987   2.404
20585WAT      O61996   1.256   9.635   9.085
20585WAT     H161997   1.193   9.628   9.007
20585WAT     H261998   1.220   9.702   9.150
20586WAT      O61999   0.944   2.966   3.469
20586WAT     H162000   1.016   2.898   3.484
20586WAT     H262001   0.985   3.057   3.466
20587WAT      O62002   7.403   3.431   3.961
20587WAT     H162003   7.441   3.340   3.973
20587WAT     H262004   7.440   3.473   3.878
20588WAT      O62005   9.098   4.081   8.149
20588WAT     H162006   9.114   4.178   8.172
20588WAT     H262007   9.027   4.044   8.209
20589WAT      O62008   8.775   1.015   6.426
20589WAT     H162009   8.759   1.076   6.504
20589WAT     H262010   8.772   0.920   6.457
20590WAT      O62011   8.654   6.251   3.026
20590WAT     H162012   8.630   6.192   3.103
20590WAT     H262013   8.753   6.261   3.020
20591WAT      O62014   0.282   0.341   4.027
20591WAT     H162015   0.261   0.410   3.957
20591WAT     H262016   0.271   0.250   3.987
20592WAT      O62017   0.365   0.174   9.593
20592WAT     H162018   0.384   0.130   9.681
20592WAT     H262019   0.407   0.120   9.519
20593WAT      O62020   1.335   0.892   0.357
20593WAT     H162021   1.287   0.806   0.377
20593WAT     H262022   1.341   0.904   0.258
20594WAT      O62023   9.422   6.497   8.683
20594WAT     H162024   9.367   6.499   8.767
20594WAT     H262025   9.512   6.536   8.702
20595WAT      O62026   9.509   4.579   8.016
20595WAT     H162027   9.423   4.536   8.041
20595WAT     H262028   9.570   4.510   7.974
20596WAT      O62029   2.583   9.596   9.781
20596WAT     H162030   2.651   9.669   9.781
20596WAT     H262031   2.568   9.565   9.875
20597WAT      O62032   4.210   2.016   0.296
20597WAT     H162033   4.112   2.032   0.287
20597WAT     H262034   4.241   2.049   0.386
20598WAT      O62035   3.184   8.347   4.532
20598WAT     H162036   3.271   8.332   4.579
20598WAT     H262037   3.130   8.414   4.581
20599WAT      O62038   9.539   7.928   7.272
20599WAT     H162039   9.544   7.840   7.319
20599WAT     H262040   9.499   7.996   7.333
20600WAT      O62041   3.689   6.512   8.462
20600WAT     H162042   3.719   6.575   8.533
20600WAT     H262043   3.591   6.524   8.446
20601WAT      O62044   1.935   7.735   4.681
20601WAT     H162045   2.017   7.791   4.673
20601WAT     H262046   1.865   7.785   4.731
20602WAT      O62047   8.157   8.100   9.255
20602WAT     H162048   8.084   8.045   9.297
20602WAT     H262049   8.156   8.085   9.156
20603WAT      O62050   0.876   0.861   9.527
20603WAT     H162051   0.820   0.823   9.453
20603WAT     H262052   0.930   0.937   9.492
20604WAT      O62053   6.761   7.366   1.228
20604WAT     H162054   6.834   7.302   1.203
20604WAT     H262055   6.713   7.332   1.308
20605WAT      O62056   7.696   5.654   1.772
20605WAT     H162057   7.751   5.687   1.695
20605WAT     H262058   7.633   5.726   1.801
20606WAT      O62059   7.805   6.576   8.380
20606WAT     H162060   7.892   6.566   8.331
20606WAT     H262061   7.732   6.594   8.315
20607WAT      O62062   2.609   3.292   8.763
20607WAT     H162063   2.634   3.216   8.822
20607WAT     H262064   2.567   3.257   8.679
20608WAT      O62065   4.499   4.735   6.988
20608WAT     H162066   4.521   4.711   6.893
20608WAT     H262067   4.570   4.795   7.024
20609WAT      O62068   4.900   9.237   3.593
20609WAT     H162069   4.916   9.312   3.658
20609WAT     H262070   4.841   9.169   3.636
20610WAT      O62071   9.737   9.843   7.321
20610WAT     H162072   9.753   9.892   7.236
20610WAT     H262073   9.808   9.774   7.335
20611WAT      O62074   0.035   1.724   3.465
20611WAT     H162075   0.017   1.717   3.563
20611WAT     H262076   0.010   1.815   3.432
20612WAT      O62077   3.852   5.009   7.152
20612WAT     H162078   3.796   5.083   7.188
20612WAT     H262079   3.933   4.998   7.208
20613WAT      O62080   1.930   5.758   8.201
20613WAT     H162081   1.906   5.706   8.283
20613WAT     H262082   2.023   5.795   8.211
20614WAT      O62083   8.265   3.616   5.613
20614WAT     H162084   8.336   3.548   5.634
20614WAT     H262085   8.278   3.649   5.519
20615WAT      O62086   3.864   3.250   5.051
20615WAT     H162087   3.936   3.182   5.062
20615WAT     H262088   3.785   3.208   5.006
20616WAT      O62089   0.664   6.402   3.715
20616WAT     H162090   0.661   6.305   3.740
20616WAT     H262091   0.660   6.458   3.798
20617WAT      O62092   2.579   3.803   0.338
20617WAT     H162093   2.501   3.742   0.325
20617WAT     H262094   2.559   3.892   0.298
20618WAT      O62095   3.968   7.274   4.909
20618WAT     H162096   3.928   7.358   4.945
20618WAT     H262097   4.059   7.293   4.872
20619WAT      O62098   4.791   5.619   1.158
20619WAT     H162099   4.856   5.607   1.233
20619WAT     H262100   4.702   5.644   1.196
20620WAT      O62101   6.130   4.666   6.382
20620WAT     H162102   6.058   4.612   6.426
20620WAT     H262103   6.113   4.763   6.398
20621WAT      O62104   9.285   2.954   1.292
20621WAT     H162105   9.205   2.895   1.301
20621WAT     H262106   9.266   3.026   1.226
20622WAT      O62107   8.852   7.218   8.665
20622WAT     H162108   8.904   7.271   8.597
20622WAT     H262109   8.760   7.256   8.674
20623WAT      O62110   9.310   8.809   7.664
20623WAT     H162111   9.338   8.902   7.639
20623WAT     H262112   9.379   8.769   7.724
20624WAT      O62113   5.744   5.443   4.493
20624WAT     H162114   5.678   5.383   4.538
20624WAT     H262115   5.750   5.420   4.396
20625WAT      O62116   8.859   2.259   3.118
20625WAT     H162117   8.902   2.196   3.053
20625WAT     H262118   8.929   2.316   3.160
20626WAT      O62119   0.572   6.644   4.025
20626WAT     H162120   0.574   6.544   4.029
20626WAT     H262121   0.478   6.676   4.027
20627WAT      O62122   0.494   4.524   4.494
20627WAT     H162123   0.451   4.451   4.442
20627WAT     H262124   0.425   4.576   4.544
20628WAT      O62125   1.924   9.089   0.471
20628WAT     H162126   1.941   9.043   0.558
20628WAT     H262127   1.844   9.049   0.427
20629WAT      O62128   2.914   6.091   6.320
20629WAT     H162129   2.851   6.146   6.375
20629WAT     H262130   2.928   6.002   6.363
20630WAT      O62131   2.734   9.229   6.932
20630WAT     H162132   2.686   9.225   6.844
20630WAT     H262133   2.673   9.270   7.000
20631WAT      O62134   9.676   8.705   5.791
20631WAT     H162135   9.608   8.635   5.770
20631WAT     H262136   9.674   8.724   5.889
20632WAT      O62137   0.137   0.447   2.605
20632WAT     H162138   0.124   0.497   2.520
20632WAT     H262139   0.218   0.389   2.597
20633WAT      O62140   0.811   0.068   8.054
20633WAT     H162141   0.756   0.037   8.131
20633WAT     H262142   0.827   0.166   8.061
20634WAT      O62143   2.386   7.051   8.053
20634WAT     H162144   2.377   7.151   8.058
20634WAT     H262145   2.360   7.020   7.962
20635WAT      O62146   9.250   2.067   3.944
20635WAT     H162147   9.211   2.024   3.863
20635WAT     H262148   9.327   2.125   3.918
20636WAT      O62149   5.088   1.351   2.756
20636WAT     H162150   5.111   1.313   2.846
20636WAT     H262151   4.999   1.314   2.727
20637WAT      O62152   7.744   4.351   2.387
20637WAT     H162153   7.751   4.274   2.324
20637WAT     H262154   7.696   4.321   2.470
20638WAT      O62155   6.761   4.949   3.227
20638WAT     H162156   6.742   4.852   3.242
20638WAT     H262157   6.683   4.993   3.183
20639WAT      O62158   9.556   0.199   6.990
20639WAT     H162159   9.520   0.206   7.083
20639WAT     H262160   9.494   0.245   6.926
20640WAT      O62161   4.130   2.264   4.510
20640WAT     H162162   4.203   2.297   4.451
20640WAT     H262163   4.047   2.319   4.496
20641WAT      O62164   6.930   3.323   2.686
20641WAT     H162165   6.850   3.381   2.701
20641WAT     H262166   6.959   3.329   2.590
20642WAT      O62167   3.067   2.876   5.515
20642WAT     H162168   3.119   2.960   5.526
20642WAT     H262169   3.045   2.838   5.605
20643WAT      O62170   4.988   3.647   0.197
20643WAT     H162171   5.079   3.682   0.222
20643WAT     H262172   4.931   3.642   0.279
20644WAT      O62173   1.622   4.285   8.165
20644WAT     H162174   1.568   4.363   8.134
20644WAT     H262175   1.710   4.316   8.199
20645WAT      O62176   2.696   1.009   8.529
20645WAT     H162177   2.763   0.962   8.471
20645WAT     H262178   2.619   1.040   8.472
20646WAT      O62179   8.507   1.666   4.417
20646WAT     H162180   8.486   1.600   4.345
20646WAT     H262181   8.593   1.641   4.462
20647WAT      O62182   0.463   1.132   1.230
20647WAT     H162183   0.449   1.073   1.150
20647WAT     H262184   0.514   1.214   1.203
20648WAT      O62185   1.922   1.521   4.513
20648WAT     H162186   1.901   1.567   4.426
20648WAT     H262187   1.842   1.470   4.544
20649WAT      O62188   6.024   5.086   6.625
20649WAT     H162189   6.115   5.048   6.609
20649WAT     H262190   5.972   5.083   6.540
20650WAT      O62191   6.952   8.649   9.532
20650WAT     H162192   6.921   8.745   9.529
20650WAT     H262193   7.002   8.628   9.448
20651WAT      O62194   6.770   8.831   2.044
20651WAT     H162195   6.785   8.777   2.127
20651WAT     H262196   6.835   8.906   2.042
20652WAT      O62197   8.921   5.220   3.757
20652WAT     H162198   8.827   5.221   3.792
20652WAT     H262199   8.956   5.126   3.759
20653WAT      O62200   5.429   3.786   7.668
20653WAT     H162201   5.520   3.748   7.686
20653WAT     H262202   5.410   3.861   7.732
20654WAT      O62203   2.865   4.262   8.252
20654WAT     H162204   2.888   4.277   8.155
20654WAT     H262205   2.895   4.171   8.280
20655WAT      O62206   8.603   6.541   1.885
20655WAT     H162207   8.561   6.570   1.971
20655WAT     H262208   8.606   6.619   1.822
20656WAT      O62209   9.584   8.804   4.047
20656WAT     H162210   9.553   8.897   4.065
20656WAT     H262211   9.660   8.807   3.982
20657WAT      O62212   6.372   6.302   0.943
20657WAT     H162213   6.428   6.385   0.948
20657WAT     H262214   6.431   6.221   0.948
20658WAT      O62215   6.330   1.917   7.374
20658WAT     H162216   6.361   1.898   7.280
20658WAT     H262217   6.317   2.015   7.385
20659WAT      O62218   9.887   3.265   9.176
20659WAT     H162219   9.874   3.168   9.196
20659WAT     H262220   9.852   3.285   9.084
20660WAT      O62221   4.549   4.728   5.767
20660WAT     H162222   4.556   4.827   5.775
20660WAT     H262223   4.631   4.685   5.807
20661WAT      O62224   3.530   8.826   6.053
20661WAT     H162225   3.495   8.908   6.007
20661WAT     H262226   3.455   8.763   6.072
20662WAT      O62227   2.672   4.483   6.752
20662WAT     H162228   2.582   4.514   6.783
20662WAT     H262229   2.739   4.496   6.826
20663WAT      O62230   2.361   2.372   7.870
20663WAT     H162231   2.370   2.329   7.960
20663WAT     H262232   2.268   2.408   7.860
20664WAT      O62233   3.655   3.246   5.383
20664WAT     H162234   3.608   3.273   5.467
20664WAT     H262235   3.749   3.279   5.385
20665WAT      O62236   1.520   1.244   2.473
20665WAT     H162237   1.423   1.263   2.454
20665WAT     H262238   1.572   1.248   2.388
20666WAT      O62239   0.581   4.565   5.297
20666WAT     H162240   0.560   4.662   5.296
20666WAT     H262241   0.559   4.527   5.388
20667WAT      O62242   1.410   6.185   4.589
20667WAT     H162243   1.351   6.246   4.643
20667WAT     H262244   1.500   6.226   4.580
20668WAT      O62245   6.182   4.520   0.708
20668WAT     H162246   6.117   4.444   0.698
20668WAT     H262247   6.134   4.607   0.698
20669WAT      O62248   1.782   1.400   1.114
20669WAT     H162249   1.757   1.346   1.034
20669WAT     H262250   1.700   1.431   1.160
20670WAT      O62251   4.157   9.075   2.841
20670WAT     H162252   4.136   9.172   2.831
20670WAT     H262253   4.204   9.059   2.927
20671WAT      O62254   8.303   0.486   8.086
20671WAT     H162255   8.402   0.497   8.077
20671WAT     H262256   8.261   0.574   8.109
20672WAT      O62257   0.672   2.977   5.247
20672WAT     H162258   0.685   3.075   5.262
20672WAT     H262259   0.623   2.939   5.325
20673WAT      O62260   2.165   4.081   5.786
20673WAT     H162261   2.232   4.017   5.824
20673WAT     H262262   2.210   4.167   5.764
20674WAT      O62263   5.398   2.185   8.832
20674WAT     H162264   5.379   2.103   8.885
20674WAT     H262265   5.416   2.159   8.737
20675WAT      O62266   3.965   3.325   5.843
20675WAT     H162267   4.015   3.366   5.767
20675WAT     H262268   4.019   3.334   5.927
20676WAT      O62269   4.725   5.991   0.121
20676WAT     H162270   4.677   5.996   0.208
20676WAT     H262271   4.660   5.978   0.046
20677WAT      O62272   3.461   9.391   5.515
20677WAT     H162273   3.553   9.405   5.553
20677WAT     H262274   3.454   9.297   5.480
20678WAT      O62275   0.663   3.726   4.850
20678WAT     H162276   0.615   3.640   4.868
20678WAT     H262277   0.607   3.782   4.788
20679WAT      O62278   9.232   3.364   4.423
20679WAT     H162279   9.280   3.451   4.415
20679WAT     H262280   9.216   3.343   4.519
20680WAT      O62281   7.416   8.567   1.765
20680WAT     H162282   7.402   8.544   1.669
20680WAT     H262283   7.328   8.583   1.809
20681WAT      O62284   3.464   7.305   1.603
20681WAT     H162285   3.460   7.211   1.569
20681WAT     H262286   3.519   7.360   1.540
20682WAT      O62287   6.571   6.550   0.548
20682WAT     H162288   6.512   6.519   0.473
20682WAT     H262289   6.515   6.571   0.628
20683WAT      O62290   9.861   7.334   5.180
20683WAT     H162291   9.902   7.289   5.100
20683WAT     H262292   9.904   7.300   5.263
20684WAT      O62293   1.119   3.004   2.327
20684WAT     H162294   1.143   3.101   2.319
20684WAT     H262295   1.132   2.959   2.239
20685WAT      O62296   9.104   7.421   3.156
20685WAT     H162297   9.130   7.465   3.070
20685WAT     H262298   9.179   7.426   3.222
20686WAT      O62299   5.277   8.565   1.310
20686WAT     H162300   5.292   8.548   1.212
20686WAT     H262301   5.191   8.521   1.339
20687WAT      O62302   9.205   6.573   6.055
20687WAT     H162303   9.191   6.599   6.150
20687WAT     H262304   9.117   6.571   6.007
20688WAT      O62305   9.499   7.245   3.112
20688WAT     H162306   9.473   7.278   3.021
20688WAT     H262307   9.495   7.145   3.113
20689WAT      O62308   7.367   3.140   7.439
20689WAT     H162309   7.326   3.225   7.405
20689WAT     H262310   7.452   3.121   7.390
20690WAT      O62311   7.315   3.140   2.943
20690WAT     H162312   7.223   3.108   2.920
20690WAT     H262313   7.315   3.176   3.036
20691WAT      O62314   9.458   3.922   7.508
20691WAT     H162315   9.399   3.871   7.445
20691WAT     H262316   9.443   3.889   7.602
20692WAT      O62317   9.541   2.483   4.567
20692WAT     H162318   9.458   2.442   4.605
20692WAT     H262319   9.525   2.580   4.548
20693WAT      O62320   2.138   5.371   3.070
20693WAT     H162321   2.118   5.302   3.140
20693WAT     H262322   2.217   5.425   3.099
20694WAT      O62323   2.999   8.694   2.038
20694WAT     H162324   3.078   8.755   2.044
20694WAT     H262325   2.964   8.694   1.945
20695WAT      O62326   2.448   4.313   7.566
20695WAT     H162327   2.419   4.394   7.515
20695WAT     H262328   2.537   4.282   7.533
20696WAT      O62329   5.872   6.354   2.872
20696WAT     H162330   5.906   6.270   2.913
20696WAT     H262331   5.853   6.338   2.775
20697WAT      O62332   7.127   0.610   3.212
20697WAT     H162333   7.084   0.520   3.217
20697WAT     H262334   7.196   0.610   3.140
20698WAT      O62335   3.070   4.579   7.786
20698WAT     H162336   3.005   4.642   7.743
20698WAT     H262337   3.020   4.506   7.832
20699WAT      O62338   1.147   7.729   5.652
20699WAT     H162339   1.226   7.739   5.713
20699WAT     H262340   1.066   7.706   5.707
20700WAT      O62341   0.930   7.831   1.560
20700WAT     H162342   0.996   7.905   1.568
20700WAT     H262343   0.850   7.850   1.618
20701WAT      O62344   2.014   7.175   6.193
20701WAT     H162345   2.062   7.204   6.110
20701WAT     H262346   1.955   7.098   6.172
20702WAT      O62347   4.151   1.894   3.429
20702WAT     H162348   4.071   1.841   3.458
20702WAT     H262349   4.187   1.944   3.508
20703WAT      O62350   3.907   1.332   3.399
20703WAT     H162351   3.928   1.411   3.341
20703WAT     H262352   3.907   1.249   3.343
20704WAT      O62353   7.950   7.027   3.361
20704WAT     H162354   8.002   7.067   3.436
20704WAT     H262355   7.883   7.093   3.328
20705WAT      O62356   6.889   8.506   1.653
20705WAT     H162357   6.883   8.526   1.751
20705WAT     H262358   6.815   8.552   1.605
20706WAT      O62359   7.437   4.478   4.219
20706WAT     H162360   7.482   4.566   4.236
20706WAT     H262361   7.489   4.426   4.151
20707WAT      O62362   3.935   7.617   2.703
20707WAT     H162363   3.972   7.582   2.789
20707WAT     H262364   4.011   7.640   2.642
20708WAT      O62365   2.505   1.843   3.795
20708WAT     H162366   2.488   1.932   3.837
20708WAT     H262367   2.591   1.846   3.743
20709WAT      O62368   3.285   6.077   4.166
20709WAT     H162369   3.248   6.164   4.199
20709WAT     H262370   3.367   6.054   4.218
20710WAT      O62371   6.104   2.705   7.891
20710WAT     H162372   6.119   2.610   7.917
20710WAT     H262373   6.006   2.724   7.888
20711WAT      O62374   8.446   1.536   3.145
20711WAT     H162375   8.539   1.500   3.157
20711WAT     H262376   8.450   1.633   3.121
20712WAT      O62377   0.049   7.056   8.712
20712WAT     H162378  -0.040   7.102   8.717
20712WAT     H262379   0.074   7.043   8.616
20713WAT      O62380   3.529   1.119   1.355
20713WAT     H162381   3.525   1.167   1.442
20713WAT     H262382   3.504   1.023   1.369
20714WAT      O62383   5.248   9.422   6.762
20714WAT     H162384   5.204   9.352   6.706
20714WAT     H262385   5.196   9.508   6.755
20715WAT      O62386   5.365   6.032   3.767
20715WAT     H162387   5.375   5.953   3.707
20715WAT     H262388   5.268   6.058   3.772
20716WAT      O62389   5.558   4.721   8.017
20716WAT     H162390   5.636   4.765   8.061
20716WAT     H262391   5.476   4.733   8.074
20717WAT      O62392   2.930   2.261   5.877
20717WAT     H162393   2.886   2.180   5.915
20717WAT     H262394   3.029   2.249   5.876
20718WAT      O62395   2.238   5.644   1.380
20718WAT     H162396   2.176   5.721   1.362
20718WAT     H262397   2.266   5.645   1.475
20719WAT      O62398   5.510   5.547   2.296
20719WAT     H162399   5.464   5.557   2.385
20719WAT     H262400   5.609   5.540   2.311
20720WAT      O62401   6.534   5.746   6.847
20720WAT     H162402   6.614   5.798   6.817
20720WAT     H262403   6.479   5.721   6.767
20721WAT      O62404   5.470   2.358   2.614
20721WAT     H162405   5.418   2.296   2.554
20721WAT     H262406   5.567   2.346   2.597
20722WAT      O62407   1.021   6.550   4.539
20722WAT     H162408   1.082   6.477   4.507
20722WAT     H262409   1.017   6.623   4.471
20723WAT      O62410   8.758   1.969   8.195
20723WAT     H162411   8.672   1.933   8.233
20723WAT     H262412   8.738   2.037   8.125
20724WAT      O62413   8.063   1.137   8.337
20724WAT     H162414   8.117   1.219   8.318
20724WAT     H262415   8.030   1.098   8.251
20725WAT      O62416   4.589   1.726   4.950
20725WAT     H162417   4.504   1.694   4.991
20725WAT     H262418   4.624   1.656   4.889
20726WAT      O62419   6.412   3.957   7.579
20726WAT     H162420   6.394   4.048   7.616
20726WAT     H262421   6.333   3.927   7.526
20727WAT      O62422   5.324   7.784   7.627
20727WAT     H162423   5.302   7.777   7.724
20727WAT     H262424   5.280   7.866   7.589
20728WAT      O62425   7.560   4.830   1.903
20728WAT     H162426   7.591   4.753   1.847
20728WAT     H262427   7.466   4.855   1.878
20729WAT      O62428   1.618   1.214   6.104
20729WAT     H162429   1.520   1.231   6.097
20729WAT     H262430   1.648   1.160   6.026
20730WAT      O62431   0.274   7.593   6.495
20730WAT     H162432   0.188   7.582   6.445
20730WAT     H262433   0.351   7.571   6.435
20731WAT      O62434   8.107   3.953   6.420
20731WAT     H162435   8.166   4.025   6.382
20731WAT     H262436   8.142   3.864   6.393
20732WAT      O62437   3.849   2.422   1.218
20732WAT     H162438   3.939   2.465   1.229
20732WAT     H262439   3.826   2.371   1.301
20733WAT      O62440   8.492   8.908   5.972
20733WAT     H162441   8.392   8.897   5.973
20733WAT     H262442   8.522   8.923   5.877
20734WAT      O62443   0.987   9.187   5.802
20734WAT     H162444   0.933   9.271   5.800
20734WAT     H262445   1.078   9.207   5.841
20735WAT      O62446   0.802   2.555   0.056
20735WAT     H162447   0.876   2.509   0.105
20735WAT     H262448   0.837   2.640   0.017
20736WAT      O62449   6.247   7.719   4.361
20736WAT     H162450   6.214   7.641   4.308
20736WAT     H262451   6.183   7.739   4.436
20737WAT      O62452   7.109   6.449   7.371
20737WAT     H162453   7.201   6.483   7.352
20737WAT     H262454   7.041   6.511   7.332
20738WAT      O62455   0.702   5.248   4.495
20738WAT     H162456   0.752   5.226   4.412
20738WAT     H262457   0.693   5.166   4.551
20739WAT      O62458   0.262   6.647   4.493
20739WAT     H162459   0.170   6.645   4.454
20739WAT     H262460   0.329   6.636   4.419
20740WAT      O62461   9.069   0.699   3.661
20740WAT     H162462   9.045   0.664   3.752
20740WAT     H262463   8.991   0.751   3.625
20741WAT      O62464   3.982   7.998   7.356
20741WAT     H162465   4.061   7.996   7.417
20741WAT     H262466   3.918   8.068   7.386
20742WAT      O62467   5.763   1.251   9.763
20742WAT     H162468   5.754   1.263   9.862
20742WAT     H262469   5.726   1.162   9.737
20743WAT      O62470   0.017   3.016   1.064
20743WAT     H162471  -0.023   2.926   1.045
20743WAT     H262472   0.116   3.012   1.050
20744WAT      O62473   1.367   7.733   4.338
20744WAT     H162474   1.411   7.676   4.268
20744WAT     H262475   1.386   7.695   4.429
20745WAT      O62476   1.640   3.453   7.575
20745WAT     H162477   1.706   3.412   7.638
20745WAT     H262478   1.686   3.521   7.518
20746WAT      O62479   7.719   0.910   9.800
20746WAT     H162480   7.810   0.935   9.833
20746WAT     H262481   7.656   0.986   9.815
20747WAT      O62482   6.495   2.338   0.450
20747WAT     H162483   6.573   2.287   0.484
20747WAT     H262484   6.463   2.402   0.520
20748WAT      O62485   7.208   6.498   2.439
20748WAT     H162486   7.288   6.479   2.382
20748WAT     H262487   7.165   6.411   2.466
20749WAT      O62488   8.404   6.699   0.857
20749WAT     H162489   8.456   6.616   0.879
20749WAT     H262490   8.346   6.724   0.934
20750WAT      O62491   8.055   3.129   8.284
20750WAT     H162492   8.038   3.046   8.231
20750WAT     H262493   8.068   3.105   8.380
20751WAT      O62494   2.517   7.272   4.044
20751WAT     H162495   2.513   7.197   3.979
20751WAT     H262496   2.493   7.239   4.136
20752WAT      O62497   6.494   4.003   5.755
20752WAT     H162498   6.522   3.929   5.693
20752WAT     H262499   6.496   3.969   5.849
20753WAT      O62500   1.247   9.367   7.514
20753WAT     H162501   1.269   9.410   7.602
20753WAT     H262502   1.166   9.308   7.526
20754WAT      O62503   2.816   7.700   9.317
20754WAT     H162504   2.801   7.783   9.370
20754WAT     H262505   2.902   7.658   9.345
20755WAT      O62506   9.282   6.802   4.287
20755WAT     H162507   9.342   6.765   4.358
20755WAT     H262508   9.297   6.901   4.281
20756WAT      O62509   7.821   7.151   2.335
20756WAT     H162510   7.866   7.239   2.318
20756WAT     H262511   7.759   7.159   2.413
20757WAT      O62512   2.329   0.773   9.670
20757WAT     H162513   2.347   0.778   9.571
20757WAT     H262514   2.232   0.792   9.687
20758WAT      O62515   4.474   2.869   3.775
20758WAT     H162516   4.476   2.779   3.733
20758WAT     H262517   4.493   2.939   3.705
20759WAT      O62518   2.985   4.938   2.846
20759WAT     H162519   2.907   4.952   2.907
20759WAT     H262520   2.976   4.850   2.800
20760WAT      O62521   9.411   5.207   1.091
20760WAT     H162522   9.484   5.144   1.116
20760WAT     H262523   9.356   5.228   1.172
20761WAT      O62524   5.639   1.508   0.086
20761WAT     H162525   5.639   1.566   0.005
20761WAT     H262526   5.551   1.517   0.134
20762WAT      O62527   6.677   6.218   4.494
20762WAT     H162528   6.693   6.306   4.450
20762WAT     H262529   6.585   6.185   4.471
20763WAT      O62530   6.794   9.002   7.950
20763WAT     H162531   6.753   8.973   8.036
20763WAT     H262532   6.756   8.948   7.875
20764WAT      O62533   7.868   6.334   3.991
20764WAT     H162534   7.865   6.276   3.909
20764WAT     H262535   7.918   6.418   3.970
20765WAT      O62536   2.162   3.936   6.164
20765WAT     H162537   2.234   3.902   6.103
20765WAT     H262538   2.120   4.017   6.124
20766WAT      O62539   6.508   5.844   8.654
20766WAT     H162540   6.526   5.876   8.560
20766WAT     H262541   6.557   5.903   8.718
20767WAT      O62542   7.259   9.342   3.908
20767WAT     H162543   7.213   9.362   3.995
20767WAT     H262544   7.253   9.422   3.848
20768WAT      O62545   8.508   3.236   6.994
20768WAT     H162546   8.549   3.147   6.972
20768WAT     H262547   8.578   3.298   7.028
20769WAT      O62548   8.648   0.280   8.087
20769WAT     H162549   8.650   0.216   8.164
20769WAT     H262550   8.619   0.232   8.004
20770WAT      O62551   4.526   7.978   0.082
20770WAT     H162552   4.499   7.958  -0.012
20770WAT     H262553   4.445   7.978   0.141
20771WAT      O62554   0.351   9.753   7.515
20771WAT     H162555   0.444   9.782   7.494
20771WAT     H262556   0.352   9.659   7.549
20772WAT      O62557   7.717   5.996   8.927
20772WAT     H162558   7.774   5.991   9.010
20772WAT     H262559   7.775   6.016   8.848
20773WAT      O62560   0.251   0.635   1.184
20773WAT     H162561   0.202   0.562   1.135
20773WAT     H262562   0.277   0.707   1.119
20774WAT      O62563   2.384   8.600   2.426
20774WAT     H162564   2.314   8.671   2.437
20774WAT     H262565   2.452   8.631   2.360
20775WAT      O62566   2.506   3.004   7.738
20775WAT     H162567   2.415   3.033   7.708
20775WAT     H262568   2.518   2.907   7.717
20776WAT      O62569   1.381   7.413   8.581
20776WAT     H162570   1.389   7.512   8.596
20776WAT     H262571   1.301   7.379   8.630
20777WAT      O62572   9.137   8.581   0.293
20777WAT     H162573   9.184   8.559   0.207
20777WAT     H262574   9.053   8.528   0.299
20778WAT      O62575   8.235   6.413   9.733
20778WAT     H162576   8.241   6.322   9.775
20778WAT     H262577   8.191   6.476   9.797
20779WAT      O62578   5.534   8.514   1.422
20779WAT     H162579   5.619   8.538   1.377
20779WAT     H262580   5.457   8.532   1.360
20780WAT      O62581   2.226   8.023   1.184
20780WAT     H162582   2.263   8.046   1.274
20780WAT     H262583   2.301   8.016   1.118
20781WAT      O62584   4.308   2.879   4.395
20781WAT     H162585   4.224   2.932   4.376
20781WAT     H262586   4.371   2.936   4.448
20782WAT      O62587   4.381   5.923   7.348
20782WAT     H162588   4.366   5.827   7.321
20782WAT     H262589   4.304   5.979   7.317
20783WAT      O62590   9.517   1.104   1.233
20783WAT     H162591   9.550   1.055   1.152
20783WAT     H262592   9.482   1.039   1.299
20784WAT      O62593   1.143   3.548   9.419
20784WAT     H162594   1.052   3.548   9.462
20784WAT     H262595   1.186   3.458   9.433
20785WAT      O62596   9.338   8.021   8.000
20785WAT     H162597   9.372   8.035   8.093
20785WAT     H262598   9.391   7.948   7.956
20786WAT      O62599   8.664   7.651   5.384
20786WAT     H162600   8.599   7.576   5.398
20786WAT     H262601   8.622   7.737   5.416
20787WAT      O62602   9.073   2.864   2.015
20787WAT     H162603   8.991   2.859   2.073
20787WAT     H262604   9.137   2.791   2.041
20788WAT      O62605   8.774   1.114   1.962
20788WAT     H162606   8.680   1.150   1.962
20788WAT     H262607   8.826   1.155   1.887
20789WAT      O62608   9.408   5.502   0.430
20789WAT     H162609   9.426   5.600   0.422
20789WAT     H262610   9.310   5.488   0.445
20790WAT      O62611   6.363   5.349   2.438
20790WAT     H162612   6.405   5.273   2.388
20790WAT     H262613   6.407   5.358   2.528
20791WAT      O62614   9.220   4.049   9.702
20791WAT     H162615   9.239   4.147   9.692
20791WAT     H262616   9.237   4.021   9.796
20792WAT      O62617   5.391   7.671   0.554
20792WAT     H162618   5.379   7.741   0.625
20792WAT     H262619   5.485   7.670   0.523
20793WAT      O62620   3.463   7.856   3.402
20793WAT     H162621   3.451   7.858   3.303
20793WAT     H262622   3.385   7.901   3.446
20794WAT      O62623   5.386   8.025   7.219
20794WAT     H162624   5.390   8.113   7.172
20794WAT     H262625   5.298   7.981   7.202
20795WAT      O62626   6.387   5.231   9.474
20795WAT     H162627   6.381   5.159   9.543
20795WAT     H262628   6.483   5.257   9.462
20796WAT      O62629   7.272   6.055   1.088
20796WAT     H162630   7.183   6.030   1.049
20796WAT     H262631   7.300   5.985   1.154
20797WAT      O62632   9.368   4.868   8.556
20797WAT     H162633   9.316   4.913   8.629
20797WAT     H262634   9.313   4.793   8.518
20798WAT      O62635   8.006   3.804   1.576
20798WAT     H162636   7.995   3.773   1.482
20798WAT     H262637   7.918   3.806   1.623
20799WAT      O62638   8.228   3.481   2.885
20799WAT     H162639   8.219   3.575   2.855
20799WAT     H262640   8.308   3.472   2.945
20800WAT      O62641   9.065   8.308   1.188
20800WAT     H162642   9.045   8.235   1.254
20800WAT     H262643   8.980   8.347   1.154
20801WAT      O62644   5.738   1.499   2.821
20801WAT     H162645   5.837   1.486   2.814
20801WAT     H262646   5.698   1.423   2.872
20802WAT      O62647   7.688   9.228   7.695
20802WAT     H162648   7.663   9.214   7.600
20802WAT     H262649   7.605   9.232   7.751
20803WAT      O62650   1.279   5.003   5.682
20803WAT     H162651   1.216   4.962   5.747
20803WAT     H262652   1.310   5.091   5.717
20804WAT      O62653   1.892   2.918   0.096
20804WAT     H162654   1.870   2.825   0.124
20804WAT     H262655   1.964   2.916   0.026
20805WAT      O62656   9.211   3.736   0.033
20805WAT     H162657   9.162   3.707  -0.049
20805WAT     H262658   9.253   3.657   0.077
20806WAT      O62659   7.227   6.346   3.413
20806WAT     H162660   7.245   6.438   3.379
20806WAT     H262661   7.295   6.323   3.483
20807WAT      O62662   0.998   8.507   4.921
20807WAT     H162663   0.969   8.478   4.829
20807WAT     H262664   0.929   8.567   4.960
20808WAT      O62665   1.858   1.111   1.847
20808WAT     H162666   1.924   1.059   1.794
20808WAT     H262667   1.797   1.161   1.786
20809WAT      O62668   2.986   8.246   2.143
20809WAT     H162669   2.900   8.202   2.117
20809WAT     H262670   3.013   8.311   2.072
20810WAT      O62671   0.602   2.179   7.207
20810WAT     H162672   0.670   2.234   7.159
20810WAT     H262673   0.606   2.085   7.174
20811WAT      O62674   3.030   3.473   7.056
20811WAT     H162675   3.097   3.399   7.047
20811WAT     H262676   2.963   3.450   7.126
20812WAT      O62677   1.884   9.131   8.204
20812WAT     H162678   1.908   9.089   8.117
20812WAT     H262679   1.877   9.230   8.192
20813WAT      O62680   3.371   2.746   8.828
20813WAT     H162681   3.289   2.803   8.821
20813WAT     H262682   3.344   2.649   8.826
20814WAT      O62683   0.228   5.449   4.422
20814WAT     H162684   0.176   5.534   4.433
20814WAT     H262685   0.325   5.470   4.419
20815WAT      O62686   5.426   4.666   4.002
20815WAT     H162687   5.366   4.663   4.082
20815WAT     H262688   5.516   4.701   4.029
20816WAT      O62689   9.667   1.184   1.695
20816WAT     H162690   9.573   1.215   1.682
20816WAT     H262691   9.676   1.089   1.666
20817WAT      O62692   0.789   7.874   4.924
20817WAT     H162693   0.814   7.778   4.936
20817WAT     H262694   0.792   7.898   4.827
20818WAT      O62695   2.856   3.492   5.080
20818WAT     H162696   2.821   3.464   4.990
20818WAT     H262697   2.887   3.411   5.130
20819WAT      O62698   6.988   1.464   1.749
20819WAT     H162699   6.940   1.471   1.662
20819WAT     H262700   6.941   1.519   1.818
20820WAT      O62701   3.274   5.056   0.978
20820WAT     H162702   3.251   5.061   1.075
20820WAT     H262703   3.206   5.000   0.930
20821WAT      O62704   2.335   6.515   7.946
20821WAT     H162705   2.313   6.602   7.989
20821WAT     H262706   2.393   6.461   8.007
20822WAT      O62707   1.097   1.532   4.487
20822WAT     H162708   1.103   1.602   4.559
20822WAT     H262709   1.112   1.442   4.527
20823WAT      O62710   5.904   6.352   6.828
20823WAT     H162711   5.873   6.268   6.781
20823WAT     H262712   5.826   6.398   6.869
20824WAT      O62713   5.021   1.181   5.899
20824WAT     H162714   5.019   1.227   5.810
20824WAT     H262715   4.934   1.132   5.914
20825WAT      O62716   4.630   8.694   5.085
20825WAT     H162717   4.677   8.766   5.136
20825WAT     H262718   4.697   8.641   5.032
20826WAT      O62719   9.442   6.977   7.338
20826WAT     H162720   9.359   7.032   7.351
20826WAT     H262721   9.519   7.038   7.321
20827WAT      O62722   5.281   3.748   8.272
20827WAT     H162723   5.342   3.827   8.261
20827WAT     H262724   5.261   3.709   8.183
20828WAT      O62725   3.341   7.198   7.094
20828WAT     H162726   3.290   7.157   7.170
20828WAT     H262727   3.439   7.189   7.112
20829WAT      O62728   2.227   4.771   6.228
20829WAT     H162729   2.219   4.728   6.318
20829WAT     H262730   2.143   4.822   6.209
20830WAT      O62731   2.116   3.285   3.477
20830WAT     H162732   2.102   3.360   3.543
20830WAT     H262733   2.150   3.323   3.391
20831WAT      O62734   2.899   0.458   8.371
20831WAT     H162735   2.824   0.483   8.311
20831WAT     H262736   2.868   0.463   8.466
20832WAT      O62737   9.595   4.301   1.135
20832WAT     H162738   9.567   4.275   1.227
20832WAT     H262739   9.667   4.239   1.102
20833WAT      O62740   3.550   6.889   7.945
20833WAT     H162741   3.491   6.891   8.026
20833WAT     H262742   3.645   6.904   7.973
20834WAT      O62743   8.411   2.409   2.694
20834WAT     H162744   8.313   2.401   2.714
20834WAT     H262745   8.435   2.343   2.623
20835WAT      O62746   1.803   9.199   2.469
20835WAT     H162747   1.777   9.137   2.544
20835WAT     H262748   1.893   9.239   2.489
20836WAT      O62749   8.952   7.670   7.712
20836WAT     H162750   8.901   7.666   7.626
20836WAT     H262751   9.049   7.658   7.695
20837WAT      O62752   4.741   6.081   3.747
20837WAT     H162753   4.746   6.129   3.659
20837WAT     H262754   4.710   6.145   3.818
20838WAT      O62755   8.665   2.315   7.670
20838WAT     H162756   8.684   2.381   7.743
20838WAT     H262757   8.590   2.255   7.698
20839WAT      O62758   2.379   0.578   6.469
20839WAT     H162759   2.418   0.498   6.515
20839WAT     H262760   2.343   0.641   6.538
20840WAT      O62761   8.138   7.466   4.921
20840WAT     H162762   8.125   7.532   4.848
20840WAT     H262763   8.078   7.388   4.908
20841WAT      O62764   9.646   5.211   9.644
20841WAT     H162765   9.673   5.302   9.676
20841WAT     H262766   9.584   5.169   9.711
20842WAT      O62767   0.777   6.735   7.124
20842WAT     H162768   0.845   6.692   7.064
20842WAT     H262769   0.756   6.826   7.089
20843WAT      O62770   6.612   1.645   7.271
20843WAT     H162771   6.684   1.583   7.301
20843WAT     H262772   6.580   1.618   7.180
20844WAT      O62773   8.478   3.524   6.874
20844WAT     H162774   8.562   3.550   6.921
20844WAT     H262775   8.485   3.430   6.841
20845WAT      O62776   3.421   4.330   6.587
20845WAT     H162777   3.504   4.277   6.569
20845WAT     H262778   3.343   4.285   6.543
20846WAT      O62779   1.177   6.311   2.525
20846WAT     H162780   1.253   6.376   2.524
20846WAT     H262781   1.182   6.254   2.442
20847WAT      O62782   3.215   9.186   4.099
20847WAT     H162783   3.196   9.096   4.141
20847WAT     H262784   3.176   9.257   4.157
20848WAT      O62785   4.257   8.614   7.754
20848WAT     H162786   4.312   8.531   7.755
20848WAT     H262787   4.315   8.693   7.737
20849WAT      O62788   9.438   5.813   2.106
20849WAT     H162789   9.536   5.802   2.091
20849WAT     H262790   9.411   5.767   2.191
20850WAT      O62791   1.449   5.801   7.362
20850WAT     H162792   1.479   5.775   7.270
20850WAT     H262793   1.498   5.745   7.429
20851WAT      O62794   6.219   5.738   9.294
20851WAT     H162795   6.306   5.774   9.260
20851WAT     H262796   6.206   5.645   9.261
20852WAT      O62797   8.621   7.692   9.692
20852WAT     H162798   8.716   7.663   9.699
20852WAT     H262799   8.607   7.774   9.748
20853WAT      O62800   5.951   4.705   1.991
20853WAT     H162801   5.891   4.768   2.039
20853WAT     H262802   5.948   4.615   2.036
20854WAT      O62803   9.197   7.136   2.620
20854WAT     H162804   9.211   7.104   2.527
20854WAT     H262805   9.276   7.111   2.676
20855WAT      O62806   7.832   7.912   3.245
20855WAT     H162807   7.791   7.828   3.280
20855WAT     H262808   7.913   7.889   3.190
20856WAT      O62809   4.286   4.148   6.363
20856WAT     H162810   4.386   4.145   6.375
20856WAT     H262811   4.243   4.148   6.453
20857WAT      O62812   0.179   7.561   7.394
20857WAT     H162813   0.097   7.582   7.341
20857WAT     H262814   0.228   7.646   7.413
20858WAT      O62815   0.843   9.596   3.757
20858WAT     H162816   0.941   9.576   3.754
20858WAT     H262817   0.828   9.689   3.789
20859WAT      O62818   0.257   6.379   3.167
20859WAT     H162819   0.187   6.417   3.227
20859WAT     H262820   0.333   6.444   3.158
20860WAT      O62821   7.028   3.371   5.581
20860WAT     H162822   6.990   3.464   5.571
20860WAT     H262823   7.114   3.376   5.631
20861WAT      O62824   1.700   0.795   0.388
20861WAT     H162825   1.627   0.861   0.406
20861WAT     H262826   1.659   0.706   0.368
20862WAT      O62827   5.830   0.534   9.443
20862WAT     H162828   5.764   0.610   9.440
20862WAT     H262829   5.865   0.524   9.536
20863WAT      O62830   4.528   3.706   8.287
20863WAT     H162831   4.468   3.626   8.295
20863WAT     H262832   4.522   3.761   8.371
20864WAT      O62833   1.865   5.436   3.242
20864WAT     H162834   1.864   5.524   3.289
20864WAT     H262835   1.817   5.443   3.155
20865WAT      O62836   7.299   6.439   6.356
20865WAT     H162837   7.279   6.461   6.260
20865WAT     H262838   7.368   6.366   6.359
20866WAT      O62839   7.926   6.438   2.845
20866WAT     H162840   7.991   6.365   2.865
20866WAT     H262841   7.846   6.427   2.904
20867WAT      O62842   1.080   6.373   3.456
20867WAT     H162843   1.139   6.440   3.412
20867WAT     H262844   1.030   6.416   3.531
20868WAT      O62845   6.076   1.239   2.141
20868WAT     H162846   6.100   1.146   2.113
20868WAT     H262847   6.157   1.297   2.139
20869WAT      O62848   9.873   4.635   9.562
20869WAT     H162849   9.891   4.659   9.657
20869WAT     H262850   9.775   4.621   9.548
20870WAT      O62851   6.730   1.346   4.355
20870WAT     H162852   6.716   1.268   4.295
20870WAT     H262853   6.654   1.410   4.345
20871WAT      O62854   8.593   7.216   8.899
20871WAT     H162855   8.615   7.122   8.924
20871WAT     H262856   8.580   7.222   8.800
20872WAT      O62857   3.378   9.077   6.751
20872WAT     H162858   3.455   9.137   6.771
20872WAT     H262859   3.302   9.098   6.812
20873WAT      O62860   1.186   4.956   2.514
20873WAT     H162861   1.210   5.042   2.560
20873WAT     H262862   1.269   4.902   2.500
20874WAT      O62863   6.046   3.495   4.157
20874WAT     H162864   5.975   3.436   4.196
20874WAT     H262865   6.014   3.589   4.156
20875WAT      O62866   3.642   1.996   7.043
20875WAT     H162867   3.718   1.942   7.081
20875WAT     H262868   3.677   2.059   6.974
20876WAT      O62869   7.320   7.734   7.027
20876WAT     H162870   7.272   7.818   7.051
20876WAT     H262871   7.304   7.665   7.099
20877WAT      O62872   6.014   1.739   4.438
20877WAT     H162873   6.041   1.655   4.486
20877WAT     H262874   5.993   1.810   4.505
20878WAT      O62875   3.839   1.549   4.459
20878WAT     H162876   3.780   1.471   4.440
20878WAT     H262877   3.837   1.612   4.381
20879WAT      O62878   1.337   1.619   7.279
20879WAT     H162879   1.316   1.676   7.359
20879WAT     H262880   1.385   1.537   7.309
20880WAT      O62881   7.350   8.735   5.405
20880WAT     H162882   7.305   8.653   5.440
20880WAT     H262883   7.342   8.738   5.306
20881WAT      O62884   4.885   0.559   1.676
20881WAT     H162885   4.900   0.489   1.605
20881WAT     H262886   4.787   0.566   1.695
20882WAT      O62887   5.734   0.650   1.619
20882WAT     H162888   5.797   0.685   1.550
20882WAT     H262889   5.647   0.627   1.576
20883WAT      O62890   3.538   4.524   4.519
20883WAT     H162891   3.516   4.563   4.609
20883WAT     H262892   3.572   4.597   4.459
20884WAT      O62893   0.663   5.305   9.349
20884WAT     H162894   0.751   5.290   9.394
20884WAT     H262895   0.595   5.244   9.389
20885WAT      O62896   7.549   6.480   7.130
20885WAT     H162897   7.529   6.391   7.088
20885WAT     H262898   7.489   6.494   7.209
20886WAT      O62899   8.300   4.203   5.144
20886WAT     H162900   8.217   4.242   5.105
20886WAT     H262901   8.309   4.108   5.113
20887WAT      O62902   2.397   9.140   7.107
20887WAT     H162903   2.324   9.198   7.141
20887WAT     H262904   2.486   9.175   7.137
20888WAT      O62905   5.928   9.661   7.978
20888WAT     H162906   5.907   9.730   7.908
20888WAT     H262907   5.981   9.587   7.936
20889WAT      O62908   5.804   6.955   8.841
20889WAT     H162909   5.844   7.041   8.809
20889WAT     H262910   5.730   6.929   8.779
20890WAT      O62911   8.139   2.766   9.350
20890WAT     H162912   8.166   2.744   9.443
20890WAT     H262913   8.206   2.728   9.286
20891WAT      O62914   9.463   9.458   8.182
20891WAT     H162915   9.529   9.416   8.245
20891WAT     H262916   9.379   9.480   8.232
20892WAT      O62917   9.837   1.971   1.815
20892WAT     H162918   9.919   2.028   1.813
20892WAT     H262919   9.828   1.922   1.728
20893WAT      O62920   1.445   9.375   3.592
20893WAT     H162921   1.535   9.333   3.582
20893WAT     H262922   1.374   9.306   3.575
20894WAT      O62923   5.936   6.141   3.038
20894WAT     H162924   5.965   6.052   3.074
20894WAT     H262925   5.857   6.174   3.090
20895WAT      O62926   4.762   1.161   2.041
20895WAT     H162927   4.692   1.232   2.041
20895WAT     H262928   4.766   1.117   1.952
20896WAT      O62929   7.616   5.091   4.080
20896WAT     H162930   7.620   5.023   4.006
20896WAT     H262931   7.522   5.122   4.092
20897WAT      O62932   3.466   1.466   2.375
20897WAT     H162933   3.431   1.485   2.467
20897WAT     H262934   3.565   1.455   2.379
20898WAT      O62935   3.414   0.508   7.478
20898WAT     H162936   3.390   0.601   7.452
20898WAT     H262937   3.424   0.452   7.395
20899WAT      O62938   0.502   6.804   3.375
20899WAT     H162939   0.558   6.820   3.457
20899WAT     H262940   0.407   6.788   3.401
20900WAT      O62941   1.742   8.972   5.954
20900WAT     H162942   1.781   9.042   6.014
20900WAT     H262943   1.750   9.001   5.859
20901WAT      O62944   2.462   0.216   4.543
20901WAT     H162945   2.411   0.279   4.601
20901WAT     H262946   2.428   0.222   4.449
20902WAT      O62947   7.828   2.008   0.815
20902WAT     H162948   7.908   1.955   0.843
20902WAT     H262949   7.755   1.947   0.786
20903WAT      O62950   9.375   8.931   7.982
20903WAT     H162951   9.313   8.892   8.051
20903WAT     H262952   9.450   8.867   7.965
20904WAT      O62953   8.720   1.571   4.610
20904WAT     H162954   8.678   1.542   4.696
20904WAT     H262955   8.804   1.518   4.595
20905WAT      O62956   0.053   8.279   1.454
20905WAT     H162957   0.056   8.189   1.410
20905WAT     H262958   0.140   8.326   1.438
20906WAT      O62959   9.358   8.679   2.617
20906WAT     H162960   9.424   8.749   2.592
20906WAT     H262961   9.288   8.718   2.676
20907WAT      O62962   9.594   3.964   1.064
20907WAT     H162963   9.671   4.002   1.012
20907WAT     H262964   9.584   4.015   1.149
20908WAT      O62965   5.478   5.220   7.500
20908WAT     H162966   5.520   5.182   7.418
20908WAT     H262967   5.458   5.147   7.565
20909WAT      O62968   3.215   9.457   5.634
20909WAT     H162969   3.314   9.450   5.647
20909WAT     H262970   3.173   9.498   5.714
20910WAT      O62971   7.972   6.422   2.413
20910WAT     H162972   7.900   6.359   2.382
20910WAT     H262973   8.033   6.442   2.336
20911WAT      O62974   1.880   5.018   8.566
20911WAT     H162975   1.874   5.118   8.567
20911WAT     H262976   1.976   4.990   8.575
20912WAT      O62977   7.427   8.827   7.595
20912WAT     H162978   7.362   8.856   7.665
20912WAT     H262979   7.378   8.794   7.515
20913WAT      O62980   2.937   7.543   6.395
20913WAT     H162981   2.960   7.526   6.490
20913WAT     H262982   2.919   7.456   6.349
20914WAT      O62983   4.633   4.292   9.378
20914WAT     H162984   4.720   4.291   9.429
20914WAT     H262985   4.561   4.253   9.435
20915WAT      O62986   8.147   3.204   1.030
20915WAT     H162987   8.076   3.190   1.099
20915WAT     H262988   8.227   3.150   1.053
20916WAT      O62989   5.249   7.061   7.577
20916WAT     H162990   5.172   7.096   7.631
20916WAT     H262991   5.261   7.117   7.495
20917WAT      O62992   3.233   2.141   9.424
20917WAT     H162993   3.299   2.090   9.479
20917WAT     H262994   3.194   2.215   9.479
20918WAT      O62995   7.485   0.540   8.779
20918WAT     H162996   7.417   0.598   8.824
20918WAT     H262997   7.473   0.445   8.808
20919WAT      O62998   7.399   0.679   4.548
20919WAT     H162999   7.442   0.648   4.633
20919WAT     H263000   7.420   0.615   4.474
20920WAT      O63001   5.379   3.925   6.020
20920WAT     H163002   5.342   3.912   6.112
20920WAT     H263003   5.325   3.994   5.972
20921WAT      O63004   2.916   4.537   6.898
20921WAT     H163005   2.998   4.552   6.843
20921WAT     H263006   2.861   4.621   6.899
20922WAT      O63007   9.679   7.086   5.005
20922WAT     H163008   9.632   7.126   5.084
20922WAT     H263009   9.736   7.009   5.036
20923WAT      O63010   5.473   3.893   4.081
20923WAT     H163011   5.523   3.845   4.009
20923WAT     H263012   5.377   3.869   4.077
20924WAT      O63013   1.265   9.672   5.820
20924WAT     H163014   1.196   9.660   5.891
20924WAT     H263015   1.288   9.769   5.811
20925WAT      O63016   8.269   6.233   0.073
20925WAT     H163017   8.193   6.169   0.064
20925WAT     H263018   8.331   6.201   0.145
20926WAT      O63019   1.551   5.788   6.872
20926WAT     H163020   1.482   5.851   6.835
20926WAT     H263021   1.520   5.753   6.960
20927WAT      O63022   0.494   6.377   0.586
20927WAT     H163023   0.477   6.465   0.630
20927WAT     H263024   0.420   6.357   0.521
20928WAT      O63025   5.555   1.842   6.834
20928WAT     H163026   5.622   1.874   6.768
20928WAT     H263027   5.595   1.844   6.926
20929WAT      O63028   3.820   4.731   6.347
20929WAT     H163029   3.899   4.705   6.402
20929WAT     H263030   3.772   4.649   6.316
20930WAT      O63031   5.385   7.751   2.341
20930WAT     H163032   5.287   7.759   2.325
20930WAT     H263033   5.403   7.752   2.440
20931WAT      O63034   8.801   5.920   2.953
20931WAT     H163035   8.756   5.988   2.894
20931WAT     H263036   8.891   5.899   2.916
20932WAT      O63037   1.464   3.477   8.158
20932WAT     H163038   1.558   3.445   8.169
20932WAT     H263039   1.459   3.574   8.183
20933WAT      O63040   2.419   4.131   7.948
20933WAT     H163041   2.494   4.070   7.974
20933WAT     H263042   2.336   4.105   7.998
20934WAT      O63043   9.080   9.709   2.049
20934WAT     H163044   9.072   9.661   1.962
20934WAT     H263045   9.011   9.780   2.055
20935WAT      O63046   0.139   6.211   5.602
20935WAT     H163047   0.124   6.308   5.623
20935WAT     H263048   0.193   6.169   5.674
20936WAT      O63049   3.948   8.907   0.328
20936WAT     H163050   3.966   8.883   0.423
20936WAT     H263051   3.916   8.827   0.278
20937WAT      O63052   6.871   2.414   9.354
20937WAT     H163053   6.935   2.366   9.414
20937WAT     H263054   6.865   2.366   9.267
20938WAT      O63055   3.813   4.512   4.579
20938WAT     H163056   3.847   4.589   4.526
20938WAT     H263057   3.720   4.490   4.549
20939WAT      O63058   2.739   8.538   4.824
20939WAT     H163059   2.832   8.569   4.846
20939WAT     H263060   2.707   8.586   4.743
20940WAT      O63061   2.600   0.919   3.942
20940WAT     H163062   2.671   0.904   3.873
20940WAT     H263063   2.631   0.885   4.031
20941WAT      O63064   3.102   4.181   7.599
20941WAT     H163065   3.041   4.206   7.675
20941WAT     H263066   3.050   4.181   7.513
20942WAT      O63067   4.653   0.602   7.774
20942WAT     H163068   4.713   0.529   7.809
20942WAT     H263069   4.688   0.691   7.804
20943WAT      O63070   3.302   8.709   3.986
20943WAT     H163071   3.235   8.718   3.913
20943WAT     H263072   3.264   8.653   4.060
20944WAT      O63073   6.063   4.900   5.819
20944WAT     H163074   5.969   4.927   5.838
20944WAT     H263075   6.068   4.801   5.804
20945WAT      O63076   3.879   7.793   0.268
20945WAT     H163077   3.903   7.751   0.355
20945WAT     H263078   3.916   7.738   0.193
20946WAT      O63079   7.773   2.452   8.193
20946WAT     H163080   7.726   2.446   8.105
20946WAT     H263081   7.846   2.520   8.188
20947WAT      O63082   7.689   2.682   3.712
20947WAT     H163083   7.716   2.660   3.806
20947WAT     H263084   7.593   2.710   3.711
20948WAT      O63085   6.117   0.774   9.623
20948WAT     H163086   6.078   0.769   9.531
20948WAT     H263087   6.051   0.816   9.686
20949WAT      O63088   0.232   7.088   5.683
20949WAT     H163089   0.218   7.181   5.648
20949WAT     H263090   0.278   7.092   5.772
20950WAT      O63091   8.649   5.688   3.385
20950WAT     H163092   8.701   5.746   3.322
20950WAT     H263093   8.575   5.741   3.426
20951WAT      O63094   4.923   7.229   4.171
20951WAT     H163095   4.966   7.297   4.112
20951WAT     H263096   4.866   7.169   4.117
20952WAT      O63097   0.608   3.318   3.156
20952WAT     H163098   0.650   3.314   3.247
20952WAT     H263099   0.608   3.413   3.124
20953WAT      O63100   0.438   0.644   7.296
20953WAT     H163101   0.516   0.582   7.293
20953WAT     H263102   0.379   0.619   7.373
20954WAT      O63103   3.925   4.315   0.199
20954WAT     H163104   3.917   4.303   0.100
20954WAT     H263105   3.834   4.325   0.239
20955WAT      O63106   4.579   8.244   7.191
20955WAT     H163107   4.651   8.193   7.238
20955WAT     H263108   4.490   8.206   7.215
20956WAT      O63109   8.517   2.868   3.094
20956WAT     H163110   8.557   2.787   3.051
20956WAT     H263111   8.536   2.867   3.192
20957WAT      O63112   6.801   8.131   6.212
20957WAT     H163113   6.778   8.224   6.184
20957WAT     H263114   6.763   8.066   6.146
20958WAT      O63115   1.124   8.028   0.594
20958WAT     H163116   1.221   8.052   0.593
20958WAT     H263117   1.113   7.937   0.634
20959WAT      O63118   2.856   9.487   3.220
20959WAT     H163119   2.918   9.424   3.173
20959WAT     H263120   2.910   9.557   3.266
20960WAT      O63121   9.183   7.922   3.653
20960WAT     H163122   9.177   8.016   3.621
20960WAT     H263123   9.170   7.919   3.752
20961WAT      O63124   6.840   5.136   1.302
20961WAT     H163125   6.896   5.202   1.352
20961WAT     H263126   6.833   5.051   1.355
20962WAT      O63127   1.368   3.382   1.301
20962WAT     H163128   1.331   3.424   1.383
20962WAT     H263129   1.441   3.439   1.264
20963WAT      O63130   2.030   5.353   8.404
20963WAT     H163131   2.095   5.278   8.413
20963WAT     H263132   2.001   5.362   8.308
20964WAT      O63133   2.142   8.939   8.856
20964WAT     H163134   2.071   8.873   8.880
20964WAT     H263135   2.230   8.893   8.852
20965WAT      O63136   8.259   1.942   9.344
20965WAT     H163137   8.296   1.862   9.391
20965WAT     H263138   8.172   1.968   9.386
20966WAT      O63139   5.293   2.039   4.540
20966WAT     H163140   5.312   1.984   4.621
20966WAT     H263141   5.242   2.121   4.566
20967WAT      O63142   8.392   3.508   0.673
20967WAT     H163143   8.333   3.473   0.746
20967WAT     H263144   8.451   3.434   0.640
20968WAT      O63145   8.166   1.551   2.831
20968WAT     H163146   8.222   1.476   2.865
20968WAT     H263147   8.152   1.618   2.905
20969WAT      O63148   1.783   0.394   3.437
20969WAT     H163149   1.725   0.462   3.391
20969WAT     H263150   1.774   0.306   3.390
20970WAT      O63151   5.207   6.173   2.215
20970WAT     H163152   5.221   6.168   2.116
20970WAT     H263153   5.122   6.127   2.239
20971WAT      O63154   9.694   1.307   9.700
20971WAT     H163155   9.670   1.227   9.756
20971WAT     H263156   9.791   1.304   9.677
20972WAT      O63157   2.585   9.395   8.186
20972WAT     H163158   2.552   9.334   8.114
20972WAT     H263159   2.600   9.486   8.149
20973WAT      O63160   7.149   0.803   0.460
20973WAT     H163161   7.073   0.754   0.419
20973WAT     H263162   7.224   0.739   0.478
20974WAT      O63163   0.220   2.981   1.743
20974WAT     H163164   0.197   3.056   1.806
20974WAT     H263165   0.153   2.979   1.669
20975WAT      O63166   5.369   0.050   2.799
20975WAT     H163167   5.286   0.075   2.849
20975WAT     H263168   5.369  -0.048   2.782
20976WAT      O63169   5.228   9.545   2.043
20976WAT     H163170   5.314   9.499   2.024
20976WAT     H263171   5.152   9.485   2.017
20977WAT      O63172   0.427   0.255   7.605
20977WAT     H163173   0.448   0.167   7.647
20977WAT     H263174   0.453   0.252   7.508
20978WAT      O63175   3.474   2.307   1.481
20978WAT     H163176   3.444   2.283   1.573
20978WAT     H263177   3.428   2.248   1.414
20979WAT      O63178   5.225   5.174   8.018
20979WAT     H163179   5.255   5.268   8.031
20979WAT     H263180   5.208   5.157   7.921
20980WAT      O63181   3.768   3.211   2.110
20980WAT     H163182   3.790   3.300   2.070
20980WAT     H263183   3.805   3.138   2.052
20981WAT      O63184   0.939   8.386   3.465
20981WAT     H163185   0.932   8.330   3.382
20981WAT     H263186   1.017   8.356   3.519
20982WAT      O63187   3.217   1.417   9.660
20982WAT     H163188   3.274   1.499   9.667
20982WAT     H263189   3.201   1.397   9.563
20983WAT      O63190   8.579   1.568   5.613
20983WAT     H163191   8.591   1.541   5.708
20983WAT     H263192   8.612   1.661   5.599
20984WAT      O63193   4.648   0.429   3.273
20984WAT     H163194   4.708   0.494   3.226
20984WAT     H263195   4.702   0.350   3.302
20985WAT      O63196   5.299   4.734   8.868
20985WAT     H163197   5.277   4.637   8.879
20985WAT     H263198   5.264   4.785   8.946
20986WAT      O63199   4.735   3.513   2.303
20986WAT     H163200   4.759   3.608   2.322
20986WAT     H263201   4.635   3.503   2.301
20987WAT      O63202   7.953   8.686   4.849
20987WAT     H163203   7.945   8.608   4.910
20987WAT     H263204   7.935   8.771   4.900
20988WAT      O63205   7.723   7.495   5.329
20988WAT     H163206   7.784   7.433   5.379
20988WAT     H263207   7.742   7.589   5.356
20989WAT      O63208   3.987   3.813   7.825
20989WAT     H163209   4.013   3.718   7.840
20989WAT     H263210   4.008   3.839   7.730
20990WAT      O63211   9.346   6.749   6.393
20990WAT     H163212   9.354   6.726   6.490
20990WAT     H263213   9.254   6.727   6.360
20991WAT      O63214   0.165   6.154   2.073
20991WAT     H163215   0.098   6.220   2.105
20991WAT     H263216   0.117   6.070   2.045
20992WAT      O63217   0.264   1.829   4.502
20992WAT     H163218   0.171   1.809   4.534
20992WAT     H263219   0.322   1.749   4.515
20993WAT      O63220   4.643   5.369   7.310
20993WAT     H163221   4.657   5.394   7.406
20993WAT     H263222   4.545   5.368   7.290
20994WAT      O63223   6.861   5.474   4.356
20994WAT     H163224   6.765   5.447   4.367
20994WAT     H263225   6.892   5.521   4.439
20995WAT      O63226   7.885   4.770   5.346
20995WAT     H163227   7.877   4.816   5.435
20995WAT     H263228   7.801   4.783   5.294
20996WAT      O63229   0.399   3.148   6.555
20996WAT     H163230   0.392   3.183   6.648
20996WAT     H263231   0.356   3.057   6.551
20997WAT      O63232   9.718   9.241   1.250
20997WAT     H163233   9.620   9.241   1.270
20997WAT     H263234   9.754   9.148   1.259
20998WAT      O63235   0.029   7.523   0.814
20998WAT     H163236  -0.060   7.494   0.778
20998WAT     H263237   0.016   7.581   0.894
20999WAT      O63238   4.226   5.007   9.844
20999WAT     H163239   4.213   5.069   9.921
20999WAT     H263240   4.320   4.974   9.842
21000WAT      O63241   8.798   6.266   9.866
21000WAT     H163242   8.819   6.250   9.962
21000WAT     H263243   8.804   6.179   9.816
21001WAT      O63244   0.049   6.464   3.311
21001WAT     H163245  -0.022   6.533   3.295
21001WAT     H263246   0.079   6.468   3.406
21002WAT      O63247   2.256   2.958   6.412
21002WAT     H163248   2.256   3.058   6.423
21002WAT     H263249   2.227   2.915   6.497
21003WAT      O63250   8.621   1.899   7.409
21003WAT     H163251   8.546   1.961   7.386
21003WAT     H263252   8.664   1.928   7.495
21004WAT      O63253   7.226   1.071   6.373
21004WAT     H163254   7.133   1.070   6.336
21004WAT     H263255   7.277   1.147   6.334
21005WAT      O63256   1.482   7.319   6.520
21005WAT     H163257   1.520   7.286   6.433
21005WAT     H263258   1.511   7.413   6.535
21006WAT      O63259   1.168   6.830   8.449
21006WAT     H163260   1.192   6.797   8.358
21006WAT     H263261   1.246   6.880   8.488
21007WAT      O63262   9.144   7.729   2.426
21007WAT     H163263   9.155   7.630   2.438
21007WAT     H263264   9.183   7.777   2.505
21008WAT      O63265   2.019   0.049   1.519
21008WAT     H163266   2.051  -0.038   1.482
21008WAT     H263267   2.068   0.124   1.475
21009WAT      O63268   6.106   1.888   3.249
21009WAT     H163269   6.147   1.968   3.205
21009WAT     H263270   6.174   1.815   3.257
21010WAT      O63271   5.547   5.785   5.422
21010WAT     H163272   5.580   5.824   5.336
21010WAT     H263273   5.617   5.726   5.461
21011WAT      O63274   4.988   1.373   9.564
21011WAT     H163275   4.953   1.382   9.657
21011WAT     H263276   5.081   1.337   9.566
21012WAT      O63277   7.285   7.520   3.673
21012WAT     H163278   7.355   7.482   3.734
21012WAT     H263279   7.322   7.526   3.580
21013WAT      O63280   4.179   3.267   2.345
21013WAT     H163281   4.169   3.329   2.267
21013WAT     H263282   4.176   3.321   2.430
21014WAT      O63283   6.668   7.915   3.357
21014WAT     H163284   6.734   7.910   3.282
21014WAT     H263285   6.711   7.885   3.442
21015WAT      O63286   7.879   4.703   6.437
21015WAT     H163287   7.808   4.673   6.374
21015WAT     H263288   7.846   4.781   6.490
21016WAT      O63289   1.949   1.868   1.805
21016WAT     H163290   1.947   1.795   1.874
21016WAT     H263291   2.007   1.943   1.837
21017WAT      O63292   8.970   7.922   6.654
21017WAT     H163293   8.902   7.911   6.581
21017WAT     H263294   9.024   7.839   6.662
21018WAT      O63295   4.258   4.391   7.143
21018WAT     H163296   4.210   4.336   7.211
21018WAT     H263297   4.341   4.343   7.114
21019WAT      O63298   6.851   2.686   5.392
21019WAT     H163299   6.864   2.782   5.368
21019WAT     H263300   6.898   2.627   5.327
21020WAT      O63301   9.421   4.733   6.184
21020WAT     H163302   9.439   4.677   6.104
21020WAT     H263303   9.332   4.779   6.174
21021WAT      O63304   7.595   6.015   7.097
21021WAT     H163305   7.629   5.980   7.010
21021WAT     H263306   7.669   6.060   7.147
21022WAT      O63307   5.740   6.741   2.330
21022WAT     H163308   5.756   6.713   2.425
21022WAT     H263309   5.653   6.703   2.298
21023WAT      O63310   0.221   2.203   1.137
21023WAT     H163311   0.319   2.183   1.136
21023WAT     H263312   0.179   2.161   1.219
21024WAT      O63313   3.119   4.117   7.175
21024WAT     H163314   3.123   4.045   7.106
21024WAT     H263315   3.156   4.202   7.138
21025WAT      O63316   4.402   5.808   1.559
21025WAT     H163317   4.403   5.839   1.654
21025WAT     H263318   4.308   5.796   1.528
21026WAT      O63319   5.498   0.603   5.911
21026WAT     H163320   5.510   0.612   6.010
21026WAT     H263321   5.426   0.665   5.880
21027WAT      O63322   7.472   7.580   9.191
21027WAT     H163323   7.399   7.512   9.195
21027WAT     H263324   7.455   7.643   9.115
21028WAT      O63325   7.690   1.584   4.014
21028WAT     H163326   7.599   1.586   3.972
21028WAT     H263327   7.686   1.536   4.101
21029WAT      O63328   0.765   2.436   1.368
21029WAT     H163329   0.705   2.372   1.416
21029WAT     H263330   0.802   2.502   1.433
21030WAT      O63331   5.455   1.690   9.792
21030WAT     H163332   5.538   1.735   9.822
21030WAT     H263333   5.460   1.671   9.694
21031WAT      O63334   3.125   1.019   2.957
21031WAT     H163335   3.145   1.064   3.044
21031WAT     H263336   3.203   0.962   2.930
21032WAT      O63337   6.527   9.378   0.603
21032WAT     H163338   6.482   9.467   0.598
21032WAT     H263339   6.459   9.307   0.618
21033WAT      O63340   0.806   0.537   9.897
21033WAT     H163341   0.711   0.526   9.866
21033WAT     H263342   0.866   0.538   9.817
21034WAT      O63343   9.356   6.648   1.287
21034WAT     H163344   9.435   6.695   1.327
21034WAT     H263345   9.366   6.549   1.300
21035WAT      O63346   8.045   5.529   5.008
21035WAT     H163347   7.976   5.476   4.959
21035WAT     H263348   8.137   5.499   4.981
21036WAT      O63349   3.713   1.899   0.683
21036WAT     H163350   3.628   1.943   0.712
21036WAT     H263351   3.742   1.833   0.752
21037WAT      O63352   4.415   1.806   2.055
21037WAT     H163353   4.410   1.881   2.121
21037WAT     H263354   4.454   1.725   2.099
21038WAT      O63355   2.370   7.337   6.777
21038WAT     H163356   2.356   7.365   6.872
21038WAT     H263357   2.294   7.370   6.721
21039WAT      O63358   0.718   5.492   3.726
21039WAT     H163359   0.628   5.462   3.695
21039WAT     H263360   0.745   5.575   3.677
21040WAT      O63361   5.189   1.265   2.995
21040WAT     H163362   5.118   1.219   3.048
21040WAT     H263363   5.225   1.342   3.047
21041WAT      O63364   7.057   6.721   3.150
21041WAT     H163365   7.020   6.778   3.224
21041WAT     H263366   6.981   6.679   3.100
21042WAT      O63367   0.902   1.512   0.484
21042WAT     H163368   0.943   1.443   0.543
21042WAT     H263369   0.965   1.589   0.474
21043WAT      O63370   6.519   3.577   1.347
21043WAT     H163371   6.612   3.553   1.320
21043WAT     H263372   6.491   3.661   1.300
21044WAT      O63373   6.858   0.890   2.467
21044WAT     H163374   6.903   0.821   2.523
21044WAT     H263375   6.767   0.909   2.504
21045WAT      O63376   4.777   8.729   7.147
21045WAT     H163377   4.861   8.714   7.094
21045WAT     H263378   4.759   8.828   7.153
21046WAT      O63379   0.974   8.546   8.285
21046WAT     H163380   0.940   8.636   8.312
21046WAT     H263381   1.073   8.550   8.272
21047WAT      O63382   2.037   0.569   7.497
21047WAT     H163383   2.086   0.652   7.472
21047WAT     H263384   1.974   0.545   7.423
21048WAT      O63385   7.938   1.231   0.943
21048WAT     H163386   8.037   1.245   0.944
21048WAT     H263387   7.895   1.294   1.008
21049WAT      O63388   5.796   3.121   3.967
21049WAT     H163389   5.753   3.209   3.990
21049WAT     H263390   5.728   3.061   3.926
21050WAT      O63391   0.180   4.111   6.330
21050WAT     H163392   0.091   4.065   6.321
21050WAT     H263393   0.168   4.194   6.385
21051WAT      O63394   7.215   6.204   7.643
21051WAT     H163395   7.163   6.123   7.671
21051WAT     H263396   7.288   6.177   7.581
21052WAT      O63397   0.526   8.242   3.598
21052WAT     H163398   0.575   8.329   3.604
21052WAT     H263399   0.592   8.167   3.602
21053WAT      O63400   3.025   9.184   3.320
21053WAT     H163401   3.106   9.147   3.367
21053WAT     H263402   3.054   9.244   3.246
21054WAT      O63403   3.182   1.797   0.331
21054WAT     H163404   3.161   1.723   0.395
21054WAT     H263405   3.272   1.781   0.290
21055WAT      O63406   6.689   8.245   6.560
21055WAT     H163407   6.608   8.252   6.501
21055WAT     H263408   6.756   8.186   6.516
21056WAT      O63409   6.147   3.912   7.771
21056WAT     H163410   6.228   3.874   7.726
21056WAT     H263411   6.135   4.007   7.743
21057WAT      O63412   8.811   9.247   9.848
21057WAT     H163413   8.811   9.194   9.764
21057WAT     H263414   8.905   9.270   9.874
21058WAT      O63415   1.645   2.060   4.606
21058WAT     H163416   1.737   2.025   4.590
21058WAT     H263417   1.608   2.098   4.522
21059WAT      O63418   9.026   3.069   1.350
21059WAT     H163419   8.959   2.995   1.353
21059WAT     H263420   9.081   3.068   1.434
21060WAT      O63421   8.941   3.579   1.619
21060WAT     H163422   8.847   3.552   1.596
21060WAT     H263423   8.940   3.637   1.700
21061WAT      O63424   8.779   3.990   2.431
21061WAT     H163425   8.777   3.995   2.531
21061WAT     H263426   8.873   3.984   2.399
21062WAT      O63427   2.869   8.080   2.536
21062WAT     H163428   2.903   8.149   2.472
21062WAT     H263429   2.790   8.116   2.585
21063WAT      O63430   4.933   0.585   4.761
21063WAT     H163431   4.978   0.585   4.671
21063WAT     H263432   4.950   0.497   4.806
21064WAT      O63433   3.822   8.080   4.463
21064WAT     H163434   3.887   8.108   4.393
21064WAT     H263435   3.864   8.014   4.525
21065WAT      O63436   4.479   1.744   8.876
21065WAT     H163437   4.467   1.800   8.794
21065WAT     H263438   4.390   1.731   8.921
21066WAT      O63439   7.985   8.577   6.700
21066WAT     H163440   8.013   8.497   6.754
21066WAT     H263441   8.063   8.637   6.685
21067WAT      O63442   2.148   8.785   2.153
21067WAT     H163443   2.108   8.848   2.086
21067WAT     H263444   2.243   8.766   2.128
21068WAT      O63445   5.898   3.513   6.463
21068WAT     H163446   5.966   3.563   6.516
21068WAT     H263447   5.923   3.514   6.366
21069WAT      O63448   8.819   5.484   6.848
21069WAT     H163449   8.834   5.550   6.775
21069WAT     H263450   8.783   5.530   6.929
21070WAT      O63451   3.465   2.506   6.938
21070WAT     H163452   3.386   2.567   6.946
21070WAT     H263453   3.434   2.411   6.936
21071WAT      O63454   9.589   6.445   5.174
21071WAT     H163455   9.650   6.506   5.123
21071WAT     H263456   9.578   6.360   5.123
21072WAT      O63457   7.788   3.756   8.161
21072WAT     H163458   7.711   3.807   8.124
21072WAT     H263459   7.865   3.760   8.097
21073WAT      O63460   3.058   1.951   5.999
21073WAT     H163461   3.113   2.033   5.980
21073WAT     H263462   2.962   1.970   5.979
21074WAT      O63463   7.284   0.479   8.306
21074WAT     H163464   7.198   0.451   8.262
21074WAT     H263465   7.314   0.567   8.269
21075WAT      O63466   1.492   6.617   4.532
21075WAT     H163467   1.483   6.526   4.490
21075WAT     H263468   1.524   6.682   4.463
21076WAT      O63469   4.979   4.857   7.250
21076WAT     H163470   4.966   4.829   7.345
21076WAT     H263471   5.069   4.827   7.218
21077WAT      O63472   1.068   2.815   8.978
21077WAT     H163473   1.025   2.741   8.927
21077WAT     H263474   1.037   2.903   8.943
21078WAT      O63475   5.320   1.892   2.498
21078WAT     H163476   5.310   1.939   2.585
21078WAT     H263477   5.310   1.958   2.423
21079WAT      O63478   5.846   0.503   2.966
21079WAT     H163479   5.801   0.414   2.960
21079WAT     H263480   5.779   0.576   2.953
21080WAT      O63481   8.572   8.141   6.223
21080WAT     H163482   8.625   8.173   6.144
21080WAT     H263483   8.550   8.044   6.210
21081WAT      O63484   0.663   9.291   3.355
21081WAT     H163485   0.667   9.191   3.358
21081WAT     H263486   0.733   9.329   3.416
21082WAT      O63487   1.952   2.858   2.872
21082WAT     H163488   1.994   2.849   2.782
21082WAT     H263489   1.879   2.790   2.882
21083WAT      O63490   0.863   7.660   2.320
21083WAT     H163491   0.916   7.643   2.403
21083WAT     H263492   0.768   7.679   2.345
21084WAT      O63493   4.063   0.053   8.837
21084WAT     H163494   4.101   0.053   8.929
21084WAT     H263495   4.138   0.047   8.771
21085WAT      O63496   5.791   4.707   3.000
21085WAT     H163497   5.792   4.802   3.032
21085WAT     H263498   5.863   4.694   2.932
21086WAT      O63499   2.585   2.292   9.042
21086WAT     H163500   2.500   2.301   9.093
21086WAT     H263501   2.575   2.332   8.951
21087WAT      O63502   4.289   1.880   4.111
21087WAT     H163503   4.377   1.835   4.126
21087WAT     H263504   4.303   1.963   4.057
21088WAT      O63505   7.872   5.543   1.927
21088WAT     H163506   7.865   5.619   1.992
21088WAT     H263507   7.833   5.570   1.839
21089WAT      O63508   1.765   9.102   5.720
21089WAT     H163509   1.734   9.188   5.678
21089WAT     H263510   1.748   9.027   5.657
21090WAT      O63511   9.073   0.175   8.117
21090WAT     H163512   9.156   0.152   8.166
21090WAT     H263513   8.997   0.121   8.153
21091WAT      O63514   1.807   1.122   3.663
21091WAT     H163515   1.742   1.197   3.674
21091WAT     H263516   1.900   1.157   3.668
21092WAT      O63517   1.179   5.968   8.682
21092WAT     H163518   1.252   6.037   8.685
21092WAT     H263519   1.216   5.880   8.712
21093WAT      O63520   4.388   1.686   3.439
21093WAT     H163521   4.352   1.773   3.405
21093WAT     H263522   4.367   1.613   3.374
21094WAT      O63523   2.442   7.519   5.533
21094WAT     H163524   2.532   7.505   5.492
21094WAT     H263525   2.440   7.477   5.624
21095WAT      O63526   7.764   3.929   5.186
21095WAT     H163527   7.734   3.921   5.281
21095WAT     H263528   7.776   3.838   5.147
21096WAT      O63529   2.190   2.627   4.035
21096WAT     H163530   2.224   2.720   4.027
21096WAT     H263531   2.167   2.607   4.131
21097WAT      O63532   7.585   4.806   2.187
21097WAT     H163533   7.554   4.824   2.093
21097WAT     H263534   7.591   4.707   2.201
21098WAT      O63535   1.492   5.815   5.194
21098WAT     H163536   1.559   5.873   5.148
21098WAT     H263537   1.504   5.720   5.164
21099WAT      O63538   3.273   8.675   0.175
21099WAT     H163539   3.284   8.739   0.250
21099WAT     H263540   3.356   8.620   0.164
21100WAT      O63541   8.994   6.700   8.613
21100WAT     H163542   8.948   6.785   8.638
21100WAT     H263543   8.935   6.622   8.635
21101WAT      O63544   9.069   7.286   0.168
21101WAT     H163545   9.152   7.233   0.148
21101WAT     H263546   9.010   7.286   0.087
21102WAT      O63547   0.987   0.118   9.711
21102WAT     H163548   0.933   0.184   9.659
21102WAT     H263549   1.069   0.163   9.746
21103WAT      O63550   6.741   5.138   0.849
21103WAT     H163551   6.697   5.227   0.855
21103WAT     H263552   6.810   5.129   0.921
21104WAT      O63553   9.559   1.647   1.741
21104WAT     H163554   9.570   1.569   1.803
21104WAT     H263555   9.492   1.711   1.779
21105WAT      O63556   9.027   6.689   6.811
21105WAT     H163557   9.015   6.720   6.905
21105WAT     H263558   8.988   6.597   6.802
21106WAT      O63559   5.069   4.075   4.723
21106WAT     H163560   5.100   3.993   4.770
21106WAT     H263561   5.135   4.149   4.736
21107WAT      O63562   4.344   5.457   7.735
21107WAT     H163563   4.302   5.548   7.736
21107WAT     H263564   4.420   5.456   7.671
21108WAT      O63565   6.084   6.525   3.554
21108WAT     H163566   6.005   6.584   3.571
21108WAT     H263567   6.064   6.433   3.586
21109WAT      O63568   9.630   5.443   9.098
21109WAT     H163569   9.657   5.459   9.193
21109WAT     H263570   9.668   5.515   9.040
21110WAT      O63571   4.286   1.777   1.310
21110WAT     H163572   4.239   1.838   1.375
21110WAT     H263573   4.308   1.691   1.356
21111WAT      O63574   3.859   9.595   7.225
21111WAT     H163575   3.860   9.527   7.297
21111WAT     H263576   3.952   9.624   7.204
21112WAT      O63577   3.298   4.484   3.757
21112WAT     H163578   3.367   4.543   3.799
21112WAT     H263579   3.261   4.421   3.825
21113WAT      O63580   1.982   3.056   3.826
21113WAT     H163581   2.046   3.124   3.862
21113WAT     H263582   1.926   3.098   3.755
21114WAT      O63583   3.842   6.471   1.736
21114WAT     H163584   3.913   6.480   1.667
21114WAT     H263585   3.760   6.521   1.707
21115WAT      O63586   5.339   1.540   3.471
21115WAT     H163587   5.406   1.577   3.535
21115WAT     H263588   5.316   1.446   3.497
21116WAT      O63589   5.194   9.367   4.413
21116WAT     H163590   5.153   9.324   4.494
21116WAT     H263591   5.130   9.432   4.373
21117WAT      O63592   2.070   2.771   6.270
21117WAT     H163593   2.080   2.679   6.233
21117WAT     H263594   2.153   2.797   6.320
21118WAT      O63595   4.803   3.220   0.401
21118WAT     H163596   4.748   3.303   0.390
21118WAT     H263597   4.792   3.184   0.493
21119WAT      O63598   7.335   5.221   3.366
21119WAT     H163599   7.354   5.314   3.397
21119WAT     H263600   7.372   5.156   3.433
21120WAT      O63601   0.852   0.870   2.573
21120WAT     H163602   0.770   0.926   2.579
21120WAT     H263603   0.844   0.792   2.635
21121WAT      O63604   7.109   1.190   5.027
21121WAT     H163605   7.099   1.240   5.113
21121WAT     H263606   7.180   1.234   4.971
21122WAT      O63607   3.124   2.631   7.559
21122WAT     H163608   3.203   2.670   7.607
21122WAT     H263609   3.065   2.584   7.626
21123WAT      O63610   6.153   7.494   4.270
21123WAT     H163611   6.160   7.413   4.328
21123WAT     H263612   6.185   7.471   4.178
21124WAT      O63613   1.804   6.165   5.304
21124WAT     H163614   1.867   6.094   5.338
21124WAT     H263615   1.738   6.187   5.376
21125WAT      O63616   1.492   9.550   0.998
21125WAT     H163617   1.439   9.471   1.031
21125WAT     H263618   1.551   9.521   0.923
21126WAT      O63619   3.842   3.280   3.824
21126WAT     H163620   3.940   3.269   3.842
21126WAT     H263621   3.796   3.192   3.836
21127WAT      O63622   3.561   7.660   7.496
21127WAT     H163623   3.560   7.597   7.418
21127WAT     H263624   3.533   7.751   7.465
21128WAT      O63625   2.208   1.443   2.488
21128WAT     H163626   2.171   1.525   2.532
21128WAT     H263627   2.139   1.402   2.430
21129WAT      O63628   2.662   4.619   5.286
21129WAT     H163629   2.747   4.669   5.299
21129WAT     H263630   2.605   4.628   5.368
21130WAT      O63631   2.883   6.442   1.840
21130WAT     H163632   2.877   6.483   1.749
21130WAT     H263633   2.845   6.350   1.837
21131WAT      O63634   9.236   3.732   9.204
21131WAT     H163635   9.335   3.739   9.206
21131WAT     H263636   9.202   3.761   9.115
21132WAT      O63637   4.679   2.898   4.183
21132WAT     H163638   4.708   2.976   4.239
21132WAT     H263639   4.592   2.921   4.138
21133WAT      O63640   5.381   5.137   3.547
21133WAT     H163641   5.415   5.169   3.635
21133WAT     H263642   5.330   5.052   3.560
21134WAT      O63643   1.895   4.774   1.182
21134WAT     H163644   1.864   4.723   1.103
21134WAT     H263645   1.824   4.838   1.211
21135WAT      O63646   3.218   2.487   8.822
21135WAT     H163647   3.168   2.413   8.866
21135WAT     H263648   3.254   2.455   8.735
21136WAT      O63649   0.899   2.472   4.110
21136WAT     H163650   0.879   2.418   4.028
21136WAT     H263651   0.996   2.464   4.131
21137WAT      O63652   5.167   7.546   0.473
21137WAT     H163653   5.251   7.584   0.511
21137WAT     H263654   5.185   7.455   0.437
21138WAT      O63655   1.347   3.836   4.124
21138WAT     H163656   1.267   3.876   4.079
21138WAT     H263657   1.333   3.739   4.138
21139WAT      O63658   0.171   4.164   2.041
21139WAT     H163659   0.184   4.222   1.961
21139WAT     H263660   0.242   4.183   2.108
21140WAT      O63661   6.930   5.629   0.215
21140WAT     H163662   6.830   5.626   0.210
21140WAT     H263663   6.961   5.724   0.210
21141WAT      O63664   6.403   1.645   8.831
21141WAT     H163665   6.434   1.732   8.791
21141WAT     H263666   6.373   1.661   8.926
21142WAT      O63667   8.514   5.924   3.563
21142WAT     H163668   8.540   5.887   3.652
21142WAT     H263669   8.544   6.019   3.556
21143WAT      O63670   4.119   5.382   3.477
21143WAT     H163671   4.047   5.337   3.529
21143WAT     H263672   4.151   5.463   3.527
21144WAT      O63673   7.900   2.145   6.804
21144WAT     H163674   7.821   2.205   6.821
21144WAT     H263675   7.984   2.200   6.805
21145WAT      O63676   9.381   1.701   4.461
21145WAT     H163677   9.314   1.774   4.449
21145WAT     H263678   9.396   1.655   4.373
21146WAT      O63679   1.942   4.352   2.589
21146WAT     H163680   1.924   4.377   2.494
21146WAT     H263681   1.941   4.435   2.645
21147WAT      O63682   5.352   7.662   0.263
21147WAT     H163683   5.312   7.571   0.264
21147WAT     H263684   5.399   7.679   0.350
21148WAT      O63685   1.337   0.067   5.383
21148WAT     H163686   1.262   0.018   5.426
21148WAT     H263687   1.326   0.165   5.397
21149WAT      O63688   6.478   4.977   9.613
21149WAT     H163689   6.434   4.888   9.621
21149WAT     H263690   6.567   4.967   9.568
21150WAT      O63691   0.829   9.353   1.922
21150WAT     H163692   0.844   9.270   1.868
21150WAT     H263693   0.872   9.431   1.875
21151WAT      O63694   4.372   8.516   1.733
21151WAT     H163695   4.290   8.565   1.702
21151WAT     H263696   4.370   8.506   1.832
21152WAT      O63697   5.875   9.059   8.656
21152WAT     H163698   5.872   9.118   8.736
21152WAT     H263699   5.884   8.964   8.685
21153WAT      O63700   1.853   0.344   3.772
21153WAT     H163701   1.757   0.362   3.794
21153WAT     H263702   1.899   0.430   3.750
21154WAT      O63703   5.629   3.650   1.077
21154WAT     H163704   5.590   3.692   0.995
21154WAT     H263705   5.700   3.584   1.051
21155WAT      O63706   5.449   1.098   3.975
21155WAT     H163707   5.393   1.015   3.966
21155WAT     H263708   5.453   1.125   4.071
21156WAT      O63709   6.103   1.043   3.092
21156WAT     H163710   6.058   1.064   3.005
21156WAT     H263711   6.157   1.122   3.121
21157WAT      O63712   2.221   2.922   2.395
21157WAT     H163713   2.158   2.910   2.472
21157WAT     H263714   2.300   2.977   2.424
21158WAT      O63715   4.365   7.522   1.663
21158WAT     H163716   4.308   7.483   1.735
21158WAT     H263717   4.443   7.462   1.646
21159WAT      O63718   0.149   3.493   1.214
21159WAT     H163719   0.151   3.451   1.304
21159WAT     H263720   0.211   3.444   1.153
21160WAT      O63721   2.061   5.567   5.644
21160WAT     H163722   2.093   5.548   5.551
21160WAT     H263723   2.138   5.597   5.700
21161WAT      O63724   6.206   3.485   9.825
21161WAT     H163725   6.148   3.508   9.903
21161WAT     H263726   6.208   3.386   9.813
21162WAT      O63727   6.131   5.913   9.013
21162WAT     H163728   6.213   5.868   8.978
21162WAT     H263729   6.073   5.846   9.059
21163WAT      O63730   0.223   9.048   6.732
21163WAT     H163731   0.308   9.081   6.690
21163WAT     H263732   0.172   9.125   6.770
21164WAT      O63733   6.733   7.332   3.972
21164WAT     H163734   6.755   7.357   4.066
21164WAT     H263735   6.801   7.266   3.939
21165WAT      O63736   9.122   3.505   0.647
21165WAT     H163737   9.112   3.605   0.646
21165WAT     H263738   9.039   3.464   0.685
21166WAT      O63739   7.740   4.514   3.383
21166WAT     H163740   7.669   4.572   3.423
21166WAT     H263741   7.776   4.558   3.301
21167WAT      O63742   2.982   0.285   0.876
21167WAT     H163743   3.017   0.379   0.881
21167WAT     H263744   2.982   0.245   0.968
21168WAT      O63745   6.347   3.405   9.036
21168WAT     H163746   6.402   3.475   9.080
21168WAT     H263747   6.407   3.343   8.984
21169WAT      O63748   6.019   3.897   8.011
21169WAT     H163749   6.065   3.893   7.923
21169WAT     H263750   5.922   3.875   8.000
21170WAT      O63751   0.743   4.545   0.657
21170WAT     H163752   0.736   4.454   0.698
21170WAT     H263753   0.754   4.613   0.730
21171WAT      O63754   6.955   6.674   2.223
21171WAT     H163755   7.039   6.649   2.176
21171WAT     H263756   6.908   6.746   2.170
21172WAT      O63757   4.784   7.501   5.136
21172WAT     H163758   4.883   7.516   5.138
21172WAT     H263759   4.755   7.488   5.041
21173WAT      O63760   6.125   3.393   4.953
21173WAT     H163761   6.116   3.492   4.961
21173WAT     H263762   6.118   3.366   4.857
21174WAT      O63763   5.738   7.534   7.255
21174WAT     H163764   5.663   7.515   7.319
21174WAT     H263765   5.825   7.531   7.304
21175WAT      O63766   4.681   4.430   0.501
21175WAT     H163767   4.616   4.422   0.577
21175WAT     H263768   4.690   4.526   0.475
21176WAT      O63769   4.367   2.452   2.101
21176WAT     H163770   4.430   2.457   2.023
21176WAT     H263771   4.366   2.359   2.137
21177WAT      O63772   4.534   7.255   1.868
21177WAT     H163773   4.557   7.272   1.772
21177WAT     H263774   4.573   7.328   1.924
21178WAT      O63775   1.593   0.686   8.007
21178WAT     H163776   1.507   0.639   8.025
21178WAT     H263777   1.584   0.743   7.925
21179WAT      O63778   2.441   8.655   9.018
21179WAT     H163779   2.355   8.613   9.047
21179WAT     H263780   2.484   8.600   8.946
21180WAT      O63781   9.221   9.238   4.032
21180WAT     H163782   9.214   9.256   4.130
21180WAT     H263783   9.314   9.258   4.001
21181WAT      O63784   9.781   3.659   4.265
21181WAT     H163785   9.762   3.687   4.171
21181WAT     H263786   9.718   3.706   4.327
21182WAT      O63787   8.044   7.988   0.770
21182WAT     H163788   7.962   7.991   0.712
21182WAT     H263789   8.074   7.893   0.781
21183WAT      O63790   7.917   5.781   2.932
21183WAT     H163791   7.887   5.714   2.999
21183WAT     H263792   7.836   5.819   2.885
21184WAT      O63793   3.488   5.843   9.793
21184WAT     H163794   3.390   5.854   9.808
21184WAT     H263795   3.520   5.913   9.729
21185WAT      O63796   9.360   0.900   0.986
21185WAT     H163797   9.409   0.823   1.028
21185WAT     H263798   9.425   0.973   0.965
21186WAT      O63799   6.149   2.547   7.115
21186WAT     H163800   6.178   2.613   7.046
21186WAT     H263801   6.092   2.593   7.183
21187WAT      O63802   9.499   0.311   8.445
21187WAT     H163803   9.543   0.400   8.445
21187WAT     H263804   9.529   0.258   8.365
21188WAT      O63805   8.826   6.003   4.260
21188WAT     H163806   8.732   5.977   4.281
21188WAT     H263807   8.861   5.944   4.187
21189WAT      O63808   1.455   5.378   2.837
21189WAT     H163809   1.434   5.402   2.742
21189WAT     H263810   1.370   5.351   2.884
21190WAT      O63811   7.890   5.175   6.939
21190WAT     H163812   7.933   5.147   7.025
21190WAT     H263813   7.935   5.130   6.862
21191WAT      O63814   7.688   7.148   8.791
21191WAT     H163815   7.607   7.162   8.734
21191WAT     H263816   7.663   7.160   8.887
21192WAT      O63817   5.050   3.244   5.243
21192WAT     H163818   5.119   3.265   5.312
21192WAT     H263819   5.056   3.310   5.168
21193WAT      O63820   6.124   7.521   9.379
21193WAT     H163821   6.072   7.585   9.322
21193WAT     H263822   6.122   7.430   9.338
21194WAT      O63823   5.586   5.313   7.712
21194WAT     H163824   5.564   5.275   7.622
21194WAT     H263825   5.642   5.395   7.701
21195WAT      O63826   2.017   6.033   4.431
21195WAT     H163827   2.078   6.112   4.421
21195WAT     H263828   1.987   6.027   4.526
21196WAT      O63829   5.203   2.168   3.581
21196WAT     H163830   5.231   2.119   3.664
21196WAT     H263831   5.151   2.105   3.522
21197WAT      O63832   2.877   5.303   4.828
21197WAT     H163833   2.815   5.235   4.867
21197WAT     H263834   2.885   5.287   4.729
21198WAT      O63835   6.896   6.273   8.011
21198WAT     H163836   6.885   6.341   7.939
21198WAT     H263837   6.880   6.181   7.974
21199WAT      O63838   1.158   0.557   7.342
21199WAT     H163839   1.226   0.547   7.415
21199WAT     H263840   1.196   0.614   7.269
21200WAT      O63841   7.114   1.897   2.722
21200WAT     H163842   7.214   1.900   2.719
21200WAT     H263843   7.084   1.863   2.811
21201WAT      O63844   5.076   8.868   2.039
21201WAT     H163845   5.170   8.892   2.065
21201WAT     H263846   5.057   8.774   2.065
21202WAT      O63847   5.558   5.970   0.947
21202WAT     H163848   5.576   5.911   0.868
21202WAT     H263849   5.521   5.916   1.022
21203WAT      O63850   6.684   8.583   3.210
21203WAT     H163851   6.772   8.551   3.174
21203WAT     H263852   6.610   8.551   3.151
21204WAT      O63853   6.655   5.878   1.942
21204WAT     H163854   6.614   5.968   1.955
21204WAT     H263855   6.590   5.807   1.970
21205WAT      O63856   5.589   5.063   8.395
21205WAT     H163857   5.539   5.094   8.314
21205WAT     H263858   5.553   4.974   8.424
21206WAT      O63859   5.207   2.016   3.193
21206WAT     H163860   5.163   2.009   3.282
21206WAT     H263861   5.193   2.108   3.155
21207WAT      O63862   4.565   2.729   5.798
21207WAT     H163863   4.613   2.672   5.865
21207WAT     H263864   4.598   2.824   5.806
21208WAT      O63865   9.596   1.029   0.971
21208WAT     H163866   9.647   0.954   0.928
21208WAT     H263867   9.645   1.115   0.959
21209WAT      O63868   1.468   8.013   0.023
21209WAT     H163869   1.541   8.041   0.086
21209WAT     H263870   1.466   7.913   0.016
21210WAT      O63871   8.459   7.522   8.684
21210WAT     H163872   8.388   7.531   8.614
21210WAT     H263873   8.444   7.590   8.756
21211WAT      O63874   9.486   6.663   8.936
21211WAT     H163875   9.459   6.579   8.983
21211WAT     H263876   9.405   6.710   8.902
21212WAT      O63877   2.321   8.076   2.464
21212WAT     H163878   2.317   7.984   2.425
21212WAT     H263879   2.336   8.143   2.391
21213WAT      O63880   9.064   9.029   9.595
21213WAT     H163881   9.069   8.930   9.604
21213WAT     H263882   8.969   9.059   9.608
21214WAT      O63883   7.970   8.938   2.349
21214WAT     H163884   7.878   8.967   2.373
21214WAT     H263885   8.030   9.018   2.344
21215WAT      O63886   5.056   8.490   7.679
21215WAT     H163887   5.043   8.589   7.667
21215WAT     H263888   5.150   8.465   7.655
21216WAT      O63889   7.910   5.864   6.157
21216WAT     H163890   7.866   5.798   6.096
21216WAT     H263891   7.992   5.900   6.113
21217WAT      O63892   6.349   8.983   8.442
21217WAT     H163893   6.442   8.994   8.478
21217WAT     H263894   6.283   8.996   8.515
21218WAT      O63895   7.382   8.594   2.838
21218WAT     H163896   7.319   8.545   2.897
21218WAT     H263897   7.400   8.539   2.756
21219WAT      O63898   4.865   3.404   8.009
21219WAT     H163899   4.804   3.458   8.066
21219WAT     H263900   4.941   3.369   8.065
21220WAT      O63901   0.179   3.790   2.289
21220WAT     H163902   0.186   3.886   2.315
21220WAT     H263903   0.139   3.738   2.365
21221WAT      O63904   4.022   0.926   8.341
21221WAT     H163905   4.057   0.884   8.257
21221WAT     H263906   4.033   0.863   8.417
21222WAT      O63907   4.582   9.708   5.175
21222WAT     H163908   4.582   9.774   5.250
21222WAT     H263909   4.521   9.740   5.102
21223WAT      O63910   7.063   3.612   3.053
21223WAT     H163911   7.098   3.607   2.959
21223WAT     H263912   7.005   3.692   3.063
21224WAT      O63913   8.068   0.157   2.480
21224WAT     H163914   8.092   0.064   2.454
21224WAT     H263915   8.132   0.221   2.438
21225WAT      O63916   2.935   2.047   7.133
21225WAT     H163917   2.873   2.125   7.139
21225WAT     H263918   2.983   2.049   7.045
21226WAT      O63919   8.276   7.484   8.458
21226WAT     H163920   8.217   7.558   8.427
21226WAT     H263921   8.220   7.416   8.507
21227WAT      O63922   7.249   6.033   0.639
21227WAT     H163923   7.294   5.944   0.634
21227WAT     H263924   7.318   6.104   0.655
21228WAT      O63925   1.422   0.113   3.812
21228WAT     H163926   1.464   0.203   3.828
21228WAT     H263927   1.336   0.125   3.762
21229WAT      O63928   0.840   4.961   8.330
21229WAT     H163929   0.840   4.945   8.429
21229WAT     H263930   0.933   4.979   8.299
21230WAT      O63931   8.521   5.877   1.597
21230WAT     H163932   8.468   5.851   1.678
21230WAT     H263933   8.562   5.967   1.612
21231WAT      O63934   7.462   5.731   1.294
21231WAT     H163935   7.539   5.694   1.241
21231WAT     H263936   7.395   5.659   1.310
21232WAT      O63937   7.894   1.940   3.885
21232WAT     H163938   7.902   1.841   3.895
21232WAT     H263939   7.806   1.963   3.845
21233WAT      O63940   8.498   6.503   9.711
21233WAT     H163941   8.553   6.439   9.657
21233WAT     H263942   8.401   6.479   9.701
21234WAT      O63943   4.680   8.980   1.438
21234WAT     H163944   4.610   8.927   1.390
21234WAT     H263945   4.640   9.066   1.470
21235WAT      O63946   2.311   6.186   8.873
21235WAT     H163947   2.214   6.190   8.898
21235WAT     H263948   2.321   6.146   8.782
21236WAT      O63949   1.317   2.152   7.893
21236WAT     H163950   1.219   2.171   7.890
21236WAT     H263951   1.349   2.127   7.801
21237WAT      O63952   3.437   0.913   4.186
21237WAT     H163953   3.497   0.848   4.234
21237WAT     H263954   3.426   0.995   4.241
21238WAT      O63955   9.675   0.657   4.422
21238WAT     H163956   9.649   0.747   4.458
21238WAT     H263957   9.674   0.590   4.497
21239WAT      O63958   8.902   5.524   9.185
21239WAT     H163959   8.981   5.468   9.207
21239WAT     H263960   8.905   5.610   9.236
21240WAT      O63961   8.786   1.470   1.864
21240WAT     H163962   8.813   1.374   1.858
21240WAT     H263963   8.802   1.514   1.776
21241WAT      O63964   8.798   7.577   9.356
21241WAT     H163965   8.729   7.604   9.289
21241WAT     H263966   8.780   7.482   9.385
21242WAT      O63967   6.178   3.264   9.242
21242WAT     H163968   6.192   3.172   9.278
21242WAT     H263969   6.261   3.294   9.195
21243WAT      O63970   2.814   5.441   4.270
21243WAT     H163971   2.857   5.475   4.354
21243WAT     H263972   2.854   5.353   4.246
21244WAT      O63973   8.425   5.741   1.193
21244WAT     H163974   8.340   5.744   1.141
21244WAT     H263975   8.490   5.681   1.147
21245WAT      O63976   2.942   8.407   9.368
21245WAT     H163977   3.012   8.466   9.327
21245WAT     H263978   2.970   8.380   9.460
21246WAT      O63979   1.415   9.751   8.914
21246WAT     H163980   1.359   9.705   8.983
21246WAT     H263981   1.421   9.848   8.937
21247WAT      O63982   2.670   8.973   3.325
21247WAT     H163983   2.630   9.064   3.315
21247WAT     H263984   2.757   8.969   3.277
21248WAT      O63985   2.370   5.634   1.667
21248WAT     H163986   2.420   5.547   1.665
21248WAT     H263987   2.426   5.704   1.710
21249WAT      O63988   6.992   4.127   4.567
21249WAT     H163989   7.026   4.127   4.661
21249WAT     H263990   7.030   4.205   4.517
21250WAT      O63991   5.802   7.981   2.872
21250WAT     H163992   5.868   7.906   2.863
21250WAT     H263993   5.821   8.032   2.956
21251WAT      O63994   3.495   4.745   4.984
21251WAT     H163995   3.425   4.782   5.045
21251WAT     H263996   3.542   4.820   4.937
21252WAT      O63997   3.082   7.833   6.038
21252WAT     H163998   3.148   7.774   5.990
21252WAT     H263999   3.089   7.818   6.136
21253WAT      O64000   2.944   2.370   3.871
21253WAT     H164001   3.025   2.420   3.841
21253WAT     H264002   2.967   2.312   3.950
21254WAT      O64003   1.380   3.470   5.717
21254WAT     H164004   1.410   3.385   5.674
21254WAT     H264005   1.293   3.455   5.764
21255WAT      O64006   9.671   8.515   3.562
21255WAT     H164007   9.620   8.589   3.517
21255WAT     H264008   9.754   8.552   3.603
21256WAT      O64009   9.211   9.405   4.895
21256WAT     H164010   9.178   9.448   4.980
21256WAT     H264011   9.147   9.425   4.821
21257WAT      O64012   0.333   4.088   9.488
21257WAT     H164013   0.253   4.138   9.522
21257WAT     H264014   0.413   4.149   9.491
21258WAT      O64015   3.007   5.553   6.118
21258WAT     H164016   2.938   5.506   6.063
21258WAT     H264017   2.972   5.567   6.210
21259WAT      O64018   0.973   0.691   6.974
21259WAT     H164019   0.889   0.692   6.921
21259WAT     H264020   1.021   0.778   6.962
21260WAT      O64021   5.733   7.537   7.789
21260WAT     H164022   5.774   7.600   7.855
21260WAT     H264023   5.662   7.584   7.737
21261WAT      O64024   9.653   1.417   3.007
21261WAT     H164025   9.596   1.336   2.989
21261WAT     H264026   9.600   1.499   2.984
21262WAT      O64027   5.233   3.603   6.561
21262WAT     H164028   5.296   3.660   6.508
21262WAT     H264029   5.140   3.639   6.554
21263WAT      O64030   0.288   6.902   5.482
21263WAT     H164031   0.255   6.969   5.548
21263WAT     H264032   0.364   6.941   5.430
21264WAT      O64033   2.719   9.560   0.701
21264WAT     H164034   2.674   9.614   0.630
21264WAT     H264035   2.669   9.569   0.787
21265WAT      O64036   2.700   0.028   4.976
21265WAT     H164037   2.629   0.097   4.963
21265WAT     H264038   2.778   0.070   5.023
21266WAT      O64039   2.100   0.511   4.363
21266WAT     H164040   2.041   0.442   4.406
21266WAT     H264041   2.187   0.469   4.338
21267WAT      O64042   9.526   2.468   0.560
21267WAT     H164043   9.568   2.390   0.606
21267WAT     H264044   9.497   2.535   0.627
21268WAT      O64045   1.639   3.693   7.427
21268WAT     H164046   1.540   3.691   7.441
21268WAT     H264047   1.676   3.780   7.459
21269WAT      O64048   1.673   6.339   9.371
21269WAT     H164049   1.770   6.329   9.393
21269WAT     H264050   1.633   6.409   9.430
21270WAT      O64051   6.905   6.455   6.946
21270WAT     H164052   6.902   6.356   6.955
21270WAT     H264053   6.976   6.481   6.880
21271WAT      O64054   8.715   0.356   6.862
21271WAT     H164055   8.681   0.265   6.837
21271WAT     H264056   8.757   0.399   6.782
21272WAT      O64057   5.122   9.626   0.890
21272WAT     H164058   5.144   9.534   0.857
21272WAT     H264059   5.202   9.666   0.933
21273WAT      O64060   8.321   9.552   7.579
21273WAT     H164061   8.239   9.566   7.635
21273WAT     H264062   8.359   9.461   7.597
21274WAT      O64063   2.052   1.983   4.862
21274WAT     H164064   2.030   1.911   4.927
21274WAT     H264065   2.044   2.073   4.907
21275WAT      O64066   3.116   4.623   7.176
21275WAT     H164067   3.193   4.687   7.170
21275WAT     H264068   3.149   4.531   7.153
21276WAT      O64069   7.422   5.777   6.581
21276WAT     H164070   7.513   5.735   6.585
21276WAT     H264071   7.365   5.727   6.516
21277WAT      O64072   8.710   4.025   0.560
21277WAT     H164073   8.722   3.946   0.620
21277WAT     H264074   8.708   4.109   0.615
21278WAT      O64075   7.851   9.542   2.070
21278WAT     H164076   7.832   9.543   2.168
21278WAT     H264077   7.900   9.625   2.044
21279WAT      O64078   2.201   3.410   3.238
21279WAT     H164079   2.122   3.366   3.196
21279WAT     H264080   2.281   3.399   3.179
21280WAT      O64081   0.992   6.343   1.727
21280WAT     H164082   0.976   6.369   1.822
21280WAT     H264083   0.956   6.415   1.666
21281WAT      O64084   9.849   3.608   9.433
21281WAT     H164085   9.912   3.610   9.511
21281WAT     H264086   9.772   3.547   9.454
21282WAT      O64087   8.609   5.269   2.538
21282WAT     H164088   8.643   5.341   2.598
21282WAT     H264089   8.650   5.182   2.564
21283WAT      O64090   1.604   0.781   7.465
21283WAT     H164091   1.605   0.687   7.432
21283WAT     H264092   1.671   0.835   7.415
21284WAT      O64093   9.000   0.605   0.420
21284WAT     H164094   8.934   0.537   0.452
21284WAT     H264095   9.007   0.679   0.487
21285WAT      O64096   5.532   8.670   4.584
21285WAT     H164097   5.455   8.702   4.639
21285WAT     H264098   5.516   8.692   4.488
21286WAT      O64099   4.038   5.508   5.616
21286WAT     H164100   4.107   5.436   5.615
21286WAT     H264101   3.984   5.502   5.700
21287WAT      O64102   7.970   3.395   2.885
21287WAT     H164103   8.067   3.419   2.885
21287WAT     H264104   7.924   3.440   2.808
21288WAT      O64105   5.722   7.135   3.566
21288WAT     H164106   5.633   7.114   3.525
21288WAT     H264107   5.790   7.144   3.493
21289WAT      O64108   1.391   7.365   9.629
21289WAT     H164109   1.473   7.361   9.686
21289WAT     H264110   1.331   7.438   9.662
21290WAT      O64111   3.467   8.710   3.777
21290WAT     H164112   3.429   8.698   3.869
21290WAT     H264113   3.563   8.739   3.784
21291WAT      O64114   2.534   1.372   9.720
21291WAT     H164115   2.498   1.284   9.751
21291WAT     H264116   2.474   1.409   9.649
21292WAT      O64117   7.545   1.677   6.827
21292WAT     H164118   7.449   1.681   6.798
21292WAT     H264119   7.550   1.643   6.921
21293WAT      O64120   2.506   4.453   4.225
21293WAT     H164121   2.512   4.553   4.222
21293WAT     H264122   2.531   4.415   4.137
21294WAT      O64123   5.703   0.574   5.453
21294WAT     H164124   5.626   0.637   5.457
21294WAT     H264125   5.684   0.502   5.386
21295WAT      O64126   3.151   2.430   7.156
21295WAT     H164127   3.123   2.357   7.094
21295WAT     H264128   3.160   2.394   7.249
21296WAT      O64129   0.515   9.268   2.040
21296WAT     H164130   0.437   9.316   2.081
21296WAT     H264131   0.596   9.279   2.097
21297WAT      O64132   9.124   8.127   8.278
21297WAT     H164133   9.202   8.180   8.243
21297WAT     H264134   9.104   8.052   8.215
21298WAT      O64135   6.971   4.584   1.771
21298WAT     H164136   7.047   4.625   1.719
21298WAT     H264137   7.006   4.509   1.827
21299WAT      O64138   5.265   2.257   9.792
21299WAT     H164139   5.328   2.249   9.869
21299WAT     H264140   5.184   2.202   9.810
21300WAT      O64141   1.039   4.582   1.402
21300WAT     H164142   1.073   4.564   1.495
21300WAT     H264143   1.055   4.677   1.378
21301WAT      O64144   4.946   8.477   5.696
21301WAT     H164145   4.884   8.554   5.680
21301WAT     H264146   4.896   8.391   5.688
21302WAT      O64147   4.920   0.490   7.618
21302WAT     H164148   4.892   0.458   7.709
21302WAT     H264149   4.840   0.522   7.568
21303WAT      O64150   5.533   6.189   8.001
21303WAT     H164151   5.530   6.255   7.926
21303WAT     H264152   5.447   6.194   8.053
21304WAT      O64153   3.071   4.748   9.485
21304WAT     H164154   3.084   4.821   9.552
21304WAT     H264155   2.986   4.764   9.435
21305WAT      O64156   8.104   0.459   5.254
21305WAT     H164157   8.174   0.468   5.183
21305WAT     H264158   8.102   0.365   5.287
21306WAT      O64159   3.268   3.384   5.753
21306WAT     H164160   3.190   3.350   5.806
21306WAT     H264161   3.235   3.428   5.670
21307WAT      O64162   6.391   8.749   1.758
21307WAT     H164163   6.358   8.840   1.734
21307WAT     H264164   6.361   8.684   1.688
21308WAT      O64165   8.264   4.037   1.461
21308WAT     H164166   8.319   3.971   1.410
21308WAT     H264167   8.321   4.082   1.530
21309WAT      O64168   1.231   3.305   3.708
21309WAT     H164169   1.304   3.371   3.728
21309WAT     H264170   1.180   3.285   3.792
21310WAT      O64171   3.854   2.188   1.086
21310WAT     H164172   3.849   2.288   1.090
21310WAT     H264173   3.769   2.152   1.048
21311WAT      O64174   7.269   3.389   9.070
21311WAT     H164175   7.209   3.377   9.150
21311WAT     H264176   7.268   3.485   9.042
21312WAT      O64177   5.220   7.311   5.832
21312WAT     H164178   5.147   7.256   5.791
21312WAT     H264179   5.306   7.260   5.829
21313WAT      O64180   9.620   1.548   5.946
21313WAT     H164181   9.588   1.455   5.930
21313WAT     H264182   9.570   1.611   5.887
21314WAT      O64183   0.908   6.250   1.149
21314WAT     H164184   0.825   6.209   1.188
21314WAT     H264185   0.965   6.178   1.109
21315WAT      O64186   0.671   8.044   7.423
21315WAT     H164187   0.682   7.946   7.439
21315WAT     H264188   0.737   8.074   7.353
21316WAT      O64189   4.969   6.357   7.193
21316WAT     H164190   5.029   6.281   7.168
21316WAT     H264191   5.024   6.428   7.238
21317WAT      O64192   0.739   5.609   1.674
21317WAT     H164193   0.827   5.598   1.720
21317WAT     H264194   0.682   5.528   1.692
21318WAT      O64195   2.063   2.423   8.764
21318WAT     H164196   2.081   2.404   8.668
21318WAT     H264197   2.062   2.521   8.779
21319WAT      O64198   2.373   2.998   4.284
21319WAT     H164199   2.448   2.940   4.317
21319WAT     H264200   2.316   3.027   4.361
21320WAT      O64201   3.594   7.569   6.547
21320WAT     H164202   3.581   7.470   6.551
21320WAT     H264203   3.625   7.602   6.636
21321WAT      O64204   3.236   9.347   8.402
21321WAT     H164205   3.165   9.417   8.389
21321WAT     H264206   3.285   9.365   8.487
21322WAT      O64207   3.678   4.013   3.794
21322WAT     H164208   3.633   4.100   3.815
21322WAT     H264209   3.743   3.991   3.867
21323WAT      O64210   9.484   8.186   5.628
21323WAT     H164211   9.402   8.153   5.676
21323WAT     H264212   9.459   8.218   5.537
21324WAT      O64213   1.128   8.908   4.013
21324WAT     H164214   1.064   8.945   3.945
21324WAT     H264215   1.129   8.967   4.094
21325WAT      O64216   8.834   2.843   0.353
21325WAT     H164217   8.855   2.877   0.445
21325WAT     H264218   8.910   2.864   0.291
21326WAT      O64219   6.109   0.156   0.061
21326WAT     H164220   6.040   0.229   0.055
21326WAT     H264221   6.200   0.197   0.069
21327WAT      O64222   0.338   8.412   9.484
21327WAT     H164223   0.393   8.425   9.567
21327WAT     H264224   0.390   8.359   9.417
21328WAT      O64225   6.283   6.177   0.230
21328WAT     H164226   6.311   6.094   0.182
21328WAT     H264227   6.358   6.210   0.287
21329WAT      O64228   8.168   4.690   0.850
21329WAT     H164229   8.187   4.652   0.760
21329WAT     H264230   8.195   4.787   0.852
21330WAT      O64231   0.247   8.579   8.593
21330WAT     H164232   0.336   8.534   8.605
21330WAT     H264233   0.259   8.662   8.539
21331WAT      O64234   4.040   1.797   3.162
21331WAT     H164235   4.088   1.837   3.239
21331WAT     H264236   4.105   1.779   3.088
21332WAT      O64237   7.329   5.228   8.464
21332WAT     H164238   7.395   5.153   8.471
21332WAT     H264239   7.236   5.193   8.472
21333WAT      O64240   0.074   7.409   3.822
21333WAT     H164241   0.069   7.350   3.902
21333WAT     H264242   0.037   7.499   3.844
21334WAT      O64243   2.845   7.313   6.005
21334WAT     H164244   2.922   7.256   5.975
21334WAT     H264245   2.774   7.313   5.934
21335WAT      O64246   5.561   4.773   8.818
21335WAT     H164247   5.619   4.726   8.885
21335WAT     H264248   5.465   4.749   8.833
21336WAT      O64249   7.702   1.426   8.312
21336WAT     H164250   7.703   1.488   8.233
21336WAT     H264251   7.649   1.468   8.386
21337WAT      O64252   4.468   2.988   9.056
21337WAT     H164253   4.414   2.908   9.028
21337WAT     H264254   4.442   3.016   9.148
21338WAT      O64255   3.983   4.990   2.809
21338WAT     H164256   3.968   5.084   2.837
21338WAT     H264257   3.898   4.937   2.820
21339WAT      O64258   3.066   5.310   6.823
21339WAT     H164259   3.129   5.247   6.869
21339WAT     H264260   3.003   5.349   6.890
21340WAT      O64261   9.233   7.635   8.229
21340WAT     H164262   9.186   7.551   8.203
21340WAT     H264263   9.274   7.677   8.149
21341WAT      O64264   9.204   5.362   6.711
21341WAT     H164265   9.152   5.365   6.796
21341WAT     H264266   9.275   5.292   6.717
21342WAT      O64267   7.109   2.201   7.224
21342WAT     H164268   7.181   2.198   7.293
21342WAT     H264269   7.151   2.209   7.133
21343WAT      O64270   4.839   8.345   2.243
21343WAT     H164271   4.889   8.425   2.278
21343WAT     H264272   4.859   8.266   2.301
21344WAT      O64273   5.455   3.921   4.527
21344WAT     H164274   5.484   3.903   4.622
21344WAT     H264275   5.356   3.910   4.520
21345WAT      O64276   7.539   0.986   5.693
21345WAT     H164277   7.633   0.952   5.687
21345WAT     H264278   7.529   1.039   5.777
21346WAT      O64279   1.145   0.907   6.930
21346WAT     H164280   1.099   0.924   6.843
21346WAT     H264281   1.183   0.992   6.966
21347WAT      O64282   4.357   4.360   3.704
21347WAT     H164283   4.351   4.457   3.679
21347WAT     H264284   4.435   4.319   3.658
21348WAT      O64285   2.999   0.138   2.692
21348WAT     H164286   2.986   0.040   2.672
21348WAT     H264287   3.037   0.149   2.784
21349WAT      O64288   0.128   5.230   6.150
21349WAT     H164289   0.092   5.321   6.133
21349WAT     H264290   0.208   5.237   6.210
21350WAT      O64291   9.355   0.302   6.841
21350WAT     H164292   9.276   0.355   6.873
21350WAT     H264293   9.367   0.316   6.742
21351WAT      O64294   7.069   8.859   5.002
21351WAT     H164295   7.062   8.898   4.910
21351WAT     H264296   6.992   8.892   5.057
21352WAT      O64297   0.027   4.197   4.791
21352WAT     H164298  -0.047   4.131   4.804
21352WAT     H264299   0.107   4.170   4.845
21353WAT      O64300   7.596   8.404   2.161
21353WAT     H164301   7.677   8.449   2.124
21353WAT     H264302   7.522   8.471   2.170
21354WAT      O64303   1.048   4.222   0.451
21354WAT     H164304   1.113   4.242   0.376
21354WAT     H264305   0.970   4.283   0.444
21355WAT      O64306   7.451   4.900   5.663
21355WAT     H164307   7.453   4.846   5.579
21355WAT     H264308   7.455   4.998   5.640
21356WAT      O64309   9.554   4.048   1.380
21356WAT     H164310   9.507   4.110   1.443
21356WAT     H264311   9.531   3.954   1.403
21357WAT      O64312   2.531   4.356   9.197
21357WAT     H164313   2.472   4.290   9.151
21357WAT     H264314   2.500   4.368   9.292
21358WAT      O64315   1.676   4.630   8.745
21358WAT     H164316   1.669   4.729   8.754
21358WAT     H264317   1.603   4.596   8.685
21359WAT      O64318   1.945   9.840   2.132
21359WAT     H164319   1.945   9.795   2.042
21359WAT     H264320   1.967   9.772   2.202
21360WAT      O64321   6.170   6.866   3.608
21360WAT     H164322   6.154   6.965   3.602
21360WAT     H264323   6.083   6.818   3.612
21361WAT      O64324   5.912   4.866   6.725
21361WAT     H164325   5.914   4.878   6.824
21361WAT     H264326   5.952   4.947   6.681
21362WAT      O64327   5.691   1.776  -0.003
21362WAT     H164328   5.786   1.746  -0.011
21362WAT     H264329   5.678   1.823   0.084
21363WAT      O64330   4.137   5.590   1.647
21363WAT     H164331   4.185   5.652   1.710
21363WAT     H264332   4.177   5.498   1.656
21364WAT      O64333   5.760   7.628   9.578
21364WAT     H164334   5.839   7.685   9.554
21364WAT     H264335   5.678   7.667   9.537
21365WAT      O64336   8.285   6.592   7.262
21365WAT     H164337   8.289   6.499   7.297
21365WAT     H264338   8.190   6.618   7.246
21366WAT      O64339   4.999   0.486   1.190
21366WAT     H164340   4.996   0.455   1.095
21366WAT     H264341   4.910   0.521   1.217
21367WAT      O64342   1.236   4.963   5.245
21367WAT     H164343   1.331   4.938   5.261
21367WAT     H264344   1.184   4.953   5.330
21368WAT      O64345   8.605   6.647   0.373
21368WAT     H164346   8.680   6.622   0.311
21368WAT     H264347   8.528   6.586   0.358
21369WAT      O64348   5.715   7.344   3.823
21369WAT     H164349   5.627   7.374   3.785
21369WAT     H264350   5.730   7.248   3.800
21370WAT      O64351   5.012   2.827   3.288
21370WAT     H164352   5.030   2.750   3.348
21370WAT     H264353   5.040   2.805   3.195
21371WAT      O64354   9.531   0.470   2.829
21371WAT     H164355   9.535   0.524   2.913
21371WAT     H264356   9.619   0.425   2.814
21372WAT      O64357   2.693   0.256   1.489
21372WAT     H164358   2.682   0.308   1.574
21372WAT     H264359   2.613   0.271   1.430
21373WAT      O64360   1.630   6.570   3.444
21373WAT     H164361   1.675   6.510   3.378
21373WAT     H264362   1.695   6.638   3.477
21374WAT      O64363   2.727   9.078   1.273
21374WAT     H164364   2.799   9.121   1.219
21374WAT     H264365   2.660   9.036   1.212
21375WAT      O64366   7.148   7.070   4.726
21375WAT     H164367   7.096   7.093   4.644
21375WAT     H264368   7.205   6.989   4.707
21376WAT      O64369   6.992   2.395   6.235
21376WAT     H164370   7.065   2.383   6.168
21376WAT     H264371   6.937   2.312   6.239
21377WAT      O64372   4.383   4.446   2.312
21377WAT     H164373   4.376   4.364   2.369
21377WAT     H264374   4.298   4.458   2.260
21378WAT      O64375   6.690   3.448   2.812
21378WAT     H164376   6.629   3.527   2.819
21378WAT     H264377   6.689   3.398   2.899
21379WAT      O64378   4.573   8.734   4.416
21379WAT     H164379   4.625   8.727   4.331
21379WAT     H264380   4.625   8.693   4.491
21380WAT      O64381   5.270   1.882   8.344
21380WAT     H164382   5.308   1.972   8.324
21380WAT     H264383   5.287   1.821   8.266
21381WAT      O64384   1.496   1.072   4.929
21381WAT     H164385   1.428   1.012   4.972
21381WAT     H264386   1.450   1.134   4.865
21382WAT      O64387   1.890   1.925   8.273
21382WAT     H164388   1.840   1.950   8.190
21382WAT     H264389   1.974   1.878   8.248
21383WAT      O64390   1.429   0.703   9.655
21383WAT     H164391   1.447   0.725   9.751
21383WAT     H264392   1.451   0.782   9.598
21384WAT      O64393   5.298   1.183   2.653
21384WAT     H164394   5.264   1.099   2.696
21384WAT     H264395   5.240   1.260   2.679
21385WAT      O64396   8.177   2.671   8.621
21385WAT     H164397   8.114   2.728   8.672
21385WAT     H264398   8.211   2.597   8.679
21386WAT      O64399   3.467   2.647   5.607
21386WAT     H164400   3.444   2.744   5.610
21386WAT     H264401   3.413   2.601   5.537
21387WAT      O64402   8.764   7.227   6.773
21387WAT     H164403   8.835   7.227   6.702
21387WAT     H264404   8.685   7.278   6.741
21388WAT      O64405   6.715   7.484   5.973
21388WAT     H164406   6.652   7.467   5.897
21388WAT     H264407   6.806   7.451   5.949
21389WAT      O64408   5.855   2.294   6.745
21389WAT     H164409   5.848   2.313   6.646
21389WAT     H264410   5.789   2.352   6.794
21390WAT      O64411   3.983   7.465   2.016
21390WAT     H164412   3.960   7.371   2.041
21390WAT     H264413   4.052   7.501   2.079
21391WAT      O64414   1.846   9.661   3.622
21391WAT     H164415   1.814   9.577   3.666
21391WAT     H264416   1.772   9.729   3.620
21392WAT      O64417   4.340   5.382   9.755
21392WAT     H164418   4.274   5.444   9.798
21392WAT     H264419   4.297   5.293   9.740
21393WAT      O64420   8.536   1.174   0.429
21393WAT     H164421   8.443   1.196   0.400
21393WAT     H264422   8.532   1.128   0.518
21394WAT      O64423   2.070   7.156   3.376
21394WAT     H164424   1.981   7.132   3.415
21394WAT     H264425   2.076   7.256   3.365
21395WAT      O64426   2.779   1.514   7.151
21395WAT     H164427   2.709   1.479   7.090
21395WAT     H264428   2.843   1.441   7.175
21396WAT      O64429   4.336   5.818   5.112
21396WAT     H164430   4.377   5.727   5.115
21396WAT     H264431   4.255   5.816   5.053
21397WAT      O64432   3.588   5.067   5.789
21397WAT     H164433   3.518   5.008   5.748
21397WAT     H264434   3.553   5.161   5.793
21398WAT      O64435   1.703   5.498   4.465
21398WAT     H164436   1.718   5.595   4.446
21398WAT     H264437   1.610   5.472   4.438
21399WAT      O64438   1.438   3.972   7.473
21399WAT     H164439   1.524   3.951   7.519
21399WAT     H264440   1.384   3.889   7.463
21400WAT      O64441   5.996   4.788   0.658
21400WAT     H164442   5.974   4.792   0.560
21400WAT     H264443   6.079   4.842   0.676
21401WAT      O64444   4.637   5.857   1.034
21401WAT     H164445   4.549   5.890   1.068
21401WAT     H264446   4.625   5.769   0.989
21402WAT      O64447   4.502   8.520   4.200
21402WAT     H164448   4.588   8.566   4.223
21402WAT     H264449   4.521   8.444   4.137
21403WAT      O64450   5.778   2.427   6.204
21403WAT     H164451   5.741   2.410   6.113
21403WAT     H264452   5.878   2.420   6.201
21404WAT      O64453   3.986   0.921   3.179
21404WAT     H164454   3.945   0.841   3.222
21404WAT     H264455   4.082   0.904   3.161
21405WAT      O64456   7.217   6.761   4.546
21405WAT     H164457   7.123   6.733   4.566
21405WAT     H264458   7.274   6.746   4.626
21406WAT      O64459   7.181   5.021   6.612
21406WAT     H164460   7.182   5.027   6.512
21406WAT     H264461   7.147   4.931   6.639
21407WAT      O64462   0.858   1.041   9.836
21407WAT     H164463   0.817   1.019   9.925
21407WAT     H264464   0.786   1.047   9.767
21408WAT      O64465   5.550   0.064   6.941
21408WAT     H164466   5.467   0.104   6.904
21408WAT     H264467   5.587   0.123   7.013
21409WAT      O64468   4.125   0.231   4.080
21409WAT     H164469   4.054   0.300   4.085
21409WAT     H264470   4.084   0.140   4.068
21410WAT      O64471   8.825   7.806   2.583
21410WAT     H164472   8.872   7.885   2.622
21410WAT     H264473   8.754   7.838   2.520
21411WAT      O64474   5.782   1.330   9.375
21411WAT     H164475   5.817   1.417   9.339
21411WAT     H264476   5.851   1.290   9.436
21412WAT      O64477   4.382   5.540   6.979
21412WAT     H164478   4.428   5.456   6.949
21412WAT     H264479   4.331   5.579   6.903
21413WAT      O64480   4.135   7.261   4.426
21413WAT     H164481   4.181   7.314   4.355
21413WAT     H264482   4.037   7.256   4.407
21414WAT      O64483   3.142   6.355   3.551
21414WAT     H164484   3.121   6.311   3.464
21414WAT     H264485   3.075   6.427   3.569
21415WAT      O64486   5.641   6.221   0.450
21415WAT     H164487   5.571   6.258   0.389
21415WAT     H264488   5.659   6.288   0.522
21416WAT      O64489   9.476   5.628   5.123
21416WAT     H164490   9.544   5.702   5.129
21416WAT     H264491   9.522   5.543   5.098
21417WAT      O64492   5.373   8.924   7.176
21417WAT     H164493   5.410   8.844   7.224
21417WAT     H264494   5.397   8.918   7.079
21418WAT      O64495   7.666   3.482   4.022
21418WAT     H164496   7.637   3.496   3.927
21418WAT     H264497   7.633   3.557   4.079
21419WAT      O64498   3.494   4.092   4.695
21419WAT     H164499   3.415   4.035   4.718
21419WAT     H264500   3.572   4.066   4.751
21420WAT      O64501   4.380   6.131   1.585
21420WAT     H164502   4.334   6.115   1.672
21420WAT     H264503   4.403   6.044   1.542
21421WAT      O64504   9.137   9.495   5.778
21421WAT     H164505   9.202   9.492   5.703
21421WAT     H264506   9.186   9.491   5.865
21422WAT      O64507   3.787   0.581   3.688
21422WAT     H164508   3.835   0.669   3.676
21422WAT     H264509   3.705   0.580   3.632
21423WAT      O64510   6.881   3.145   5.612
21423WAT     H164511   6.953   3.212   5.597
21423WAT     H264512   6.895   3.100   5.700
21424WAT      O64513   1.939   0.203   9.231
21424WAT     H164514   1.907   0.125   9.177
21424WAT     H264515   2.034   0.223   9.209
21425WAT      O64516   7.677   8.637   1.815
21425WAT     H164517   7.581   8.619   1.795
21425WAT     H264518   7.694   8.736   1.814
21426WAT      O64519   3.025   8.710   7.286
21426WAT     H164520   3.079   8.735   7.366
21426WAT     H264521   3.062   8.754   7.205
21427WAT      O64522   0.841   1.239   2.317
21427WAT     H164523   0.841   1.293   2.401
21427WAT     H264524   0.821   1.299   2.239
21428WAT      O64525   7.759   9.811   1.769
21428WAT     H164526   7.805   9.818   1.857
21428WAT     H264527   7.819   9.846   1.697
21429WAT      O64528   2.490   3.910   6.817
21429WAT     H164529   2.428   3.871   6.749
21429WAT     H264530   2.548   3.838   6.855
21430WAT      O64531   6.961   7.990   6.708
21430WAT     H164532   6.941   8.030   6.618
21430WAT     H264533   6.881   7.939   6.740
21431WAT      O64534   4.576   4.997   9.210
21431WAT     H164535   4.553   5.030   9.118
21431WAT     H264536   4.624   5.069   9.260
21432WAT      O64537   4.952   2.763   3.745
21432WAT     H164538   5.022   2.777   3.815
21432WAT     H264539   4.908   2.674   3.757
21433WAT      O64540   6.846   7.687   3.845
21433WAT     H164541   6.771   7.647   3.898
21433WAT     H264542   6.921   7.622   3.840
21434WAT      O64543   1.954   5.901   2.210
21434WAT     H164544   1.961   5.977   2.147
21434WAT     H264545   1.881   5.919   2.276
21435WAT      O64546   1.066   6.570   7.040
21435WAT     H164547   1.165   6.579   7.049
21435WAT     H264548   1.045   6.502   6.969
21436WAT      O64549   5.741   7.642   4.561
21436WAT     H164550   5.776   7.719   4.615
21436WAT     H264551   5.642   7.635   4.574
21437WAT      O64552   0.707   3.261   3.413
21437WAT     H164553   0.709   3.164   3.435
21437WAT     H264554   0.798   3.290   3.382
21438WAT      O64555   9.875   2.268   9.771
21438WAT     H164556   9.781   2.281   9.804
21438WAT     H264557   9.903   2.173   9.787
21439WAT      O64558   3.812   0.676   2.319
21439WAT     H164559   3.800   0.665   2.220
21439WAT     H264560   3.818   0.773   2.341
21440WAT      O64561   3.839   3.610   6.950
21440WAT     H164562   3.845   3.663   6.865
21440WAT     H264563   3.926   3.562   6.965
21441WAT      O64564   9.531   1.782   8.151
21441WAT     H164565   9.503   1.854   8.086
21441WAT     H264566   9.449   1.741   8.192
21442WAT      O64567   0.837   2.075   9.186
21442WAT     H164568   0.744   2.040   9.196
21442WAT     H264569   0.882   2.075   9.275
21443WAT      O64570   2.008   7.409   1.836
21443WAT     H164571   2.098   7.419   1.879
21443WAT     H264572   1.990   7.489   1.779
21444WAT      O64573   1.502   6.872   6.344
21444WAT     H164574   1.433   6.891   6.274
21444WAT     H264575   1.535   6.778   6.334
21445WAT      O64576   0.931   9.653   7.127
21445WAT     H164577   0.968   9.650   7.220
21445WAT     H264578   0.948   9.742   7.087
21446WAT      O64579   0.673   4.032   8.873
21446WAT     H164580   0.633   4.119   8.901
21446WAT     H264581   0.660   3.964   8.945
21447WAT      O64582   2.817   4.475   1.229
21447WAT     H164583   2.746   4.545   1.237
21447WAT     H264584   2.813   4.414   1.308
21448WAT      O64585   1.932   2.845   0.744
21448WAT     H164586   1.853   2.784   0.740
21448WAT     H264587   1.928   2.911   0.669
21449WAT      O64588   0.187   9.835   2.074
21449WAT     H164589   0.100   9.871   2.040
21449WAT     H264590   0.238   9.795   1.998
21450WAT      O64591   5.459   6.211   0.768
21450WAT     H164592   5.382   6.198   0.706
21450WAT     H264593   5.485   6.123   0.808
21451WAT      O64594   3.427   7.522   7.717
21451WAT     H164595   3.487   7.579   7.661
21451WAT     H264596   3.332   7.547   7.700
21452WAT      O64597   1.417   2.462   2.347
21452WAT     H164598   1.366   2.378   2.331
21452WAT     H264599   1.369   2.518   2.415
21453WAT      O64600   7.709   0.147   7.840
21453WAT     H164601   7.640   0.196   7.892
21453WAT     H264602   7.680   0.138   7.745
21454WAT      O64603   7.320   0.361   1.707
21454WAT     H164604   7.415   0.343   1.734
21454WAT     H264605   7.280   0.428   1.770
21455WAT      O64606   0.097   2.513   7.626
21455WAT     H164607   0.015   2.537   7.677
21455WAT     H264608   0.130   2.592   7.574
21456WAT      O64609   6.567   8.202   8.149
21456WAT     H164610   6.651   8.156   8.179
21456WAT     H264611   6.535   8.160   8.064
21457WAT      O64612   0.740   0.321   4.801
21457WAT     H164613   0.823   0.281   4.762
21457WAT     H264614   0.763   0.404   4.852
21458WAT      O64615   8.515   3.934   4.565
21458WAT     H164616   8.513   3.850   4.619
21458WAT     H264617   8.571   3.920   4.483
21459WAT      O64618   3.983   8.444   7.098
21459WAT     H164619   3.946   8.531   7.066
21459WAT     H264620   4.006   8.386   7.020
21460WAT      O64621   6.580   0.153   4.867
21460WAT     H164622   6.613   0.244   4.840
21460WAT     H264623   6.614   0.132   4.959
21461WAT      O64624   2.205   0.195   5.775
21461WAT     H164625   2.195   0.253   5.856
21461WAT     H264626   2.271   0.236   5.712
21462WAT      O64627   0.405   1.999   3.483
21462WAT     H164628   0.314   2.012   3.444
21462WAT     H264629   0.474   2.002   3.411
21463WAT      O64630   1.726   0.749   4.804
21463WAT     H164631   1.721   0.767   4.902
21463WAT     H264632   1.727   0.650   4.789
21464WAT      O64633   3.292   9.165   3.842
21464WAT     H164634   3.366   9.097   3.838
21464WAT     H264635   3.255   9.169   3.935
21465WAT      O64636   8.609   5.891   9.540
21465WAT     H164637   8.512   5.873   9.557
21465WAT     H264638   8.660   5.805   9.539
21466WAT      O64639   0.246   4.990   4.290
21466WAT     H164640   0.209   5.083   4.300
21466WAT     H264641   0.308   4.988   4.212
21467WAT      O64642   8.735   8.780   4.439
21467WAT     H164643   8.711   8.712   4.509
21467WAT     H264644   8.671   8.857   4.444
21468WAT      O64645   8.494   7.420   7.941
21468WAT     H164646   8.468   7.399   8.035
21468WAT     H264647   8.411   7.433   7.886
21469WAT      O64648   4.776   5.719   4.667
21469WAT     H164649   4.860   5.768   4.692
21469WAT     H264650   4.705   5.785   4.644
21470WAT      O64651   7.539   3.137   9.335
21470WAT     H164652   7.549   3.049   9.289
21470WAT     H264653   7.512   3.207   9.269
21471WAT      O64654   3.229   4.011   6.588
21471WAT     H164655   3.165   3.943   6.626
21471WAT     H264656   3.277   4.056   6.663
21472WAT      O64657   4.724   0.416   2.502
21472WAT     H164658   4.632   0.408   2.465
21472WAT     H264659   4.757   0.510   2.490
21473WAT      O64660   4.589   0.338   8.727
21473WAT     H164661   4.497   0.300   8.736
21473WAT     H264662   4.656   0.264   8.723
21474WAT      O64663   1.096   2.583   9.856
21474WAT     H164664   1.155   2.548   9.783
21474WAT     H264665   1.042   2.660   9.821
21475WAT      O64666   0.409   0.212   1.271
21475WAT     H164667   0.487   0.245   1.324
21475WAT     H264668   0.416   0.112   1.262
21476WAT      O64669   8.504   1.758   9.145
21476WAT     H164670   8.437   1.770   9.073
21476WAT     H264671   8.556   1.673   9.129
21477WAT      O64672   6.233   2.448   7.533
21477WAT     H164673   6.147   2.473   7.577
21477WAT     H264674   6.292   2.402   7.599
21478WAT      O64675   0.389   7.132   8.130
21478WAT     H164676   0.353   7.168   8.215
21478WAT     H264677   0.320   7.074   8.086
21479WAT      O64678   8.974   6.071   5.908
21479WAT     H164679   8.903   6.120   5.959
21479WAT     H264680   9.004   6.127   5.832
21480WAT      O64681   2.074   4.278   9.215
21480WAT     H164682   2.018   4.296   9.134
21480WAT     H264683   2.017   4.282   9.297
21481WAT      O64684   9.137   6.458   4.562
21481WAT     H164685   9.128   6.393   4.637
21481WAT     H264686   9.234   6.471   4.540
21482WAT      O64687   0.339   8.147   3.092
21482WAT     H164688   0.387   8.066   3.058
21482WAT     H264689   0.363   8.161   3.188
21483WAT      O64690   1.402   1.993   7.674
21483WAT     H164691   1.486   1.944   7.697
21483WAT     H264692   1.421   2.061   7.604
21484WAT      O64693   6.607   3.064   0.025
21484WAT     H164694   6.554   2.980   0.035
21484WAT     H264695   6.619   3.107   0.114
21485WAT      O64696   2.681   0.323   6.773
21485WAT     H164697   2.695   0.377   6.855
21485WAT     H264698   2.746   0.247   6.771
21486WAT      O64699   5.757   3.724   7.200
21486WAT     H164700   5.681   3.784   7.175
21486WAT     H264701   5.842   3.759   7.162
21487WAT      O64702   0.587   8.459   7.571
21487WAT     H164703   0.562   8.364   7.553
21487WAT     H264704   0.513   8.505   7.621
21488WAT      O64705   7.165   7.785   5.894
21488WAT     H164706   7.185   7.704   5.949
21488WAT     H264707   7.089   7.765   5.832
21489WAT      O64708   3.182   1.844   2.342
21489WAT     H164709   3.235   1.813   2.421
21489WAT     H264710   3.245   1.871   2.269
21490WAT      O64711   2.683   5.995   2.219
21490WAT     H164712   2.669   6.082   2.170
21490WAT     H264713   2.664   6.008   2.316
21491WAT      O64714   2.671   7.403   8.433
21491WAT     H164715   2.629   7.401   8.342
21491WAT     H264716   2.757   7.352   8.431
21492WAT      O64717   7.383   4.743   0.244
21492WAT     H164718   7.356   4.821   0.301
21492WAT     H264719   7.372   4.658   0.295
21493WAT      O64720   8.044   0.861   8.410
21493WAT     H164721   8.110   0.786   8.416
21493WAT     H264722   8.093   0.948   8.410
21494WAT      O64723   5.910   3.259   2.834
21494WAT     H164724   5.987   3.301   2.786
21494WAT     H264725   5.886   3.315   2.913
21495WAT      O64726   2.771   4.660   8.146
21495WAT     H164727   2.844   4.702   8.201
21495WAT     H264728   2.738   4.578   8.192
21496WAT      O64729   7.950   0.069   3.950
21496WAT     H164730   7.865   0.053   4.000
21496WAT     H264731   7.973   0.166   3.955
21497WAT      O64732   0.639   4.774   2.069
21497WAT     H164733   0.712   4.710   2.095
21497WAT     H264734   0.589   4.803   2.151
21498WAT      O64735   3.875   4.646   8.576
21498WAT     H164736   3.846   4.741   8.566
21498WAT     H264737   3.872   4.601   8.487
21499WAT      O64738   0.544   9.288   8.092
21499WAT     H164739   0.466   9.350   8.093
21499WAT     H264740   0.524   9.207   8.148
21500WAT      O64741   9.012   3.665   2.481
21500WAT     H164742   9.075   3.683   2.557
21500WAT     H264743   9.015   3.742   2.417
21501WAT      O64744   2.809   9.219   5.895
21501WAT     H164745   2.842   9.209   5.801
21501WAT     H264746   2.757   9.138   5.921
21502WAT      O64747   7.822   7.992   5.027
21502WAT     H164748   7.841   7.923   4.957
21502WAT     H264749   7.810   7.946   5.115
21503WAT      O64750   5.182   6.910   1.552
21503WAT     H164751   5.252   6.969   1.594
21503WAT     H264752   5.195   6.908   1.453
21504WAT      O64753   4.275   6.975   6.529
21504WAT     H164754   4.352   6.948   6.587
21504WAT     H264755   4.284   6.933   6.439
21505WAT      O64756   5.063   6.668   2.209
21505WAT     H164757   5.114   6.584   2.228
21505WAT     H264758   5.092   6.739   2.274
21506WAT      O64759   2.449   2.933   6.809
21506WAT     H164760   2.518   3.002   6.784
21506WAT     H264761   2.461   2.907   6.905
21507WAT      O64762   6.302   2.550   3.081
21507WAT     H164763   6.219   2.503   3.051
21507WAT     H264764   6.381   2.511   3.034
21508WAT      O64765   3.628   8.054   9.646
21508WAT     H164766   3.690   8.133   9.653
21508WAT     H264767   3.603   8.024   9.738
21509WAT      O64768   3.999   5.623   7.700
21509WAT     H164769   3.972   5.700   7.642
21509WAT     H264770   4.087   5.643   7.744
21510WAT      O64771   9.719   3.579   8.996
21510WAT     H164772   9.808   3.625   8.991
21510WAT     H264773   9.649   3.637   8.954
21511WAT      O64774   6.436   5.423   8.831
21511WAT     H164775   6.406   5.478   8.753
21511WAT     H264776   6.367   5.353   8.850
21512WAT      O64777   7.599   6.521   0.618
21512WAT     H164778   7.672   6.588   0.627
21512WAT     H264779   7.634   6.439   0.571
21513WAT      O64780   0.545   3.514   5.139
21513WAT     H164781   0.468   3.567   5.175
21513WAT     H264782   0.629   3.542   5.186
21514WAT      O64783   0.082   2.719   9.726
21514WAT     H164784   0.106   2.816   9.733
21514WAT     H264785   0.076   2.693   9.630
21515WAT      O64786   5.189   6.554   4.299
21515WAT     H164787   5.249   6.587   4.226
21515WAT     H264788   5.195   6.615   4.378
21516WAT      O64789   6.895   6.461   4.223
21516WAT     H164790   6.822   6.399   4.196
21516WAT     H264791   6.893   6.475   4.323
21517WAT      O64792   4.962   8.432   8.178
21517WAT     H164793   4.872   8.473   8.193
21517WAT     H264794   5.033   8.491   8.216
21518WAT      O64795   1.458   3.198   6.159
21518WAT     H164796   1.546   3.246   6.150
21518WAT     H264797   1.422   3.213   6.251
21519WAT      O64798   5.497   3.472   4.650
21519WAT     H164799   5.586   3.439   4.681
21519WAT     H264800   5.503   3.501   4.555
21520WAT      O64801   0.390   9.077   0.653
21520WAT     H164802   0.330   8.999   0.635
21520WAT     H264803   0.352   9.160   0.612
21521WAT      O64804   0.727   5.092   5.887
21521WAT     H164805   0.790   5.133   5.821
21521WAT     H264806   0.635   5.128   5.871
21522WAT      O64807   0.433   6.240   6.599
21522WAT     H164808   0.404   6.246   6.694
21522WAT     H264809   0.434   6.331   6.558
21523WAT      O64810   1.151   3.954   4.424
21523WAT     H164811   1.059   3.916   4.418
21523WAT     H264812   1.158   4.034   4.364
21524WAT      O64813   5.726   7.653   8.164
21524WAT     H164814   5.817   7.620   8.142
21524WAT     H264815   5.694   7.713   8.091
21525WAT      O64816   3.074   0.654   8.474
21525WAT     H164817   3.034   0.566   8.445
21525WAT     H264818   3.173   0.645   8.480
21526WAT      O64819   9.500   0.876   1.868
21526WAT     H164820   9.422   0.815   1.863
21526WAT     H264821   9.478   0.963   1.823
21527WAT      O64822   1.386   3.227   4.818
21527WAT     H164823   1.430   3.141   4.794
21527WAT     H264824   1.322   3.211   4.893
21528WAT      O64825   6.364   8.330   6.605
21528WAT     H164826   6.310   8.373   6.532
21528WAT     H264827   6.376   8.394   6.680
21529WAT      O64828   6.557   6.056   7.265
21529WAT     H164829   6.580   6.136   7.209
21529WAT     H264830   6.475   6.075   7.318
21530WAT      O64831   3.634   7.127   2.830
21530WAT     H164832   3.684   7.081   2.758
21530WAT     H264833   3.581   7.060   2.883
21531WAT      O64834   5.658   8.909   5.735
21531WAT     H164835   5.721   8.914   5.658
21531WAT     H264836   5.570   8.874   5.704
21532WAT      O64837   2.781   8.161   6.705
21532WAT     H164838   2.724   8.088   6.667
21532WAT     H264839   2.877   8.145   6.680
21533WAT      O64840   2.331   6.481   2.199
21533WAT     H164841   2.285   6.453   2.115
21533WAT     H264842   2.303   6.573   2.224
21534WAT      O64843   7.003   1.320   4.245
21534WAT     H164844   7.010   1.256   4.169
21534WAT     H264845   6.914   1.311   4.289
21535WAT      O64846   7.586   8.914   1.243
21535WAT     H164847   7.554   9.001   1.282
21535WAT     H264848   7.594   8.846   1.316
21536WAT      O64849   1.225   6.155   9.880
21536WAT     H164850   1.230   6.079   9.816
21536WAT     H264851   1.251   6.124   9.971
21537WAT      O64852   2.662   3.914   1.246
21537WAT     H164853   2.659   4.014   1.251
21537WAT     H264854   2.579   3.880   1.203
21538WAT      O64855   6.838   7.281   3.114
21538WAT     H164856   6.820   7.211   3.183
21538WAT     H264857   6.913   7.250   3.055
21539WAT      O64858   1.555   3.813   3.595
21539WAT     H164859   1.505   3.816   3.508
21539WAT     H264860   1.609   3.729   3.599
21540WAT      O64861   2.483   3.631   9.326
21540WAT     H164862   2.442   3.707   9.275
21540WAT     H264863   2.468   3.546   9.277
21541WAT      O64864   1.469   1.011   9.435
21541WAT     H164865   1.480   1.110   9.424
21541WAT     H264866   1.396   0.992   9.500
21542WAT      O64867   4.215   4.713   0.207
21542WAT     H164868   4.298   4.696   0.154
21542WAT     H264869   4.136   4.720   0.146
21543WAT      O64870   1.825   0.082   9.846
21543WAT     H164871   1.900   0.145   9.867
21543WAT     H264872   1.754   0.131   9.795
21544WAT      O64873   9.753   3.579   7.083
21544WAT     H164874   9.816   3.522   7.136
21544WAT     H264875   9.724   3.529   7.002
21545WAT      O64876   4.835   1.887   0.951
21545WAT     H164877   4.788   1.866   0.865
21545WAT     H264878   4.857   1.984   0.955
21546WAT      O64879   1.349   0.583   8.086
21546WAT     H164880   1.264   0.600   8.038
21546WAT     H264881   1.363   0.484   8.095
21547WAT      O64882   2.658   0.213   9.227
21547WAT     H164883   2.616   0.123   9.237
21547WAT     H264884   2.734   0.207   9.162
21548WAT      O64885   2.446   0.530   3.970
21548WAT     H164886   2.414   0.559   4.060
21548WAT     H264887   2.370   0.492   3.918
21549WAT      O64888   1.330   6.251   9.135
21549WAT     H164889   1.414   6.296   9.103
21549WAT     H264890   1.257   6.319   9.143
21550WAT      O64891   3.994   3.151   1.461
21550WAT     H164892   3.980   3.162   1.363
21550WAT     H264893   4.044   3.067   1.479
21551WAT      O64894   9.057   1.111   4.643
21551WAT     H164895   9.069   1.054   4.725
21551WAT     H264896   9.142   1.158   4.623
21552WAT      O64897   2.991   2.011   2.461
21552WAT     H164898   3.051   1.954   2.405
21552WAT     H264899   2.929   1.953   2.514
21553WAT      O64900   6.228   1.463   2.144
21553WAT     H164901   6.134   1.495   2.138
21553WAT     H264902   6.282   1.528   2.198
21554WAT      O64903   6.290   3.169   0.140
21554WAT     H164904   6.223   3.209   0.078
21554WAT     H264905   6.251   3.089   0.185
21555WAT      O64906   5.682   8.157   0.550
21555WAT     H164907   5.686   8.256   0.563
21555WAT     H264908   5.587   8.126   0.561
21556WAT      O64909   8.325   9.813   7.582
21556WAT     H164910   8.333   9.716   7.560
21556WAT     H264911   8.379   9.866   7.517
21557WAT      O64912   9.746   9.568   8.512
21557WAT     H164913   9.817   9.567   8.582
21557WAT     H264914   9.667   9.620   8.544
21558WAT      O64915   2.910   7.209   8.946
21558WAT     H164916   2.823   7.163   8.931
21558WAT     H264917   2.936   7.259   8.864
21559WAT      O64918   9.661   8.959   5.666
21559WAT     H164919   9.672   8.874   5.717
21559WAT     H264920   9.749   8.987   5.628
21560WAT      O64921   3.110   7.482   2.523
21560WAT     H164922   3.128   7.402   2.465
21560WAT     H264923   3.027   7.467   2.576
21561WAT      O64924   8.866   5.323   3.010
21561WAT     H164925   8.784   5.375   3.034
21561WAT     H264926   8.913   5.367   2.934
21562WAT      O64927   3.612   8.725   4.243
21562WAT     H164928   3.583   8.815   4.274
21562WAT     H264929   3.543   8.657   4.266
21563WAT      O64930   7.029   2.304   2.040
21563WAT     H164931   6.992   2.392   2.012
21563WAT     H264932   7.129   2.311   2.045
21564WAT      O64933   9.583   3.490   0.167
21564WAT     H164934   9.621   3.398   0.176
21564WAT     H264935   9.657   3.557   0.158
21565WAT      O64936   1.982   9.009   4.732
21565WAT     H164937   1.940   8.988   4.644
21565WAT     H264938   2.065   9.062   4.718
21566WAT      O64939   0.691   8.289   9.249
21566WAT     H164940   0.739   8.318   9.166
21566WAT     H264941   0.753   8.235   9.306
21567WAT      O64942   1.113   3.282   8.886
21567WAT     H164943   1.168   3.229   8.950
21567WAT     H264944   1.068   3.357   8.935
21568WAT      O64945   4.873   7.550   0.462
21568WAT     H164946   4.876   7.587   0.369
21568WAT     H264947   4.887   7.624   0.528
21569WAT      O64948   8.208   0.446   0.375
21569WAT     H164949   8.219   0.501   0.291
21569WAT     H264950   8.292   0.395   0.392
21570WAT      O64951   7.158   8.290   3.547
21570WAT     H164952   7.208   8.225   3.605
21570WAT     H264953   7.200   8.380   3.554
21571WAT      O64954   1.694   7.687   7.409
21571WAT     H164955   1.737   7.601   7.380
21571WAT     H264956   1.609   7.700   7.358
21572WAT      O64957   4.256   0.052   5.511
21572WAT     H164958   4.325   0.027   5.579
21572WAT     H264959   4.249  -0.020   5.443
21573WAT      O64960   4.984   1.628   0.304
21573WAT     H164961   5.011   1.720   0.279
21573WAT     H264962   4.899   1.604   0.256
21574WAT      O64963   8.981   5.810   0.746
21574WAT     H164964   8.955   5.888   0.689
21574WAT     H264965   9.075   5.821   0.776
21575WAT      O64966   3.238   9.607   4.972
21575WAT     H164967   3.227   9.701   4.940
21575WAT     H264968   3.317   9.565   4.927
21576WAT      O64969   2.001   2.438   7.255
21576WAT     H164970   1.936   2.413   7.327
21576WAT     H264971   2.001   2.367   7.184
21577WAT      O64972   9.047   5.948   1.007
21577WAT     H164973   8.975   5.890   1.045
21577WAT     H264974   9.123   5.891   0.975
21578WAT      O64975   6.503   2.359   5.127
21578WAT     H164976   6.582   2.309   5.092
21578WAT     H264977   6.521   2.457   5.122
21579WAT      O64978   1.212   9.461   9.632
21579WAT     H164979   1.220   9.386   9.566
21579WAT     H264980   1.129   9.449   9.687
21580WAT      O64981   4.621   6.837   1.184
21580WAT     H164982   4.625   6.936   1.179
21580WAT     H264983   4.701   6.803   1.233
21581WAT      O64984   6.069   9.501   0.567
21581WAT     H164985   6.074   9.559   0.486
21581WAT     H264986   6.142   9.526   0.631
21582WAT      O64987   5.341   7.123   4.903
21582WAT     H164988   5.298   7.076   4.981
21582WAT     H264989   5.424   7.169   4.935
21583WAT      O64990   4.781   2.247   8.529
21583WAT     H164991   4.722   2.262   8.608
21583WAT     H264992   4.856   2.186   8.555
21584WAT      O64993   2.235   5.924   7.243
21584WAT     H164994   2.151   5.968   7.209
21584WAT     H264995   2.302   5.994   7.267
21585WAT      O64996   7.911   2.604   7.317
21585WAT     H164997   7.889   2.533   7.249
21585WAT     H264998   7.999   2.583   7.360
21586WAT      O64999   9.380   0.663   5.028
21586WAT     H165000   9.283   0.666   5.006
21586WAT     H265001   9.396   0.592   5.097
21587WAT      O65002   5.593   5.840   1.314
21587WAT     H165003   5.667   5.799   1.261
21587WAT     H265004   5.529   5.768   1.341
21588WAT      O65005   7.756   8.868   4.272
21588WAT     H165006   7.829   8.907   4.217
21588WAT     H265007   7.669   8.879   4.225
21589WAT      O65008   9.655   4.527   6.640
21589WAT     H165009   9.609   4.584   6.571
21589WAT     H265010   9.752   4.550   6.642
21590WAT      O65011   2.697   1.444   4.827
21590WAT     H165012   2.690   1.482   4.735
21590WAT     H265013   2.718   1.518   4.892
21591WAT      O65014   8.449   3.603   2.636
21591WAT     H165015   8.488   3.522   2.592
21591WAT     H265016   8.362   3.626   2.593
21592WAT      O65017   9.413   3.142   4.762
21592WAT     H165018   9.385   3.223   4.813
21592WAT     H265019   9.493   3.163   4.706
21593WAT      O65020   5.499   5.831   6.934
21593WAT     H165021   5.462   5.858   6.844
21593WAT     H265022   5.423   5.815   6.997
21594WAT      O65023   2.919   1.883   8.817
21594WAT     H165024   2.890   1.952   8.883
21594WAT     H265025   2.838   1.837   8.779
21595WAT      O65026   7.334   5.802   9.821
21595WAT     H165027   7.417   5.818   9.874
21595WAT     H265028   7.324   5.873   9.752
21596WAT      O65029   2.249   8.187   7.949
21596WAT     H165030   2.155   8.192   7.914
21596WAT     H265031   2.286   8.279   7.959
21597WAT      O65032   6.738   2.153   8.653
21597WAT     H165033   6.668   2.206   8.605
21597WAT     H265034   6.797   2.106   8.587
21598WAT      O65035   1.621   9.429   0.802
21598WAT     H165036   1.631   9.431   0.702
21598WAT     H265037   1.670   9.351   0.839
21599WAT      O65038   1.984   9.105   3.195
21599WAT     H165039   1.920   9.033   3.168
21599WAT     H265040   2.070   9.094   3.145
21600WAT      O65041   8.209   7.090   8.769
21600WAT     H165042   8.238   7.117   8.861
21600WAT     H265043   8.280   7.035   8.726
21601WAT      O65044   8.490   9.169   0.460
21601WAT     H165045   8.399   9.158   0.421
21601WAT     H265046   8.521   9.263   0.447
21602WAT      O65047   5.818   6.017   0.460
21602WAT     H165048   5.839   6.001   0.556
21602WAT     H265049   5.734   6.072   0.453
21603WAT      O65050   4.425   6.224   7.544
21603WAT     H165051   4.504   6.167   7.564
21603WAT     H265052   4.441   6.274   7.459
21604WAT      O65053   5.671   0.793   6.075
21604WAT     H165054   5.727   0.819   6.154
21604WAT     H265055   5.731   0.762   6.001
21605WAT      O65056   8.699   5.621   4.804
21605WAT     H165057   8.631   5.663   4.744
21605WAT     H265058   8.781   5.679   4.807
21606WAT      O65059   6.992   6.062   4.170
21606WAT     H165060   6.920   6.112   4.122
21606WAT     H265061   6.991   6.088   4.267
21607WAT      O65062   2.762   5.807   7.094
21607WAT     H165063   2.706   5.749   7.035
21607WAT     H265064   2.753   5.777   7.189
21608WAT      O65065   4.661   0.224   6.598
21608WAT     H165066   4.563   0.242   6.598
21608WAT     H265067   4.704   0.275   6.672
21609WAT      O65068   5.655   3.435   4.384
21609WAT     H165069   5.742   3.392   4.361
21609WAT     H265070   5.671   3.528   4.418
21610WAT      O65071   2.906   8.450   9.854
21610WAT     H165072   2.946   8.477   9.942
21610WAT     H265073   2.819   8.498   9.842
21611WAT      O65074   2.153   3.937   4.814
21611WAT     H165075   2.078   3.936   4.748
21611WAT     H265076   2.213   3.859   4.797
21612WAT      O65077   6.146   3.066   2.138
21612WAT     H165078   6.209   3.123   2.191
21612WAT     H265079   6.145   3.098   2.043
21613WAT      O65080   4.805   7.526   8.463
21613WAT     H165081   4.771   7.611   8.504
21613WAT     H265082   4.736   7.491   8.399
21614WAT      O65083   8.898   0.308   9.732
21614WAT     H165084   8.798   0.304   9.730
21614WAT     H265085   8.935   0.223   9.694
21615WAT      O65086   7.586   2.280   5.040
21615WAT     H165087   7.545   2.244   4.957
21615WAT     H265088   7.523   2.344   5.084
21616WAT      O65089   5.109   5.428   6.499
21616WAT     H165090   5.104   5.522   6.534
21616WAT     H265091   5.095   5.363   6.574
21617WAT      O65092   1.504   3.374   1.601
21617WAT     H165093   1.517   3.415   1.511
21617WAT     H265094   1.537   3.437   1.672
21618WAT      O65095   2.824   2.254   1.773
21618WAT     H165096   2.830   2.331   1.836
21618WAT     H265097   2.738   2.205   1.789
21619WAT      O65098   1.445   2.932   0.114
21619WAT     H165099   1.482   2.839   0.114
21619WAT     H265100   1.441   2.967   0.020
21620WAT      O65101   1.442   7.743   7.279
21620WAT     H165102   1.410   7.648   7.288
21620WAT     H265103   1.388   7.802   7.338
21621WAT      O65104   0.485   8.313   4.826
21621WAT     H165105   0.458   8.283   4.734
21621WAT     H265106   0.531   8.237   4.873
21622WAT      O65107   2.797   3.890   4.490
21622WAT     H165108   2.863   3.818   4.469
21622WAT     H265109   2.705   3.852   4.488
21623WAT      O65110   5.498   9.486   2.052
21623WAT     H165111   5.537   9.578   2.061
21623WAT     H265112   5.533   9.427   2.125
21624WAT      O65113   2.626   2.338   8.070
21624WAT     H165114   2.677   2.304   7.990
21624WAT     H265115   2.598   2.261   8.127
21625WAT      O65116   9.494   4.986   2.269
21625WAT     H165117   9.504   4.939   2.357
21625WAT     H265118   9.561   4.949   2.205
21626WAT      O65119   9.115   3.492   0.952
21626WAT     H165120   9.184   3.550   0.909
21626WAT     H265121   9.116   3.507   1.051
21627WAT      O65122   5.840   8.822   0.116
21627WAT     H165123   5.756   8.867   0.144
21627WAT     H265124   5.825   8.775   0.028
21628WAT      O65125   4.171   2.394   9.277
21628WAT     H165126   4.186   2.369   9.181
21628WAT     H265127   4.114   2.323   9.320
21629WAT      O65128   4.339   8.599   0.381
21629WAT     H165129   4.253   8.568   0.420
21629WAT     H265130   4.371   8.531   0.314
21630WAT      O65131   5.946   9.063   9.611
21630WAT     H165132   5.936   9.159   9.586
21630WAT     H265133   5.855   9.020   9.616
21631WAT      O65134   4.776   5.730   3.655
21631WAT     H165135   4.763   5.631   3.646
21631WAT     H265136   4.788   5.770   3.564
21632WAT      O65137   4.502   3.964   2.975
21632WAT     H165138   4.525   4.022   2.896
21632WAT     H265139   4.581   3.959   3.036
21633WAT      O65140   1.995   7.829   5.763
21633WAT     H165141   1.946   7.801   5.845
21633WAT     H265142   2.066   7.762   5.743
21634WAT      O65143   8.867   8.529   9.595
21634WAT     H165144   8.883   8.521   9.496
21634WAT     H265145   8.928   8.466   9.643
21635WAT      O65146   5.343   0.974   0.856
21635WAT     H165147   5.294   0.895   0.891
21635WAT     H265148   5.305   1.058   0.896
21636WAT      O65149   0.192   7.963   2.685
21636WAT     H165150   0.120   8.025   2.715
21636WAT     H265151   0.151   7.885   2.638
21637WAT      O65152   0.637   4.636   8.624
21637WAT     H165153   0.612   4.551   8.577
21637WAT     H265154   0.676   4.700   8.559
21638WAT      O65155   4.725   7.603   6.375
21638WAT     H165156   4.699   7.679   6.315
21638WAT     H265157   4.784   7.540   6.325
21639WAT      O65158   7.638   8.813   6.570
21639WAT     H165159   7.576   8.847   6.500
21639WAT     H265160   7.610   8.847   6.659
21640WAT      O65161   1.928   2.951   1.014
21640WAT     H165162   1.835   2.938   1.049
21640WAT     H265163   1.929   2.936   0.915
21641WAT      O65164   0.744   9.762   1.285
21641WAT     H165165   0.774   9.689   1.345
21641WAT     H265166   0.698   9.833   1.338
21642WAT      O65167   7.985   0.323   1.177
21642WAT     H165168   8.020   0.231   1.197
21642WAT     H265169   7.890   0.329   1.206
21643WAT      O65170   6.813   0.339   1.584
21643WAT     H165171   6.891   0.300   1.633
21643WAT     H265172   6.767   0.407   1.642
21644WAT      O65173   5.593   8.777   5.986
21644WAT     H165174   5.617   8.819   5.899
21644WAT     H265175   5.670   8.722   6.019
21645WAT      O65176   3.447   2.478   7.283
21645WAT     H165177   3.380   2.544   7.313
21645WAT     H265178   3.401   2.394   7.253
21646WAT      O65179   4.158   6.378   8.410
21646WAT     H165180   4.156   6.412   8.504
21646WAT     H265181   4.241   6.411   8.364
21647WAT      O65182   2.303   3.142   0.539
21647WAT     H165183   2.249   3.064   0.507
21647WAT     H265184   2.376   3.161   0.474
21648WAT      O65185   9.279   5.578   0.094
21648WAT     H165186   9.263   5.646   0.022
21648WAT     H265187   9.370   5.537   0.081
21649WAT      O65188   3.160   9.185   5.616
21649WAT     H165189   3.173   9.283   5.625
21649WAT     H265190   3.190   9.140   5.701
21650WAT      O65191   9.525   9.456   0.382
21650WAT     H165192   9.574   9.500   0.458
21650WAT     H265193   9.440   9.417   0.415
21651WAT      O65194   0.102   6.420   8.996
21651WAT     H165195   0.066   6.505   8.957
21651WAT     H265196   0.139   6.438   9.087
21652WAT      O65197   5.542   1.842   8.151
21652WAT     H165198   5.588   1.795   8.225
21652WAT     H265199   5.594   1.829   8.066
21653WAT      O65200   5.204   1.601   3.086
21653WAT     H165201   5.245   1.639   3.003
21653WAT     H265202   5.276   1.568   3.147
21654WAT      O65203   5.148   4.227   1.045
21654WAT     H165204   5.076   4.270   0.990
21654WAT     H265205   5.237   4.244   1.003
21655WAT      O65206   5.738   2.773   4.336
21655WAT     H165207   5.639   2.778   4.325
21655WAT     H265208   5.761   2.784   4.433
21656WAT      O65209   8.201   4.451   6.122
21656WAT     H165210   8.237   4.535   6.082
21656WAT     H265211   8.209   4.377   6.055
21657WAT      O65212   9.009   2.639   3.006
21657WAT     H165213   9.048   2.569   2.946
21657WAT     H265214   9.001   2.603   3.099
21658WAT      O65215   5.989   6.120   4.598
21658WAT     H165216   6.046   6.201   4.581
21658WAT     H265217   6.048   6.043   4.623
21659WAT      O65218   4.991   5.892   9.738
21659WAT     H165219   5.059   5.916   9.669
21659WAT     H265220   4.905   5.869   9.694
21660WAT      O65221   2.340   2.674   2.012
21660WAT     H165222   2.435   2.646   2.026
21660WAT     H265223   2.297   2.693   2.100
21661WAT      O65224   0.793   3.997   9.733
21661WAT     H165225   0.872   4.022   9.677
21661WAT     H265226   0.725   3.951   9.676
21662WAT      O65227   9.680   0.906   6.836
21662WAT     H165228   9.734   0.958   6.903
21662WAT     H265229   9.735   0.892   6.754
21663WAT      O65230   2.825   6.773   0.701
21663WAT     H165231   2.765   6.853   0.694
21663WAT     H265232   2.774   6.697   0.741
21664WAT      O65233   3.739   2.753   3.533
21664WAT     H165234   3.740   2.797   3.443
21664WAT     H265235   3.651   2.710   3.549
21665WAT      O65236   3.721   3.302   4.591
21665WAT     H165237   3.806   3.260   4.623
21665WAT     H265238   3.739   3.354   4.507
21666WAT      O65239   0.794   7.533   9.553
21666WAT     H165240   0.830   7.603   9.491
21666WAT     H265241   0.711   7.566   9.597
21667WAT      O65242   2.117   7.821   1.463
21667WAT     H165243   2.024   7.853   1.477
21667WAT     H265244   2.180   7.899   1.471
21668WAT      O65245   6.631   6.025   8.069
21668WAT     H165246   6.569   6.099   8.096
21668WAT     H265247   6.618   5.946   8.129
21669WAT      O65248   6.289   8.727   9.571
21669WAT     H165249   6.377   8.694   9.535
21669WAT     H265250   6.287   8.712   9.670
21670WAT      O65251   9.635   3.249   8.458
21670WAT     H165252   9.713   3.305   8.428
21670WAT     H265253   9.617   3.267   8.555
21671WAT      O65254   1.082   5.521   0.816
21671WAT     H165255   0.991   5.557   0.795
21671WAT     H265256   1.085   5.423   0.797
21672WAT      O65257   6.290   4.591   4.954
21672WAT     H165258   6.285   4.642   5.040
21672WAT     H265259   6.230   4.634   4.887
21673WAT      O65260   3.431   9.559   6.618
21673WAT     H165261   3.490   9.487   6.655
21673WAT     H265262   3.369   9.520   6.550
21674WAT      O65263   4.786   9.056   7.597
21674WAT     H165264   4.774   8.960   7.621
21674WAT     H265265   4.811   9.109   7.678
21675WAT      O65266   2.937   1.834   4.749
21675WAT     H165267   2.877   1.762   4.785
21675WAT     H265268   2.886   1.920   4.742
21676WAT      O65269   2.523   3.293   7.489
21676WAT     H165270   2.598   3.261   7.430
21676WAT     H265271   2.544   3.271   7.584
21677WAT      O65272   8.177   6.204   8.566
21677WAT     H165273   8.133   6.290   8.590
21677WAT     H265274   8.168   6.188   8.467
21678WAT      O65275   4.431   0.040   1.384
21678WAT     H165276   4.474  -0.023   1.321
21678WAT     H265277   4.500   0.079   1.446
21679WAT      O65278   0.956   4.396   7.742
21679WAT     H165279   0.866   4.364   7.714
21679WAT     H265280   1.014   4.317   7.763
21680WAT      O65281   8.498   9.657   8.193
21680WAT     H165282   8.587   9.614   8.211
21680WAT     H265283   8.440   9.592   8.145
21681WAT      O65284   1.405   4.759   6.767
21681WAT     H165285   1.348   4.768   6.849
21681WAT     H265286   1.454   4.672   6.770
21682WAT      O65287   8.247   8.123   0.635
21682WAT     H165288   8.175   8.116   0.704
21682WAT     H265289   8.264   8.033   0.595
21683WAT      O65290   0.670   6.790   8.559
21683WAT     H165291   0.766   6.772   8.536
21683WAT     H265292   0.663   6.878   8.605
21684WAT      O65293   2.626   8.825   5.095
21684WAT     H165294   2.576   8.762   5.154
21684WAT     H265295   2.697   8.775   5.046
21685WAT      O65296   1.399   2.453   3.853
21685WAT     H165297   1.339   2.506   3.794
21685WAT     H265298   1.383   2.356   3.838
21686WAT      O65299   4.373   1.775   0.262
21686WAT     H165300   4.331   1.864   0.280
21686WAT     H265301   4.417   1.741   0.345
21687WAT      O65302   7.440   0.660   6.180
21687WAT     H165303   7.432   0.568   6.218
21687WAT     H265304   7.359   0.713   6.204
21688WAT      O65305   1.555   6.849   4.353
21688WAT     H165306   1.512   6.906   4.423
21688WAT     H265307   1.604   6.907   4.288
21689WAT      O65308   3.321   5.200   0.721
21689WAT     H165309   3.330   5.142   0.801
21689WAT     H265310   3.317   5.144   0.639
21690WAT      O65311   5.182   6.428   1.877
21690WAT     H165312   5.116   6.498   1.902
21690WAT     H265313   5.220   6.448   1.787
21691WAT      O65314   9.710   5.615   8.848
21691WAT     H165315   9.802   5.627   8.811
21691WAT     H265316   9.647   5.678   8.803
21692WAT      O65317   3.859   4.280   6.222
21692WAT     H165318   3.884   4.184   6.236
21692WAT     H265319   3.862   4.301   6.124
21693WAT      O65320   0.256   3.304   0.016
21693WAT     H165321   0.242   3.205   0.015
21693WAT     H265322   0.196   3.345   0.085
21694WAT      O65323   8.339   2.738   6.246
21694WAT     H165324   8.313   2.641   6.245
21694WAT     H265325   8.257   2.794   6.260
21695WAT      O65326   4.098   8.144   6.428
21695WAT     H165327   4.127   8.239   6.410
21695WAT     H265328   4.116   8.122   6.524
21696WAT      O65329   7.568   9.083   2.944
21696WAT     H165330   7.495   9.121   2.886
21696WAT     H265331   7.628   9.157   2.974
21697WAT      O65332   8.190   0.623   8.475
21697WAT     H165333   8.181   0.581   8.565
21697WAT     H265334   8.264   0.579   8.425
21698WAT      O65335   4.694   8.081   9.097
21698WAT     H165336   4.738   8.168   9.077
21698WAT     H265337   4.700   8.022   9.016
21699WAT      O65338   5.721   1.416   4.668
21699WAT     H165339   5.735   1.413   4.767
21699WAT     H265340   5.780   1.347   4.625
21700WAT      O65341   6.070   8.787   3.174
21700WAT     H165342   6.043   8.797   3.270
21700WAT     H265343   5.991   8.801   3.116
21701WAT      O65344   2.379   3.960   5.146
21701WAT     H165345   2.282   3.940   5.137
21701WAT     H265346   2.433   3.883   5.112
21702WAT      O65347   5.740   0.311   0.705
21702WAT     H165348   5.829   0.334   0.745
21702WAT     H265349   5.685   0.263   0.773
21703WAT      O65350   5.448   0.737   4.185
21703WAT     H165351   5.411   0.775   4.101
21703WAT     H265352   5.514   0.801   4.224
21704WAT      O65353   7.899   0.892   1.031
21704WAT     H165354   7.930   0.974   0.982
21704WAT     H265355   7.800   0.884   1.023
21705WAT      O65356   6.349   6.233   4.195
21705WAT     H165357   6.389   6.245   4.104
21705WAT     H265358   6.374   6.311   4.252
21706WAT      O65359   6.663   6.761   5.902
21706WAT     H165360   6.697   6.806   5.984
21706WAT     H265361   6.566   6.782   5.889
21707WAT      O65362   3.978   4.182   4.766
21707WAT     H165363   3.901   4.245   4.758
21707WAT     H265364   3.962   4.101   4.709
21708WAT      O65365   9.311   3.383   3.186
21708WAT     H165366   9.389   3.344   3.137
21708WAT     H265367   9.275   3.315   3.249
21709WAT      O65368   2.965   2.524   7.747
21709WAT     H165369   2.896   2.596   7.734
21709WAT     H265370   2.920   2.436   7.758
21710WAT      O65371   1.143   9.044   1.375
21710WAT     H165372   1.169   9.067   1.281
21710WAT     H265373   1.220   8.998   1.421
21711WAT      O65374   7.237   9.423   4.231
21711WAT     H165375   7.220   9.324   4.235
21711WAT     H265376   7.315   9.445   4.290
21712WAT      O65377   4.301   3.109   0.854
21712WAT     H165378   4.296   3.108   0.954
21712WAT     H265379   4.225   3.163   0.817
21713WAT      O65380   7.705   4.567   6.879
21713WAT     H165381   7.712   4.666   6.866
21713WAT     H265382   7.701   4.522   6.789
21714WAT      O65383   3.094   6.865   9.683
21714WAT     H165384   3.139   6.776   9.682
21714WAT     H265385   3.066   6.889   9.590
21715WAT      O65386   9.853   7.488   5.499
21715WAT     H165387   9.761   7.453   5.518
21715WAT     H265388   9.868   7.572   5.550
21716WAT      O65389   2.410   6.056   1.643
21716WAT     H165390   2.439   5.982   1.703
21716WAT     H265391   2.381   6.134   1.699
21717WAT      O65392   3.708   4.043   3.226
21717WAT     H165393   3.710   3.944   3.237
21717WAT     H265394   3.699   4.087   3.315
21718WAT      O65395   6.531   0.331   6.669
21718WAT     H165396   6.464   0.281   6.725
21718WAT     H265397   6.489   0.414   6.633
21719WAT      O65398   6.680   4.497   0.227
21719WAT     H165399   6.707   4.570   0.290
21719WAT     H265400   6.608   4.442   0.268
21720WAT      O65401   4.051   6.189   1.633
21720WAT     H165402   3.978   6.225   1.575
21720WAT     H265403   4.080   6.100   1.599
21721WAT      O65404   7.040   5.935   7.466
21721WAT     H165405   7.013   6.004   7.398
21721WAT     H265406   7.073   5.981   7.548
21722WAT      O65407   8.760   5.428   2.722
21722WAT     H165408   8.840   5.465   2.675
21722WAT     H265409   8.788   5.358   2.786
21723WAT      O65410   5.005   0.222   0.763
21723WAT     H165411   4.999   0.122   0.761
21723WAT     H265412   5.029   0.256   0.672
21724WAT      O65413   2.184   7.623   0.102
21724WAT     H165414   2.274   7.585   0.080
21724WAT     H265415   2.143   7.661   0.019
21725WAT      O65416   6.797   6.822   1.648
21725WAT     H165417   6.881   6.846   1.599
21725WAT     H265418   6.777   6.725   1.633
21726WAT      O65419   5.936   8.318   7.981
21726WAT     H165420   5.861   8.344   8.041
21726WAT     H265421   5.973   8.230   8.010
21727WAT      O65422   3.380   2.164   5.091
21727WAT     H165423   3.286   2.177   5.061
21727WAT     H265424   3.409   2.070   5.074
21728WAT      O65425   1.005   1.282   0.192
21728WAT     H165426   1.072   1.261   0.121
21728WAT     H265427   0.922   1.318   0.149
21729WAT      O65428   1.363   2.524   5.367
21729WAT     H165429   1.369   2.468   5.285
21729WAT     H265430   1.272   2.514   5.408
21730WAT      O65431   0.980   9.407   9.783
21730WAT     H165432   0.887   9.380   9.755
21730WAT     H265433   0.974   9.472   9.859
21731WAT      O65434   8.357   0.039   3.037
21731WAT     H165435   8.457   0.043   3.041
21731WAT     H265436   8.326   0.086   2.954
21732WAT      O65437   5.415   4.801   7.430
21732WAT     H165438   5.353   4.724   7.445
21732WAT     H265439   5.380   4.881   7.479
21733WAT      O65440   5.905   9.269   7.236
21733WAT     H165441   5.994   9.314   7.238
21733WAT     H265442   5.835   9.336   7.210
21734WAT      O65443   4.384   1.658   1.045
21734WAT     H165444   4.333   1.731   1.091
21734WAT     H265445   4.349   1.569   1.075
21735WAT      O65446   6.921   5.878   5.293
21735WAT     H165447   6.835   5.893   5.246
21735WAT     H265448   6.932   5.947   5.365
21736WAT      O65449   7.119   8.509   1.506
21736WAT     H165450   7.061   8.457   1.569
21736WAT     H265451   7.061   8.551   1.436
21737WAT      O65452   1.763   3.615   9.610
21737WAT     H165453   1.772   3.517   9.630
21737WAT     H265454   1.853   3.658   9.613
21738WAT      O65455   0.888   7.526   4.396
21738WAT     H165456   0.817   7.457   4.404
21738WAT     H265457   0.879   7.592   4.471
21739WAT      O65458   5.752   7.048   6.286
21739WAT     H165459   5.790   7.128   6.240
21739WAT     H265460   5.823   6.978   6.294
21740WAT      O65461   4.969   8.222   3.452
21740WAT     H165462   5.061   8.192   3.429
21740WAT     H265463   4.970   8.321   3.469
21741WAT      O65464   8.681   0.422   5.478
21741WAT     H165465   8.738   0.426   5.397
21741WAT     H265466   8.716   0.486   5.546
21742WAT      O65467   0.018   1.662   1.799
21742WAT     H165468  -0.049   1.656   1.873
21742WAT     H265469   0.007   1.584   1.738
21743WAT      O65470   5.486   3.915   8.302
21743WAT     H165471   5.565   3.854   8.314
21743WAT     H265472   5.479   3.975   8.382
21744WAT      O65473   0.161   5.701   5.327
21744WAT     H165474   0.213   5.636   5.272
21744WAT     H265475   0.203   5.710   5.417
21745WAT      O65476   4.170   2.137   2.071
21745WAT     H165477   4.149   2.201   1.998
21745WAT     H265478   4.131   2.170   2.157
21746WAT      O65479   0.622   8.309   3.157
21746WAT     H165480   0.616   8.274   3.064
21746WAT     H265481   0.586   8.402   3.161
21747WAT      O65482   1.242   9.509   2.697
21747WAT     H165483   1.319   9.543   2.643
21747WAT     H265484   1.234   9.410   2.685
21748WAT      O65485   1.995   3.547   7.417
21748WAT     H165486   2.070   3.600   7.456
21748WAT     H265487   2.012   3.450   7.432
21749WAT      O65488   3.943   4.948   2.534
21749WAT     H165489   4.012   4.972   2.466
21749WAT     H265490   3.982   4.958   2.626
21750WAT      O65491   5.648   7.906   7.230
21750WAT     H165492   5.639   7.835   7.161
21750WAT     H265493   5.564   7.960   7.234
21751WAT      O65494   6.543   3.865   1.947
21751WAT     H165495   6.564   3.896   1.854
21751WAT     H265496   6.452   3.823   1.948
21752WAT      O65497   3.315   1.207   7.782
21752WAT     H165498   3.407   1.243   7.766
21752WAT     H265499   3.321   1.123   7.836
21753WAT      O65500   5.220   4.281   4.071
21753WAT     H165501   5.301   4.300   4.126
21753WAT     H265502   5.201   4.182   4.074
21754WAT      O65503   6.633   1.331   5.908
21754WAT     H165504   6.713   1.309   5.853
21754WAT     H265505   6.620   1.261   5.978
21755WAT      O65506   7.157   5.212   3.854
21755WAT     H165507   7.073   5.182   3.810
21755WAT     H265508   7.157   5.312   3.862
21756WAT      O65509   8.208   5.142   0.084
21756WAT     H165510   8.274   5.172   0.015
21756WAT     H265511   8.149   5.218   0.110
21757WAT      O65512   4.465   1.479   5.530
21757WAT     H165513   4.435   1.562   5.577
21757WAT     H265514   4.463   1.493   5.431
21758WAT      O65515   4.008   1.124   2.674
21758WAT     H165516   4.068   1.053   2.637
21758WAT     H265517   3.963   1.089   2.757
21759WAT      O65518   7.991   6.916   1.543
21759WAT     H165519   8.084   6.905   1.508
21759WAT     H265520   7.930   6.854   1.494
21760WAT      O65521   9.015   4.967   1.234
21760WAT     H165522   8.972   5.046   1.191
21760WAT     H265523   8.944   4.904   1.266
21761WAT      O65524   8.017   1.309   9.836
21761WAT     H165525   8.001   1.299   9.934
21761WAT     H265526   8.106   1.272   9.812
21762WAT      O65527   7.877   0.713   7.714
21762WAT     H165528   7.855   0.621   7.682
21762WAT     H265529   7.903   0.770   7.636
21763WAT      O65530   5.250   9.460   0.479
21763WAT     H165531   5.155   9.436   0.461
21763WAT     H265532   5.291   9.500   0.397
21764WAT      O65533   1.474   5.198   2.427
21764WAT     H165534   1.566   5.237   2.429
21764WAT     H265535   1.476   5.111   2.377
21765WAT      O65536   6.057   8.862   4.657
21765WAT     H165537   6.070   8.802   4.736
21765WAT     H265538   5.961   8.861   4.630
21766WAT      O65539   0.863   3.817   7.807
21766WAT     H165540   0.908   3.875   7.874
21766WAT     H265541   0.929   3.750   7.772
21767WAT      O65542   2.021   6.939   1.586
21767WAT     H165543   1.924   6.962   1.587
21767WAT     H265544   2.044   6.890   1.502
21768WAT      O65545   1.144   5.465   1.903
21768WAT     H165546   1.075   5.483   1.833
21768WAT     H265547   1.199   5.547   1.917
21769WAT      O65548   4.036   4.733   7.886
21769WAT     H165549   4.115   4.675   7.907
21769WAT     H265550   4.066   4.813   7.834
21770WAT      O65551   5.855   9.493   6.383
21770WAT     H165552   5.947   9.489   6.422
21770WAT     H265553   5.829   9.403   6.350
21771WAT      O65554   6.948   7.198   6.350
21771WAT     H165555   6.855   7.225   6.373
21771WAT     H265556   7.012   7.269   6.379
21772WAT      O65557   4.611   4.142   7.338
21772WAT     H165558   4.607   4.190   7.250
21772WAT     H265559   4.610   4.044   7.323
21773WAT      O65560   8.179   2.164   0.688
21773WAT     H165561   8.244   2.232   0.654
21773WAT     H265562   8.091   2.209   0.706
21774WAT      O65563   3.326   9.072   1.040
21774WAT     H165564   3.231   9.091   1.015
21774WAT     H265565   3.366   9.153   1.082
21775WAT      O65566   6.163   8.285   7.113
21775WAT     H165567   6.124   8.304   7.023
21775WAT     H265568   6.257   8.319   7.116
21776WAT      O65569   2.810   3.663   4.133
21776WAT     H165570   2.761   3.644   4.048
21776WAT     H265571   2.906   3.638   4.123
21777WAT      O65572   9.580   4.218   8.730
21777WAT     H165573   9.599   4.314   8.711
21777WAT     H265574   9.660   4.177   8.776
21778WAT      O65575   1.237   2.405   2.653
21778WAT     H165576   1.326   2.449   2.643
21778WAT     H265577   1.223   2.380   2.749
21779WAT      O65578   1.063   8.822   7.485
21779WAT     H165579   1.138   8.802   7.549
21779WAT     H265580   0.976   8.795   7.527
21780WAT      O65581   2.314   8.476   2.779
21780WAT     H165582   2.354   8.565   2.800
21780WAT     H265583   2.341   8.409   2.849
21781WAT      O65584   8.699   1.915   4.130
21781WAT     H165585   8.739   1.977   4.063
21781WAT     H265586   8.613   1.953   4.164
21782WAT      O65587   6.865   0.795   0.947
21782WAT     H165588   6.848   0.850   0.865
21782WAT     H265589   6.940   0.730   0.929
21783WAT      O65590   2.895   3.240   5.245
21783WAT     H165591   2.795   3.246   5.241
21783WAT     H265592   2.924   3.233   5.341
21784WAT      O65593   1.250   0.101   2.585
21784WAT     H165594   1.169   0.113   2.642
21784WAT     H265595   1.224   0.054   2.501
21785WAT      O65596   2.160   3.243   3.917
21785WAT     H165597   2.160   3.265   4.014
21785WAT     H265598   2.111   3.314   3.866
21786WAT      O65599   9.820   1.630   4.108
21786WAT     H165600   9.798   1.578   4.026
21786WAT     H265601   9.741   1.685   4.136
21787WAT      O65602   2.109   1.467   3.442
21787WAT     H165603   2.085   1.501   3.533
21787WAT     H265604   2.029   1.423   3.400
21788WAT      O65605   4.071   9.225   4.711
21788WAT     H165606   3.977   9.260   4.707
21788WAT     H265607   4.112   9.249   4.799
21789WAT      O65608   2.736   4.289   0.581
21789WAT     H165609   2.711   4.263   0.488
21789WAT     H265610   2.756   4.207   0.634
21790WAT      O65611   5.753   1.977   5.011
21790WAT     H165612   5.774   1.915   4.936
21790WAT     H265613   5.827   2.043   5.022
21791WAT      O65614   8.439   2.077   8.690
21791WAT     H165615   8.371   2.017   8.646
21791WAT     H265616   8.420   2.082   8.788
21792WAT      O65617   1.540   6.084   1.769
21792WAT     H165618   1.522   6.179   1.797
21792WAT     H265619   1.516   6.073   1.673
21793WAT      O65620   7.459   4.197   6.664
21793WAT     H165621   7.519   4.260   6.712
21793WAT     H265622   7.393   4.159   6.729
21794WAT      O65623   8.350   0.585   7.174
21794WAT     H165624   8.404   0.516   7.126
21794WAT     H265625   8.366   0.578   7.273
21795WAT      O65626   3.535   6.888   7.192
21795WAT     H165627   3.464   6.840   7.141
21795WAT     H265628   3.535   6.856   7.287
21796WAT      O65629   4.497   4.455   6.496
21796WAT     H165630   4.434   4.443   6.419
21796WAT     H265631   4.591   4.456   6.463
21797WAT      O65632   9.873   7.606   7.214
21797WAT     H165633   9.838   7.553   7.137
21797WAT     H265634   9.918   7.688   7.179
21798WAT      O65635   4.435   2.723   9.544
21798WAT     H165636   4.509   2.787   9.527
21798WAT     H265637   4.413   2.721   9.641
21799WAT      O65638   2.412   8.028   9.650
21799WAT     H165639   2.412   8.073   9.561
21799WAT     H265640   2.375   8.090   9.720
21800WAT      O65641   5.437   6.122   5.564
21800WAT     H165642   5.338   6.121   5.545
21800WAT     H265643   5.462   6.041   5.616
21801WAT      O65644   7.458   7.219   1.127
21801WAT     H165645   7.489   7.311   1.152
21801WAT     H265646   7.512   7.186   1.050
21802WAT      O65647   0.060   0.930   5.188
21802WAT     H165648   0.008   1.014   5.172
21802WAT     H265649   0.148   0.953   5.230
21803WAT      O65650   2.838   6.551   2.954
21803WAT     H165651   2.745   6.570   2.986
21803WAT     H265652   2.866   6.621   2.890
21804WAT      O65653   9.160   0.449   6.391
21804WAT     H165654   9.070   0.442   6.347
21804WAT     H265655   9.150   0.497   6.478
21805WAT      O65656   4.141   3.426   6.532
21805WAT     H165657   4.165   3.329   6.522
21805WAT     H265658   4.042   3.436   6.532
21806WAT      O65659   2.883   3.843   7.316
21806WAT     H165660   2.935   3.861   7.400
21806WAT     H265661   2.856   3.747   7.314
21807WAT      O65662   0.763   4.690   6.718
21807WAT     H165663   0.712   4.717   6.636
21807WAT     H265664   0.706   4.706   6.799
21808WAT      O65665   0.158   9.636   0.628
21808WAT     H165666   0.086   9.575   0.598
21808WAT     H265667   0.236   9.629   0.566
21809WAT      O65668   7.510   4.695   0.571
21809WAT     H165669   7.483   4.632   0.498
21809WAT     H265670   7.553   4.645   0.645
21810WAT      O65671   6.682   8.358   6.124
21810WAT     H165672   6.646   8.406   6.044
21810WAT     H265673   6.622   8.373   6.202
21811WAT      O65674   2.371   0.047   2.092
21811WAT     H165675   2.443   0.097   2.140
21811WAT     H265676   2.281   0.077   2.126
21812WAT      O65677   1.828   8.216   1.454
21812WAT     H165678   1.908   8.275   1.447
21812WAT     H265679   1.760   8.258   1.515
21813WAT      O65680   7.828   4.637   7.857
21813WAT     H165681   7.773   4.718   7.837
21813WAT     H265682   7.866   4.644   7.949
21814WAT      O65683   5.840   3.572   9.798
21814WAT     H165684   5.789   3.490   9.772
21814WAT     H265685   5.787   3.654   9.774
21815WAT      O65686   8.430   7.742   6.441
21815WAT     H165687   8.387   7.808   6.504
21815WAT     H265688   8.392   7.651   6.457
21816WAT      O65689   7.575   4.797   8.368
21816WAT     H165690   7.522   4.810   8.284
21816WAT     H265691   7.539   4.718   8.418
21817WAT      O65692   9.585   1.952   6.285
21817WAT     H165693   9.651   1.983   6.354
21817WAT     H265694   9.598   1.855   6.268
21818WAT      O65695   9.326   7.745   7.141
21818WAT     H165696   9.406   7.789   7.181
21818WAT     H265697   9.354   7.660   7.096
21819WAT      O65698   1.095   3.010   9.818
21819WAT     H165699   1.101   3.109   9.831
21819WAT     H265700   1.059   2.991   9.727
21820WAT      O65701   8.542   5.829   5.943
21820WAT     H165702   8.535   5.877   5.856
21820WAT     H265703   8.522   5.893   6.018
21821WAT      O65704   5.726   8.409   8.136
21821WAT     H165705   5.683   8.322   8.111
21821WAT     H265706   5.665   8.485   8.111
21822WAT      O65707   1.820   2.119   2.232
21822WAT     H165708   1.885   2.046   2.250
21822WAT     H265709   1.845   2.200   2.286
21823WAT      O65710   4.671   2.678   1.264
21823WAT     H165711   4.670   2.587   1.223
21823WAT     H265712   4.762   2.719   1.251
21824WAT      O65713   0.047   2.789   8.042
21824WAT     H165714   0.080   2.823   7.954
21824WAT     H265715   0.122   2.788   8.108
21825WAT      O65716   1.630   5.105   3.151
21825WAT     H165717   1.637   5.115   3.051
21825WAT     H265718   1.548   5.150   3.184
21826WAT      O65719   2.279   1.024   7.561
21826WAT     H165720   2.366   1.065   7.533
21826WAT     H265721   2.209   1.095   7.566
21827WAT      O65722   3.344   6.574   7.824
21827WAT     H165723   3.337   6.600   7.921
21827WAT     H265724   3.278   6.626   7.770
21828WAT      O65725   6.449   3.456   1.815
21828WAT     H165726   6.470   3.509   1.733
21828WAT     H265727   6.450   3.359   1.793
21829WAT      O65728   5.510   1.150   9.432
21829WAT     H165729   5.585   1.154   9.366
21829WAT     H265730   5.430   1.106   9.389
21830WAT      O65731   7.099   6.215   0.763
21830WAT     H165732   7.154   6.294   0.791
21830WAT     H265733   7.157   6.149   0.715
21831WAT      O65734   6.205   6.539   2.147
21831WAT     H165735   6.216   6.638   2.146
21831WAT     H265736   6.186   6.507   2.054
21832WAT      O65737   7.731   9.215   2.265
21832WAT     H165738   7.675   9.133   2.269
21832WAT     H265739   7.799   9.213   2.338
21833WAT      O65740   4.951   0.220   9.534
21833WAT     H165741   4.995   0.215   9.444
21833WAT     H265742   4.929   0.128   9.565
21834WAT      O65743   3.558   9.718   5.244
21834WAT     H165744   3.638   9.736   5.300
21834WAT     H265745   3.477   9.710   5.303
21835WAT      O65746   8.037   2.135   3.268
21835WAT     H165747   8.135   2.141   3.254
21835WAT     H265748   8.010   2.039   3.279
21836WAT      O65749   7.874   8.691   0.699
21836WAT     H165750   7.775   8.690   0.684
21836WAT     H265751   7.907   8.597   0.706
21837WAT      O65752   4.650   6.326   1.257
21837WAT     H165753   4.689   6.390   1.190
21837WAT     H265754   4.710   6.321   1.337
21838WAT      O65755   4.989   0.405   3.003
21838WAT     H165756   4.921   0.336   2.980
21838WAT     H265757   5.049   0.421   2.924
21839WAT      O65758   6.521   6.580   4.621
21839WAT     H165759   6.602   6.587   4.563
21839WAT     H265760   6.549   6.584   4.717
21840WAT      O65761   4.982   0.693   3.535
21840WAT     H165762   4.885   0.669   3.531
21840WAT     H265763   4.993   0.791   3.517
21841WAT      O65764   5.813   5.498   8.782
21841WAT     H165765   5.758   5.491   8.866
21841WAT     H265766   5.909   5.513   8.807
21842WAT      O65767   0.561   1.848   2.846
21842WAT     H165768   0.650   1.806   2.863
21842WAT     H265769   0.562   1.943   2.879
21843WAT      O65770   2.239   5.789   5.989
21843WAT     H165771   2.285   5.733   5.921
21843WAT     H265772   2.198   5.869   5.945
21844WAT      O65773   7.708   5.376   1.142
21844WAT     H165774   7.731   5.403   1.235
21844WAT     H265775   7.611   5.353   1.136
21845WAT      O65776   6.061   0.900   6.036
21845WAT     H165777   6.021   0.812   6.013
21845WAT     H265778   6.020   0.935   6.120
21846WAT      O65779   7.239   6.138   5.560
21846WAT     H165780   7.265   6.127   5.464
21846WAT     H265781   7.281   6.220   5.597
21847WAT      O65782   0.484   7.355   9.821
21847WAT     H165783   0.569   7.386   9.863
21847WAT     H265784   0.414   7.343   9.892
21848WAT      O65785   5.227   9.090   9.591
21848WAT     H165786   5.235   9.187   9.616
21848WAT     H265787   5.143   9.052   9.631
21849WAT      O65788   6.949   8.350   7.422
21849WAT     H165789   7.016   8.357   7.496
21849WAT     H265790   6.871   8.295   7.453
21850WAT      O65791   3.460   2.433   3.377
21850WAT     H165792   3.532   2.396   3.436
21850WAT     H265793   3.487   2.422   3.281
21851WAT      O65794   6.410   2.558   3.762
21851WAT     H165795   6.437   2.485   3.700
21851WAT     H265796   6.426   2.647   3.717
21852WAT      O65797   3.152   7.092   3.593
21852WAT     H165798   3.085   7.167   3.591
21852WAT     H265799   3.159   7.051   3.502
21853WAT      O65800   8.063   1.465   1.325
21853WAT     H165801   8.153   1.498   1.295
21853WAT     H265802   8.074   1.380   1.377
21854WAT      O65803   1.534   7.211   2.863
21854WAT     H165804   1.602   7.148   2.828
21854WAT     H265805   1.459   7.160   2.905
21855WAT      O65806   7.899   8.301   5.845
21855WAT     H165807   7.910   8.396   5.816
21855WAT     H265808   7.807   8.270   5.823
21856WAT      O65809   6.993   7.063   2.092
21856WAT     H165810   7.085   7.077   2.056
21856WAT     H265811   6.942   7.002   2.032
21857WAT      O65812   0.119   5.930   2.710
21857WAT     H165813   0.066   5.862   2.761
21857WAT     H265814   0.076   6.020   2.720
21858WAT      O65815   3.759   6.761   1.492
21858WAT     H165816   3.709   6.737   1.575
21858WAT     H265817   3.729   6.703   1.417
21859WAT      O65818   6.722   9.293   9.225
21859WAT     H165819   6.711   9.367   9.292
21859WAT     H265820   6.645   9.230   9.233
21860WAT      O65821   5.040   6.489   7.997
21860WAT     H165822   5.104   6.566   7.992
21860WAT     H265823   5.035   6.457   8.092
21861WAT      O65824   0.569   5.310   0.649
21861WAT     H165825   0.510   5.326   0.728
21861WAT     H265826   0.515   5.269   0.575
21862WAT      O65827   1.201   4.581   5.029
21862WAT     H165828   1.193   4.665   4.975
21862WAT     H265829   1.128   4.518   5.002
21863WAT      O65830   8.998   3.086   3.077
21863WAT     H165831   8.932   3.159   3.093
21863WAT     H265832   9.071   3.120   3.017
21864WAT      O65833   9.071   1.653   3.898
21864WAT     H165834   9.004   1.578   3.905
21864WAT     H265835   9.117   1.664   3.986
21865WAT      O65836   0.444   3.863   4.688
21865WAT     H165837   0.503   3.915   4.628
21865WAT     H265838   0.355   3.848   4.644
21866WAT      O65839   7.461   4.927   8.126
21866WAT     H165840   7.442   5.024   8.141
21866WAT     H265841   7.375   4.877   8.118
21867WAT      O65842   0.435   5.105   1.794
21867WAT     H165843   0.415   5.094   1.697
21867WAT     H265844   0.466   5.018   1.832
21868WAT      O65845   0.819   3.619   8.765
21868WAT     H165846   0.803   3.640   8.862
21868WAT     H265847   0.732   3.609   8.719
21869WAT      O65848   8.402   4.662   7.884
21869WAT     H165849   8.467   4.593   7.916
21869WAT     H265850   8.326   4.668   7.948
21870WAT      O65851   9.034   3.213   0.576
21870WAT     H165852   9.116   3.156   0.571
21870WAT     H265853   8.968   3.184   0.506
21871WAT      O65854   5.861   9.268   2.161
21871WAT     H165855   5.832   9.175   2.139
21871WAT     H265856   5.951   9.285   2.122
21872WAT      O65857   0.310   8.982   2.423
21872WAT     H165858   0.283   8.975   2.518
21872WAT     H265859   0.244   9.037   2.372
21873WAT      O65860   0.037   9.092   8.079
21873WAT     H165861   0.098   9.155   8.031
21873WAT     H265862   0.025   9.009   8.024
21874WAT      O65863   5.764   2.799   0.837
21874WAT     H165864   5.787   2.862   0.763
21874WAT     H265865   5.671   2.816   0.868
21875WAT      O65866   5.351   2.751   4.601
21875WAT     H165867   5.408   2.779   4.525
21875WAT     H265868   5.280   2.688   4.568
21876WAT      O65869   4.581   6.015   9.571
21876WAT     H165870   4.515   5.963   9.517
21876WAT     H265871   4.628   6.082   9.513
21877WAT      O65872   8.243   3.820   8.101
21877WAT     H165873   8.299   3.815   8.019
21877WAT     H265874   8.147   3.802   8.077
21878WAT      O65875   4.869   4.026   3.918
21878WAT     H165876   4.951   4.031   3.862
21878WAT     H265877   4.811   4.106   3.901
21879WAT      O65878   9.232   7.564   6.274
21879WAT     H165879   9.331   7.557   6.260
21879WAT     H265880   9.211   7.643   6.330
21880WAT      O65881   5.294   3.762   5.825
21880WAT     H165882   5.328   3.811   5.905
21880WAT     H265883   5.195   3.779   5.815
21881WAT      O65884   7.231   9.490   2.739
21881WAT     H165885   7.140   9.470   2.702
21881WAT     H265886   7.278   9.556   2.679
21882WAT      O65887   6.603   8.669   2.736
21882WAT     H165888   6.610   8.572   2.759
21882WAT     H265889   6.509   8.700   2.749
21883WAT      O65890   8.232   9.825   3.846
21883WAT     H165891   8.273   9.828   3.755
21883WAT     H265892   8.212   9.918   3.877
21884WAT      O65893   1.663   2.140   4.114
21884WAT     H165894   1.754   2.109   4.142
21884WAT     H265895   1.634   2.089   4.033
21885WAT      O65896   7.005   7.231   5.731
21885WAT     H165897   7.070   7.156   5.720
21885WAT     H265898   6.921   7.197   5.773
21886WAT      O65899   3.303   7.919   0.644
21886WAT     H165900   3.270   7.982   0.572
21886WAT     H265901   3.396   7.890   0.623
21887WAT      O65902   5.541   0.522   9.753
21887WAT     H165903   5.555   0.590   9.681
21887WAT     H265904   5.610   0.451   9.744
21888WAT      O65905   7.318   7.496   3.383
21888WAT     H165906   7.279   7.570   3.327
21888WAT     H265907   7.290   7.408   3.345
21889WAT      O65908   7.622   7.932   1.908
21889WAT     H165909   7.617   8.031   1.924
21889WAT     H265910   7.626   7.885   1.996
21890WAT      O65911   1.125   5.220   0.852
21890WAT     H165912   1.195   5.149   0.857
21890WAT     H265913   1.120   5.269   0.939
21891WAT      O65914   3.144   0.071   0.793
21891WAT     H165915   3.100  -0.019   0.802
21891WAT     H265916   3.078   0.142   0.817
21892WAT      O65917   6.174   9.381   0.845
21892WAT     H165918   6.218   9.346   0.928
21892WAT     H265919   6.128   9.468   0.866
21893WAT      O65920   7.354   2.511   8.378
21893WAT     H165921   7.450   2.483   8.376
21893WAT     H265922   7.332   2.561   8.294
21894WAT      O65923   3.870   5.433   1.415
21894WAT     H165924   3.805   5.415   1.342
21894WAT     H265925   3.841   5.514   1.467
21895WAT      O65926   4.971   5.378   0.552
21895WAT     H165927   4.907   5.400   0.625
21895WAT     H265928   4.946   5.291   0.511
21896WAT      O65929   3.174   5.474   7.824
21896WAT     H165930   3.215   5.391   7.861
21896WAT     H265931   3.213   5.554   7.869
21897WAT      O65932   2.577   8.127   7.781
21897WAT     H165933   2.516   8.101   7.706
21897WAT     H265934   2.672   8.118   7.752
21898WAT      O65935   5.875   3.399   0.373
21898WAT     H165936   5.852   3.309   0.337
21898WAT     H265937   5.931   3.388   0.455
21899WAT      O65938   0.852   3.212   5.330
21899WAT     H165939   0.870   3.153   5.409
21899WAT     H265940   0.936   3.224   5.278
21900WAT      O65941   3.086   3.195   9.834
21900WAT     H165942   3.024   3.271   9.816
21900WAT     H265943   3.073   3.123   9.766
21901WAT      O65944   2.855   0.849   0.310
21901WAT     H165945   2.836   0.871   0.406
21901WAT     H265946   2.819   0.757   0.289
21902WAT      O65947   9.696   3.543   4.635
21902WAT     H165948   9.661   3.559   4.728
21902WAT     H265949   9.794   3.525   4.639
21903WAT      O65950   2.611   5.424   8.891
21903WAT     H165951   2.549   5.420   8.813
21903WAT     H265952   2.694   5.473   8.865
21904WAT      O65953   0.949   7.834   2.138
21904WAT     H165954   0.938   7.751   2.194
21904WAT     H265955   0.899   7.910   2.181
21905WAT      O65956   9.469   8.467   6.382
21905WAT     H165957   9.371   8.485   6.394
21905WAT     H265958   9.481   8.395   6.313
21906WAT      O65959   0.898   0.732   6.180
21906WAT     H165960   0.951   0.696   6.104
21906WAT     H265961   0.811   0.682   6.187
21907WAT      O65962   1.962   3.962   0.303
21907WAT     H165963   2.036   3.904   0.269
21907WAT     H265964   2.000   4.037   0.357
21908WAT      O65965   3.722   1.206   4.717
21908WAT     H165966   3.643   1.265   4.698
21908WAT     H265967   3.706   1.157   4.803
21909WAT      O65968   3.206   8.583   3.400
21909WAT     H165969   3.154   8.660   3.363
21909WAT     H265970   3.170   8.559   3.490
21910WAT      O65971   5.097   8.902   4.451
21910WAT     H165972   5.078   8.877   4.356
21910WAT     H265973   5.195   8.893   4.469
21911WAT      O65974   3.328   6.301   4.878
21911WAT     H165975   3.232   6.310   4.851
21911WAT     H265976   3.385   6.293   4.795
21912WAT      O65977   4.453   8.124   2.919
21912WAT     H165978   4.438   8.218   2.951
21912WAT     H265979   4.394   8.106   2.841
21913WAT      O65980   3.013   0.295   3.584
21913WAT     H165981   2.968   0.377   3.618
21913WAT     H265982   3.030   0.231   3.659
21914WAT      O65983   4.578   1.110   9.534
21914WAT     H165984   4.570   1.090   9.436
21914WAT     H265985   4.495   1.080   9.581
21915WAT      O65986   2.000   1.868   2.904
21915WAT     H165987   2.052   1.954   2.904
21915WAT     H265988   1.905   1.887   2.928
21916WAT      O65989   4.080   6.991   8.148
21916WAT     H165990   4.034   6.906   8.176
21916WAT     H265991   4.112   7.039   8.230
21917WAT      O65992   1.848   5.696   3.884
21917WAT     H165993   1.922   5.763   3.894
21917WAT     H265994   1.849   5.658   3.792
21918WAT      O65995   8.867   5.629   0.319
21918WAT     H165996   8.791   5.592   0.265
21918WAT     H265997   8.851   5.726   0.336
21919WAT      O65998   4.248   9.608   1.407
21919WAT     H165999   4.271   9.646   1.497
21919WAT     H266000   4.300   9.657   1.337
21920WAT      O66001   1.004   9.102   7.620
21920WAT     H166002   0.928   9.146   7.572
21920WAT     H266003   1.007   9.005   7.596
21921WAT      O66004   4.044   9.411   9.748
21921WAT     H166005   4.097   9.494   9.768
21921WAT     H266006   3.957   9.414   9.798
21922WAT      O66007   3.648   2.783   5.337
21922WAT     H166008   3.637   2.861   5.399
21922WAT     H266009   3.706   2.714   5.381
21923WAT      O66010   5.459   5.199   0.269
21923WAT     H166011   5.414   5.135   0.206
21923WAT     H266012   5.547   5.226   0.230
21924WAT      O66013   4.728   3.358   6.865
21924WAT     H166014   4.662   3.374   6.939
21924WAT     H266015   4.820   3.354   6.904
21925WAT      O66016   0.103   7.198   4.972
21925WAT     H166017   0.068   7.106   4.989
21925WAT     H266018   0.135   7.203   4.877
21926WAT      O66019   3.775   8.009   0.477
21926WAT     H166020   3.834   7.937   0.442
21926WAT     H266021   3.761   8.079   0.407
21927WAT      O66022   2.666   3.378   6.870
21927WAT     H166023   2.743   3.401   6.930
21927WAT     H266024   2.656   3.449   6.800
21928WAT      O66025   8.174   5.606   8.568
21928WAT     H166026   8.134   5.648   8.649
21928WAT     H266027   8.108   5.607   8.493
21929WAT      O66028   3.875   3.747   6.667
21929WAT     H166029   3.926   3.731   6.582
21929WAT     H266030   3.924   3.814   6.722
21930WAT      O66031   3.576   2.636   2.953
21930WAT     H166032   3.541   2.721   2.990
21930WAT     H266033   3.620   2.653   2.865
21931WAT      O66034   0.604   7.448   8.568
21931WAT     H166035   0.571   7.508   8.494
21931WAT     H266036   0.541   7.372   8.579
21932WAT      O66037   9.839   8.105   0.567
21932WAT     H166038   9.765   8.119   0.632
21932WAT     H266039   9.878   8.013   0.581
21933WAT      O66040   0.714   6.491   8.608
21933WAT     H166041   0.690   6.582   8.575
21933WAT     H266042   0.805   6.494   8.651
21934WAT      O66043   9.039   1.205   6.204
21934WAT     H166044   8.998   1.115   6.214
21934WAT     H266045   8.983   1.272   6.253
21935WAT      O66046   7.382   9.681   9.181
21935WAT     H166047   7.374   9.599   9.238
21935WAT     H266048   7.454   9.668   9.113
21936WAT      O66049   5.779   0.125   4.180
21936WAT     H166050   5.872   0.090   4.168
21936WAT     H266051   5.746   0.103   4.272
21937WAT      O66052   5.780   6.744   9.645
21937WAT     H166053   5.855   6.810   9.654
21937WAT     H266054   5.694   6.792   9.634
21938WAT      O66055   9.181   4.430   7.042
21938WAT     H166056   9.271   4.469   7.023
21938WAT     H266057   9.124   4.437   6.960
21939WAT      O66058   8.324   8.970   3.532
21939WAT     H166059   8.321   8.886   3.477
21939WAT     H266060   8.275   9.042   3.484
21940WAT      O66061   2.324   1.158   0.575
21940WAT     H166062   2.236   1.113   0.563
21940WAT     H266063   2.393   1.111   0.520
21941WAT      O66064   7.096   7.901   9.139
21941WAT     H166065   7.180   7.879   9.187
21941WAT     H266066   7.086   8.000   9.133
21942WAT      O66067   3.661   5.756   8.468
21942WAT     H166068   3.746   5.773   8.519
21942WAT     H266069   3.678   5.772   8.371
21943WAT      O66070   8.956   5.999   2.541
21943WAT     H166071   8.974   5.943   2.460
21943WAT     H266072   8.978   5.946   2.623
21944WAT      O66073   8.251   7.129   2.279
21944WAT     H166074   8.314   7.098   2.350
21944WAT     H266075   8.159   7.097   2.299
21945WAT      O66076   5.159   1.817   1.249
21945WAT     H166077   5.118   1.907   1.233
21945WAT     H266078   5.087   1.751   1.272
21946WAT      O66079   0.206   3.755   1.992
21946WAT     H166080   0.151   3.673   1.976
21946WAT     H266081   0.191   3.788   2.086
21947WAT      O66082   9.509   1.052   2.761
21947WAT     H166083   9.552   0.993   2.693
21947WAT     H266084   9.452   1.120   2.715
21948WAT      O66085   3.363   2.026   7.042
21948WAT     H166086   3.300   1.950   7.025
21948WAT     H266087   3.455   1.989   7.058
21949WAT      O66088   2.663   4.086   8.721
21949WAT     H166089   2.715   4.159   8.677
21949WAT     H266090   2.576   4.123   8.756
21950WAT      O66091   4.601   7.497   7.940
21950WAT     H166092   4.523   7.444   7.906
21950WAT     H266093   4.606   7.488   8.040
21951WAT      O66094   8.126   4.544   1.548
21951WAT     H166095   8.216   4.500   1.550
21951WAT     H266096   8.137   4.643   1.556
21952WAT      O66097   0.417   8.967   8.042
21952WAT     H166098   0.373   9.023   7.972
21952WAT     H266099   0.425   9.020   8.127
21953WAT      O66100   8.906   8.156   7.309
21953WAT     H166101   8.868   8.102   7.235
21953WAT     H266102   8.838   8.222   7.341
21954WAT      O66103   8.479   9.413   0.189
21954WAT     H166104   8.382   9.429   0.202
21954WAT     H266105   8.492   9.332   0.132
21955WAT      O66106   2.635   8.589   8.557
21955WAT     H166107   2.707   8.633   8.611
21955WAT     H266108   2.592   8.656   8.497
21956WAT      O66109   0.921   2.816   3.853
21956WAT     H166110   0.835   2.860   3.877
21956WAT     H266111   0.995   2.883   3.855
21957WAT      O66112   4.341   9.700   6.007
21957WAT     H166113   4.291   9.703   5.921
21957WAT     H266114   4.277   9.715   6.083
21958WAT      O66115   7.332   9.267   0.126
21958WAT     H166116   7.408   9.213   0.161
21958WAT     H266117   7.246   9.220   0.144
21959WAT      O66118   1.103   3.357   4.357
21959WAT     H166119   1.071   3.276   4.308
21959WAT     H266120   1.202   3.352   4.370
21960WAT      O66121   0.467   4.643   1.421
21960WAT     H166122   0.426   4.631   1.330
21960WAT     H266123   0.395   4.644   1.490
21961WAT      O66124   9.207   3.755   6.474
21961WAT     H166125   9.122   3.703   6.476
21961WAT     H266126   9.206   3.818   6.397
21962WAT      O66127   1.553   2.495   5.125
21962WAT     H166128   1.628   2.521   5.186
21962WAT     H266129   1.589   2.451   5.043
21963WAT      O66130   2.642   5.928   9.889
21963WAT     H166131   2.621   5.959   9.982
21963WAT     H266132   2.704   5.994   9.846
21964WAT      O66133   2.345   0.163   6.910
21964WAT     H166134   2.362   0.231   6.981
21964WAT     H266135   2.282   0.202   6.842
21965WAT      O66136   9.467   6.115   5.557
21965WAT     H166137   9.515   6.052   5.495
21965WAT     H266138   9.521   6.198   5.569
21966WAT      O66139   0.222   3.607   6.505
21966WAT     H166140   0.286   3.572   6.438
21966WAT     H266141   0.235   3.706   6.515
21967WAT      O66142   3.790   5.408   0.487
21967WAT     H166143   3.881   5.375   0.512
21967WAT     H266144   3.763   5.371   0.398
21968WAT      O66145   9.430   6.051   7.667
21968WAT     H166146   9.351   6.087   7.717
21968WAT     H266147   9.402   5.975   7.610
21969WAT      O66148   5.726   6.533   3.053
21969WAT     H166149   5.768   6.481   2.979
21969WAT     H266150   5.662   6.600   3.013
21970WAT      O66151   5.581   3.070   7.743
21970WAT     H166152   5.601   2.976   7.773
21970WAT     H266153   5.659   3.107   7.693
21971WAT      O66154   8.551   3.004   7.737
21971WAT     H166155   8.529   3.002   7.639
21971WAT     H266156   8.619   3.075   7.754
21972WAT      O66157   0.493   0.875   5.752
21972WAT     H166158   0.541   0.962   5.740
21972WAT     H266159   0.451   0.848   5.666
21973WAT      O66160   1.806   9.823   9.053
21973WAT     H166161   1.870   9.766   9.104
21973WAT     H266162   1.775   9.774   8.972
21974WAT      O66163   5.616   1.492   4.252
21974WAT     H166164   5.704   1.456   4.222
21974WAT     H266165   5.630   1.576   4.304
21975WAT      O66166   6.897   0.176   6.330
21975WAT     H166167   6.950   0.093   6.347
21975WAT     H266168   6.836   0.162   6.252
21976WAT      O66169   2.958   6.757   2.778
21976WAT     H166170   2.913   6.844   2.759
21976WAT     H266171   3.033   6.772   2.843
21977WAT      O66172   3.076   4.961   5.251
21977WAT     H166173   3.015   5.038   5.233
21977WAT     H266174   3.170   4.989   5.232
21978WAT      O66175   6.235   2.608   9.125
21978WAT     H166176   6.215   2.580   9.219
21978WAT     H266177   6.332   2.596   9.106
21979WAT      O66178   5.408   5.377   8.009
21979WAT     H166179   5.420   5.391   8.108
21979WAT     H266180   5.494   5.399   7.962
21980WAT      O66181   8.592   5.096   0.064
21980WAT     H166182   8.525   5.090  -0.010
21980WAT     H266183   8.544   5.100   0.152
21981WAT      O66184   7.976   3.692   8.650
21981WAT     H166185   8.060   3.643   8.627
21981WAT     H266186   7.899   3.629   8.649
21982WAT      O66187   7.823   6.290   1.635
21982WAT     H166188   7.760   6.367   1.625
21982WAT     H266189   7.873   6.298   1.721
21983WAT      O66190   3.762   9.507   4.674
21983WAT     H166191   3.752   9.593   4.624
21983WAT     H266192   3.803   9.525   4.764
21984WAT      O66193   1.771   3.048   5.281
21984WAT     H166194   1.737   3.040   5.375
21984WAT     H266195   1.832   3.127   5.274
21985WAT      O66196   9.538   8.197   4.966
21985WAT     H166197   9.544   8.294   4.942
21985WAT     H266198   9.615   8.172   5.024
21986WAT      O66199   6.452   6.286   3.006
21986WAT     H166200   6.511   6.310   3.082
21986WAT     H266201   6.359   6.316   3.025
21987WAT      O66202   4.288   3.772   0.783
21987WAT     H166203   4.268   3.866   0.814
21987WAT     H266204   4.384   3.766   0.756
21988WAT      O66205   7.319   1.735   5.351
21988WAT     H166206   7.364   1.822   5.329
21988WAT     H266207   7.365   1.660   5.303
21989WAT      O66208   3.004   3.080   4.705
21989WAT     H166209   2.991   3.044   4.612
21989WAT     H266210   3.026   3.177   4.701
21990WAT      O66211   8.221   8.720   6.674
21990WAT     H166212   8.302   8.685   6.628
21990WAT     H266213   8.246   8.753   6.765
21991WAT      O66214   8.644   6.365   6.699
21991WAT     H166215   8.602   6.330   6.783
21991WAT     H266216   8.576   6.369   6.627
21992WAT      O66217   6.237   1.401   6.211
21992WAT     H166218   6.230   1.427   6.307
21992WAT     H266219   6.150   1.420   6.165
21993WAT      O66220   5.282   9.015   2.254
21993WAT     H166221   5.226   8.989   2.332
21993WAT     H266222   5.360   8.953   2.247
21994WAT      O66223   7.892   9.440   8.489
21994WAT     H166224   7.916   9.372   8.419
21994WAT     H266225   7.885   9.395   8.577
21995WAT      O66226   7.834   7.192   6.462
21995WAT     H166227   7.853   7.287   6.485
21995WAT     H266228   7.826   7.182   6.362
21996WAT      O66229   7.074   9.373   4.713
21996WAT     H166230   7.096   9.300   4.649
21996WAT     H266231   7.016   9.441   4.669
21997WAT      O66232   6.418   0.978   1.681
21997WAT     H166233   6.336   1.031   1.663
21997WAT     H266234   6.412   0.937   1.772
21998WAT      O66235   5.665   9.297   0.617
21998WAT     H166236   5.761   9.270   0.617
21998WAT     H266237   5.632   9.307   0.711
21999WAT      O66238   9.443   2.976   4.983
21999WAT     H166239   9.419   3.037   5.059
21999WAT     H266240   9.449   3.030   4.899
22000WAT      O66241   4.818   8.522   1.842
22000WAT     H166242   4.789   8.429   1.819
22000WAT     H266243   4.755   8.588   1.801
22001WAT      O66244   7.369   2.170   4.293
22001WAT     H166245   7.428   2.140   4.218
22001WAT     H266246   7.308   2.096   4.320
22002WAT      O66247   4.406   4.133   7.630
22002WAT     H166248   4.447   4.219   7.600
22002WAT     H266249   4.316   4.152   7.670
22003WAT      O66250   9.083   2.618   6.558
22003WAT     H166251   9.173   2.637   6.597
22003WAT     H266252   9.023   2.583   6.629
22004WAT      O66253   4.824   5.249   1.373
22004WAT     H166254   4.908   5.286   1.333
22004WAT     H266255   4.823   5.149   1.363
22005WAT      O66256   1.172   8.447   4.104
22005WAT     H166257   1.267   8.477   4.094
22005WAT     H266258   1.112   8.526   4.106
22006WAT      O66259   4.976   6.793   8.238
22006WAT     H166260   4.998   6.773   8.334
22006WAT     H266261   5.038   6.742   8.178
22007WAT      O66262   9.271   4.267   2.340
22007WAT     H166263   9.178   4.298   2.321
22007WAT     H266264   9.322   4.263   2.254
22008WAT      O66265   3.071   5.401   2.094
22008WAT     H166266   3.159   5.415   2.049
22008WAT     H266267   3.069   5.310   2.135
22009WAT      O66268   7.095   9.440   3.284
22009WAT     H166269   7.094   9.442   3.384
22009WAT     H266270   7.001   9.437   3.250
22010WAT      O66271   8.619   4.784   7.753
22010WAT     H166272   8.700   4.764   7.809
22010WAT     H266273   8.537   4.755   7.802
22011WAT      O66274   8.991   7.774   9.424
22011WAT     H166275   8.927   7.697   9.426
22011WAT     H266276   9.078   7.746   9.464
22012WAT      O66277   5.126   0.791   6.273
22012WAT     H166278   5.130   0.741   6.359
22012WAT     H266279   5.110   0.728   6.197
22013WAT      O66280   3.273   0.950   3.958
22013WAT     H166281   3.296   1.047   3.966
22013WAT     H266282   3.315   0.900   4.033
22014WAT      O66283   4.765   6.236   3.524
22014WAT     H166284   4.756   6.332   3.495
22014WAT     H266285   4.690   6.183   3.486
22015WAT      O66286   4.490   7.003   1.935
22015WAT     H166287   4.523   7.097   1.933
22015WAT     H266288   4.531   6.954   2.013
22016WAT      O66289   4.666   2.797   6.764
22016WAT     H166290   4.596   2.809   6.693
22016WAT     H266291   4.737   2.866   6.752
22017WAT      O66292   0.937   4.364   6.838
22017WAT     H166293   0.935   4.404   6.746
22017WAT     H266294   0.845   4.362   6.876
22018WAT      O66295   9.209   2.993   9.786
22018WAT     H166296   9.237   3.081   9.824
22018WAT     H266297   9.264   2.920   9.826
22019WAT      O66298   4.938   5.467   0.261
22019WAT     H166299   4.904   5.549   0.214
22019WAT     H266300   4.918   5.473   0.358
22020WAT      O66301   1.452   1.863   8.576
22020WAT     H166302   1.384   1.796   8.607
22020WAT     H266303   1.427   1.954   8.609
22021WAT      O66304   9.051   2.473   7.945
22021WAT     H166305   9.141   2.505   7.913
22021WAT     H266306   8.980   2.530   7.905
22022WAT      O66307   7.423   1.383   4.185
22022WAT     H166308   7.494   1.452   4.199
22022WAT     H266309   7.405   1.372   4.088
22023WAT      O66310   4.306   7.241   2.009
22023WAT     H166311   4.384   7.233   1.947
22023WAT     H266312   4.318   7.177   2.086
22024WAT      O66313   3.763   1.867   6.081
22024WAT     H166314   3.774   1.915   5.994
22024WAT     H266315   3.721   1.778   6.065
22025WAT      O66316   1.641   5.737   9.584
22025WAT     H166317   1.597   5.815   9.539
22025WAT     H266318   1.738   5.735   9.558
22026WAT      O66319   4.963   3.083   2.301
22026WAT     H166320   4.879   3.059   2.250
22026WAT     H266321   4.955   3.176   2.336
22027WAT      O66322   7.950   2.665   5.879
22027WAT     H166323   7.877   2.598   5.874
22027WAT     H266324   7.962   2.695   5.973
22028WAT      O66325   6.298   8.163   1.895
22028WAT     H166326   6.208   8.124   1.915
22028WAT     H266327   6.318   8.235   1.961
22029WAT      O66328   1.989   0.856   8.973
22029WAT     H166329   2.012   0.761   8.955
22029WAT     H266330   2.056   0.895   9.037
22030WAT      O66331   6.176   6.524   9.657
22030WAT     H166332   6.085   6.523   9.614
22030WAT     H266333   6.245   6.543   9.587
22031WAT      O66334   6.436   8.904   6.999
22031WAT     H166335   6.477   8.834   6.941
22031WAT     H266336   6.337   8.904   6.986
22032WAT      O66337   8.216   3.783   8.363
22032WAT     H166338   8.122   3.748   8.363
22032WAT     H266339   8.245   3.799   8.269
22033WAT      O66340   2.419   9.670   4.110
22033WAT     H166341   2.397   9.663   4.207
22033WAT     H266342   2.487   9.742   4.096
22034WAT      O66343   2.034   4.411   8.447
22034WAT     H166344   1.965   4.473   8.482
22034WAT     H266345   2.006   4.317   8.463
22035WAT      O66346   7.162   9.385   9.195
22035WAT     H166347   7.183   9.328   9.275
22035WAT     H266348   7.231   9.370   9.124
22036WAT      O66349   5.833   0.980   9.461
22036WAT     H166350   5.887   0.905   9.423
22036WAT     H266351   5.892   1.059   9.479
22037WAT      O66352   0.098   3.101   5.993
22037WAT     H166353   0.177   3.051   5.957
22037WAT     H266354   0.016   3.074   5.943
22038WAT      O66355   9.429   5.993   2.976
22038WAT     H166356   9.379   5.912   2.944
22038WAT     H266357   9.373   6.075   2.959
22039WAT      O66358   4.975   7.416   5.892
22039WAT     H166359   4.953   7.419   5.794
22039WAT     H266360   5.071   7.388   5.903
22040WAT      O66361   0.173   3.343   6.108
22040WAT     H166362   0.229   3.317   6.187
22040WAT     H266363   0.135   3.262   6.065
22041WAT      O66364   7.112   5.982   3.480
22041WAT     H166365   7.016   5.981   3.507
22041WAT     H266366   7.138   5.894   3.441
22042WAT      O66367   6.289   7.357   3.440
22042WAT     H166368   6.359   7.417   3.479
22042WAT     H266369   6.268   7.387   3.347
22043WAT      O66370   2.707   9.375   2.457
22043WAT     H166371   2.798   9.342   2.480
22043WAT     H266372   2.640   9.303   2.474
22044WAT      O66373   9.155   9.472   9.098
22044WAT     H166374   9.144   9.497   9.002
22044WAT     H266375   9.211   9.541   9.144
22045WAT      O66376   9.781   9.278   9.719
22045WAT     H166377   9.782   9.212   9.793
22045WAT     H266378   9.872   9.284   9.678
22046WAT      O66379   2.332   4.011   5.406
22046WAT     H166380   2.392   4.082   5.443
22046WAT     H266381   2.371   3.977   5.320
22047WAT      O66382   0.869   5.198   7.970
22047WAT     H166383   0.869   5.212   7.871
22047WAT     H266384   0.801   5.129   7.994
22048WAT      O66385   4.255   7.804   7.093
22048WAT     H166386   4.304   7.724   7.129
22048WAT     H266387   4.165   7.809   7.136
22049WAT      O66388   8.109   7.144   0.301
22049WAT     H166389   8.108   7.096   0.389
22049WAT     H266390   8.028   7.116   0.248
22050WAT      O66391   6.782   7.093   5.851
22050WAT     H166392   6.742   7.004   5.871
22050WAT     H266393   6.806   7.139   5.936
22051WAT      O66394   7.946   5.087   4.566
22051WAT     H166395   7.875   5.045   4.623
22051WAT     H266396   7.950   5.185   4.585
22052WAT      O66397   1.468   7.499   5.581
22052WAT     H166398   1.426   7.411   5.562
22052WAT     H266399   1.567   7.492   5.570
22053WAT      O66400   8.829   4.986   8.377
22053WAT     H166401   8.761   4.936   8.323
22053WAT     H266402   8.911   5.002   8.321
22054WAT      O66403   3.880   0.363   4.063
22054WAT     H166404   3.832   0.447   4.087
22054WAT     H266405   3.871   0.347   3.964
22055WAT      O66406   9.875   1.703   1.390
22055WAT     H166407   9.891   1.784   1.335
22055WAT     H266408   9.934   1.628   1.358
22056WAT      O66409   9.256   7.471   8.455
22056WAT     H166410   9.311   7.473   8.539
22056WAT     H266411   9.287   7.544   8.394
22057WAT      O66412   9.294   1.218   4.380
22057WAT     H166413   9.384   1.182   4.353
22057WAT     H266414   9.223   1.163   4.337
22058WAT      O66415   6.791   9.688   5.602
22058WAT     H166416   6.849   9.768   5.615
22058WAT     H266417   6.785   9.636   5.686
22059WAT      O66418   1.091   4.931   0.503
22059WAT     H166419   1.165   4.889   0.557
22059WAT     H266420   1.031   4.859   0.468
22060WAT      O66421   1.275   5.082   9.146
22060WAT     H166422   1.185   5.040   9.130
22060WAT     H266423   1.274   5.176   9.110
22061WAT      O66424   4.479   6.118   0.278
22061WAT     H166425   4.513   6.187   0.342
22061WAT     H266426   4.455   6.161   0.191
22062WAT      O66427   6.506   9.093   8.795
22062WAT     H166428   6.418   9.141   8.796
22062WAT     H266429   6.578   9.155   8.824
22063WAT      O66430   5.773   9.117   0.253
22063WAT     H166431   5.866   9.118   0.218
22063WAT     H266432   5.743   9.211   0.271
22064WAT      O66433   5.158   5.798   5.140
22064WAT     H166434   5.202   5.732   5.078
22064WAT     H266435   5.215   5.811   5.221
22065WAT      O66436   0.204   4.034   4.908
22065WAT     H166437   0.185   4.103   4.978
22065WAT     H266438   0.292   3.991   4.927
22066WAT      O66439   9.674   9.051   4.767
22066WAT     H166440   9.608   9.049   4.843
22066WAT     H266441   9.631   9.093   4.687
22067WAT      O66442   1.351   3.386   2.084
22067WAT     H166443   1.395   3.300   2.059
22067WAT     H266444   1.419   3.458   2.091
22068WAT      O66445   1.100   5.893   1.756
22068WAT     H166446   1.067   5.964   1.818
22068WAT     H266447   1.199   5.900   1.746
22069WAT      O66448   1.204   3.247   7.603
22069WAT     H166449   1.224   3.149   7.615
22069WAT     H266450   1.135   3.275   7.670
22070WAT      O66451   1.735   0.826   5.069
22070WAT     H166452   1.831   0.800   5.082
22070WAT     H266453   1.676   0.752   5.101
22071WAT      O66454   7.300   6.723   9.071
22071WAT     H166455   7.280   6.821   9.072
22071WAT     H266456   7.396   6.709   9.047
22072WAT      O66457   5.089   5.899   4.185
22072WAT     H166458   5.076   5.884   4.283
22072WAT     H266459   5.122   5.992   4.169
22073WAT      O66460   1.092   0.328   4.881
22073WAT     H166461   1.183   0.350   4.915
22073WAT     H266462   1.098   0.287   4.791
22074WAT      O66463   9.734   4.597   4.890
22074WAT     H166464   9.740   4.696   4.906
22074WAT     H266465   9.717   4.550   4.977
22075WAT      O66466   9.097   3.129   1.987
22075WAT     H166467   9.197   3.132   1.981
22075WAT     H266468   9.067   3.034   1.993
22076WAT      O66469   9.195   1.708   0.212
22076WAT     H166470   9.147   1.635   0.261
22076WAT     H266471   9.207   1.786   0.273
22077WAT      O66472   0.162   9.803   4.486
22077WAT     H166473   0.173   9.780   4.389
22077WAT     H266474   0.148   9.901   4.495
22078WAT      O66475   8.996   9.112   8.084
22078WAT     H166476   9.009   9.209   8.105
22078WAT     H266477   9.036   9.092   7.995
22079WAT      O66478   4.785   7.404   0.098
22079WAT     H166479   4.816   7.488   0.143
22079WAT     H266480   4.851   7.376   0.029
22080WAT      O66481   2.305   5.617   5.106
22080WAT     H166482   2.257   5.596   5.191
22080WAT     H266483   2.240   5.654   5.039
22081WAT      O66484   4.231   1.034   9.196
22081WAT     H166485   4.182   1.045   9.282
22081WAT     H266486   4.246   0.937   9.178
22082WAT      O66487   3.703   6.547   2.223
22082WAT     H166488   3.746   6.457   2.238
22082WAT     H266489   3.753   6.616   2.274
22083WAT      O66490   7.259   1.376   9.032
22083WAT     H166491   7.213   1.298   8.991
22083WAT     H266492   7.326   1.413   8.968
22084WAT      O66493   2.842   4.037   1.979
22084WAT     H166494   2.851   3.944   1.945
22084WAT     H266495   2.824   4.036   2.077
22085WAT      O66496   7.486   1.692   9.286
22085WAT     H166497   7.528   1.603   9.303
22085WAT     H266498   7.497   1.751   9.366
22086WAT      O66499   1.642   1.629   1.706
22086WAT     H166500   1.605   1.551   1.655
22086WAT     H266501   1.610   1.714   1.665
22087WAT      O66502   7.497   2.381   5.558
22087WAT     H166503   7.546   2.467   5.569
22087WAT     H266504   7.559   2.313   5.516
22088WAT      O66505   9.839   4.659   3.442
22088WAT     H166506   9.806   4.753   3.454
22088WAT     H266507   9.764   4.595   3.456
22089WAT      O66508   3.801   1.986   5.705
22089WAT     H166509   3.728   2.049   5.730
22089WAT     H266510   3.762   1.896   5.683
22090WAT      O66511   0.535   1.564   0.857
22090WAT     H166512   0.518   1.652   0.902
22090WAT     H266513   0.613   1.573   0.795
22091WAT      O66514   3.778   1.008   5.825
22091WAT     H166515   3.759   0.929   5.767
22091WAT     H266516   3.704   1.021   5.890
22092WAT      O66517   1.978   6.021   4.051
22092WAT     H166518   2.009   5.958   3.979
22092WAT     H266519   2.053   6.081   4.078
22093WAT      O66520   2.749   0.230   7.132
22093WAT     H166521   2.709   0.151   7.085
22093WAT     H266522   2.684   0.306   7.130
22094WAT      O66523   4.613   5.095   0.800
22094WAT     H166524   4.526   5.098   0.750
22094WAT     H266525   4.596   5.065   0.893
22095WAT      O66526   5.581   8.221   6.072
22095WAT     H166527   5.655   8.160   6.045
22095WAT     H266528   5.515   8.230   5.997
22096WAT      O66529   4.804   8.891   3.598
22096WAT     H166530   4.849   8.848   3.520
22096WAT     H266531   4.725   8.836   3.626
22097WAT      O66532   8.528   9.280   4.639
22097WAT     H166533   8.466   9.210   4.674
22097WAT     H266534   8.476   9.352   4.594
22098WAT      O66535   1.303   6.743   3.967
22098WAT     H166536   1.338   6.706   3.881
22098WAT     H266537   1.373   6.734   4.038
22099WAT      O66538   4.775   6.173   8.132
22099WAT     H166539   4.760   6.085   8.176
22099WAT     H266540   4.868   6.177   8.096
22100WAT      O66541   8.227   6.707   4.242
22100WAT     H166542   8.128   6.713   4.230
22100WAT     H266543   8.252   6.746   4.331
22101WAT      O66544   7.748   1.984   4.706
22101WAT     H166545   7.803   2.068   4.699
22101WAT     H266546   7.783   1.916   4.643
22102WAT      O66547   4.516   7.980   5.852
22102WAT     H166548   4.610   7.951   5.829
22102WAT     H266549   4.513   8.010   5.947
22103WAT      O66550   9.291   5.908   5.315
22103WAT     H166551   9.279   5.860   5.402
22103WAT     H266552   9.387   5.935   5.305
22104WAT      O66553   9.839   5.150   0.630
22104WAT     H166554   9.933   5.182   0.642
22104WAT     H266555   9.780   5.197   0.695
22105WAT      O66556   8.829   9.386   5.539
22105WAT     H166557   8.913   9.363   5.588
22105WAT     H266558   8.835   9.353   5.445
22106WAT      O66559   3.115   1.213   3.318
22106WAT     H166560   3.052   1.139   3.295
22106WAT     H266561   3.182   1.180   3.384
22107WAT      O66562   8.606   8.546   3.694
22107WAT     H166563   8.537   8.544   3.767
22107WAT     H266564   8.681   8.605   3.721
22108WAT      O66565   0.299   8.697   6.952
22108WAT     H166566   0.391   8.735   6.941
22108WAT     H266567   0.238   8.736   6.884
22109WAT      O66568   4.998   5.774   7.360
22109WAT     H166569   4.960   5.852   7.409
22109WAT     H266570   4.995   5.693   7.418
22110WAT      O66571   9.577   8.822   4.661
22110WAT     H166572   9.500   8.851   4.604
22110WAT     H266573   9.623   8.903   4.698
22111WAT      O66574   7.756   7.938   0.013
22111WAT     H166575   7.769   7.839   0.009
22111WAT     H266576   7.719   7.962   0.103
22112WAT      O66577   7.527   6.298   8.112
22112WAT     H166578   7.545   6.362   8.186
22112WAT     H266579   7.608   6.242   8.096
22113WAT      O66580   1.669   9.421   0.518
22113WAT     H166581   1.769   9.420   0.521
22113WAT     H266582   1.638   9.361   0.444
22114WAT      O66583   3.193   7.641   6.703
22114WAT     H166584   3.258   7.650   6.779
22114WAT     H266585   3.244   7.631   6.617
22115WAT      O66586   0.304   3.170   1.258
22115WAT     H166587   0.294   3.110   1.178
22115WAT     H266588   0.395   3.211   1.258
22116WAT      O66589   0.557   1.399   7.741
22116WAT     H166590   0.631   1.341   7.774
22116WAT     H266591   0.566   1.413   7.642
22117WAT      O66592   3.389   3.943   7.497
22117WAT     H166593   3.315   3.884   7.528
22117WAT     H266594   3.433   3.902   7.417
22118WAT      O66595   2.024   0.064   4.793
22118WAT     H166596   2.041   0.133   4.863
22118WAT     H266597   2.069  -0.022   4.820
22119WAT      O66598   8.424   6.048   0.898
22119WAT     H166599   8.441   6.125   0.837
22119WAT     H266600   8.382   5.973   0.846
22120WAT      O66601   3.128   1.131   4.606
22120WAT     H166602   3.178   1.161   4.687
22120WAT     H266603   3.030   1.146   4.620
22121WAT      O66604   2.447   3.013   0.037
22121WAT     H166605   2.408   2.940  -0.020
22121WAT     H266606   2.443   3.099  -0.013
22122WAT      O66607   5.027   8.089   9.092
22122WAT     H166608   4.971   8.111   9.172
22122WAT     H266609   5.069   7.999   9.105
22123WAT      O66610   0.456   6.067   6.213
22123WAT     H166611   0.436   6.163   6.197
22123WAT     H266612   0.435   6.044   6.308
22124WAT      O66613   0.169   6.207   0.733
22124WAT     H166614   0.143   6.253   0.648
22124WAT     H266615   0.106   6.131   0.750
22125WAT      O66616   1.005   5.403   4.382
22125WAT     H166617   0.945   5.429   4.458
22125WAT     H266618   1.087   5.461   4.383
22126WAT      O66619   9.336   8.988   8.285
22126WAT     H166620   9.380   8.899   8.279
22126WAT     H266621   9.290   9.008   8.198
22127WAT      O66622   6.119   6.326   0.891
22127WAT     H166623   6.215   6.299   0.892
22127WAT     H266624   6.092   6.360   0.981
22128WAT      O66625   8.063   8.263   5.612
22128WAT     H166626   8.140   8.200   5.621
22128WAT     H266627   8.001   8.250   5.689
22129WAT      O66628   4.400   9.578   3.512
22129WAT     H166629   4.401   9.497   3.570
22129WAT     H266630   4.484   9.580   3.456
22130WAT      O66631   2.514   5.125   6.933
22130WAT     H166632   2.589   5.075   6.977
22130WAT     H266633   2.454   5.060   6.886
22131WAT      O66634   3.832   1.642   3.869
22131WAT     H166635   3.890   1.562   3.852
22131WAT     H266636   3.737   1.612   3.878
22132WAT      O66637   0.753   4.727   3.991
22132WAT     H166638   0.756   4.798   4.061
22132WAT     H266639   0.705   4.761   3.911
22133WAT      O66640   5.682   9.813   8.080
22133WAT     H166641   5.621   9.734   8.087
22133WAT     H266642   5.775   9.782   8.060
22134WAT      O66643   1.755   5.530   9.699
22134WAT     H166644   1.717   5.438   9.692
22134WAT     H266645   1.685   5.596   9.671
22135WAT      O66646   4.382   7.920   0.362
22135WAT     H166647   4.400   7.826   0.332
22135WAT     H266648   4.362   7.920   0.460
22136WAT      O66649   8.838   8.724   0.005
22136WAT     H166650   8.776   8.666   0.058
22136WAT     H266651   8.925   8.677  -0.008
22137WAT      O66652   3.903   2.469   1.569
22137WAT     H166653   3.997   2.441   1.551
22137WAT     H266654   3.902   2.538   1.642
22138WAT      O66655   4.715   1.253   4.808
22138WAT     H166656   4.616   1.270   4.801
22138WAT     H266657   4.730   1.158   4.837
22139WAT      O66658   3.595   0.160   3.165
22139WAT     H166659   3.636   0.199   3.248
22139WAT     H266660   3.659   0.169   3.089
22140WAT      O66661   3.718   8.910   7.100
22140WAT     H166662   3.655   8.959   7.160
22140WAT     H266663   3.677   8.825   7.069
22141WAT      O66664   1.100   3.741   4.937
22141WAT     H166665   1.089   3.643   4.921
22141WAT     H266666   1.120   3.787   4.851
22142WAT      O66667   2.655   1.013   0.178
22142WAT     H166668   2.603   0.962   0.109
22142WAT     H266669   2.741   0.966   0.198
22143WAT      O66670   5.515   4.536   2.240
22143WAT     H166671   5.525   4.451   2.292
22143WAT     H266672   5.546   4.523   2.146
22144WAT      O66673   8.085   7.356   8.754
22144WAT     H166674   8.131   7.267   8.751
22144WAT     H266675   8.071   7.383   8.850
22145WAT      O66676   4.785   6.180   2.664
22145WAT     H166677   4.718   6.152   2.595
22145WAT     H266678   4.777   6.279   2.679
22146WAT      O66679   3.695   2.989   1.802
22146WAT     H166680   3.674   2.926   1.727
22146WAT     H266681   3.610   3.023   1.843
22147WAT      O66682   7.639   1.928   6.939
22147WAT     H166683   7.610   1.851   6.882
22147WAT     H266684   7.738   1.928   6.947
22148WAT      O66685   0.931   0.240   4.598
22148WAT     H166686   0.999   0.181   4.643
22148WAT     H266687   0.969   0.332   4.587
22149WAT      O66688   8.557   6.710   9.056
22149WAT     H166689   8.527   6.732   9.149
22149WAT     H266690   8.620   6.633   9.059
22150WAT      O66691   2.019   9.051   5.408
22150WAT     H166692   1.928   9.018   5.432
22150WAT     H266693   2.046   9.125   5.470
22151WAT      O66694   9.247   2.248   6.383
22151WAT     H166695   9.338   2.265   6.345
22151WAT     H266696   9.236   2.151   6.403
22152WAT      O66697   8.433   3.871   9.244
22152WAT     H166698   8.486   3.836   9.321
22152WAT     H266699   8.486   3.941   9.195
22153WAT      O66700   4.526   5.811   2.740
22153WAT     H166701   4.447   5.769   2.783
22153WAT     H266702   4.517   5.806   2.640
22154WAT      O66703   8.978   9.447   7.721
22154WAT     H166704   9.058   9.390   7.702
22154WAT     H266705   9.000   9.543   7.704
22155WAT      O66706   7.582   5.697   2.087
22155WAT     H166707   7.583   5.597   2.084
22155WAT     H266708   7.495   5.730   2.050
22156WAT      O66709   1.945   4.020   3.486
22156WAT     H166710   1.958   3.921   3.489
22156WAT     H266711   2.013   4.061   3.425
22157WAT      O66712   8.166   4.725   2.544
22157WAT     H166713   8.170   4.646   2.483
22157WAT     H266714   8.171   4.810   2.490
22158WAT      O66715   3.202   1.012   5.288
22158WAT     H166716   3.276   1.059   5.337
22158WAT     H266717   3.209   0.914   5.304
22159WAT      O66718   1.176   6.411   6.390
22159WAT     H166719   1.203   6.491   6.444
22159WAT     H266720   1.081   6.387   6.411
22160WAT      O66721   0.176   2.104   1.808
22160WAT     H166722   0.155   2.190   1.855
22160WAT     H266723   0.254   2.060   1.852
22161WAT      O66724   6.778   9.540   5.851
22161WAT     H166725   6.828   9.585   5.924
22161WAT     H266726   6.680   9.561   5.860
22162WAT      O66727   3.789   3.367   8.300
22162WAT     H166728   3.808   3.396   8.393
22162WAT     H266729   3.752   3.274   8.301
22163WAT      O66730   0.237   8.592   0.254
22163WAT     H166731   0.289   8.660   0.204
22163WAT     H266732   0.162   8.636   0.303
22164WAT      O66733   4.575   1.168   6.556
22164WAT     H166734   4.546   1.150   6.462
22164WAT     H266735   4.505   1.223   6.602
22165WAT      O66736   7.132   8.969   1.241
22165WAT     H166737   7.163   8.929   1.155
22165WAT     H266738   7.202   9.032   1.276
22166WAT      O66739   4.333   8.575   6.505
22166WAT     H166740   4.323   8.647   6.574
22166WAT     H266741   4.428   8.543   6.504
22167WAT      O66742   1.179   5.808   3.757
22167WAT     H166743   1.195   5.713   3.783
22167WAT     H266744   1.166   5.814   3.658
22168WAT      O66745   2.916   3.499   4.342
22168WAT     H166746   2.948   3.545   4.260
22168WAT     H266747   2.907   3.401   4.324
22169WAT      O66748   3.310   9.590   1.052
22169WAT     H166749   3.228   9.559   1.004
22169WAT     H266750   3.300   9.686   1.078
22170WAT      O66751   0.679   4.159   8.193
22170WAT     H166752   0.728   4.072   8.201
22170WAT     H266753   0.583   4.141   8.170
22171WAT      O66754   8.446   6.007   9.112
22171WAT     H166755   8.493   5.943   9.052
22171WAT     H266756   8.443   6.098   9.070
22172WAT      O66757   5.116   6.133   8.509
22172WAT     H166758   5.168   6.090   8.583
22172WAT     H266759   5.164   6.120   8.423
22173WAT      O66760   3.419   2.940   9.422
22173WAT     H166761   3.427   2.878   9.500
22173WAT     H266762   3.502   2.996   9.415
22174WAT      O66763   1.247   4.691   2.851
22174WAT     H166764   1.240   4.644   2.763
22174WAT     H266765   1.330   4.662   2.898
22175WAT      O66766   3.294   9.556   8.864
22175WAT     H166767   3.330   9.473   8.906
22175WAT     H266768   3.198   9.542   8.839
22176WAT      O66769   6.020   3.339   7.491
22176WAT     H166770   6.114   3.306   7.504
22176WAT     H266771   6.002   3.348   7.393
22177WAT      O66772   3.446   6.749   2.364
22177WAT     H166773   3.520   6.788   2.310
22177WAT     H266774   3.479   6.666   2.410
22178WAT      O66775   7.404   0.580   1.216
22178WAT     H166776   7.373   0.661   1.165
22178WAT     H266777   7.503   0.585   1.227
22179WAT      O66778   5.185   9.077   0.664
22179WAT     H166779   5.112   9.095   0.598
22179WAT     H266780   5.236   8.996   0.634
22180WAT      O66781   0.488   2.502   4.381
22180WAT     H166782   0.541   2.492   4.297
22180WAT     H266783   0.537   2.561   4.445
22181WAT      O66784   9.027   6.272   3.228
22181WAT     H166785   8.969   6.217   3.288
22181WAT     H266786   8.984   6.280   3.139
22182WAT      O66787   8.799   5.247   5.588
22182WAT     H166788   8.702   5.271   5.583
22182WAT     H266789   8.817   5.168   5.530
22183WAT      O66790   2.271   0.157   0.415
22183WAT     H166791   2.171   0.154   0.409
22183WAT     H266792   2.308   0.205   0.336
22184WAT      O66793   5.406   9.582   1.286
22184WAT     H166794   5.388   9.621   1.196
22184WAT     H266795   5.415   9.483   1.278
22185WAT      O66796   6.764   2.268   8.231
22185WAT     H166797   6.724   2.253   8.141
22185WAT     H266798   6.691   2.275   8.300
22186WAT      O66799   4.096   5.885   3.145
22186WAT     H166800   4.076   5.950   3.219
22186WAT     H266801   4.182   5.910   3.101
22187WAT      O66802   0.851   1.311   6.096
22187WAT     H166803   0.789   1.356   6.033
22187WAT     H266804   0.800   1.250   6.156
22188WAT      O66805   1.188   2.275   5.810
22188WAT     H166806   1.195   2.283   5.711
22188WAT     H266807   1.211   2.363   5.852
22189WAT      O66808   5.239   2.239   5.773
22189WAT     H166809   5.339   2.244   5.781
22189WAT     H266810   5.205   2.166   5.833
22190WAT      O66811   1.408   0.816   8.498
22190WAT     H166812   1.408   0.806   8.399
22190WAT     H266813   1.494   0.859   8.527
22191WAT      O66814   0.665   4.434   8.165
22191WAT     H166815   0.666   4.334   8.167
22191WAT     H266816   0.690   4.465   8.074
22192WAT      O66817   4.256   0.420   8.964
22192WAT     H166818   4.212   0.506   8.989
22192WAT     H266819   4.212   0.382   8.882
22193WAT      O66820   6.929   9.080   2.046
22193WAT     H166821   6.965   9.013   2.110
22193WAT     H266822   7.004   9.133   2.006
22194WAT      O66823   7.647   6.534   1.384
22194WAT     H166824   7.651   6.513   1.481
22194WAT     H266825   7.614   6.454   1.334
22195WAT      O66826   9.279   5.524   3.086
22195WAT     H166827   9.371   5.561   3.100
22195WAT     H266828   9.284   5.439   3.034
22196WAT      O66829   6.990   8.567   4.519
22196WAT     H166830   7.021   8.491   4.576
22196WAT     H266831   6.891   8.562   4.506
22197WAT      O66832   1.336   7.444   3.282
22197WAT     H166833   1.380   7.393   3.356
22197WAT     H266834   1.405   7.481   3.220
22198WAT      O66835   6.819   8.756   7.378
22198WAT     H166836   6.861   8.772   7.467
22198WAT     H266837   6.719   8.750   7.389
22199WAT      O66838   8.224   4.660   7.618
22199WAT     H166839   8.282   4.638   7.696
22199WAT     H266840   8.128   4.666   7.649
22200WAT      O66841   7.473   7.077   3.442
22200WAT     H166842   7.553   7.121   3.400
22200WAT     H266843   7.494   7.053   3.537
22201WAT      O66844   0.220   4.899   2.210
22201WAT     H166845   0.184   4.921   2.120
22201WAT     H266846   0.320   4.891   2.205
22202WAT      O66847   8.519   5.992   1.138
22202WAT     H166848   8.520   5.996   1.038
22202WAT     H266849   8.477   5.906   1.167
22203WAT      O66850   2.703   2.501   0.837
22203WAT     H166851   2.761   2.463   0.766
22203WAT     H266852   2.748   2.490   0.926
22204WAT      O66853   9.441   6.099   8.536
22204WAT     H166854   9.494   6.033   8.589
22204WAT     H266855   9.443   6.072   8.439
22205WAT      O66856   1.567   2.934   5.081
22205WAT     H166857   1.522   2.877   5.150
22205WAT     H266858   1.637   2.990   5.125
22206WAT      O66859   9.465   0.316   0.785
22206WAT     H166860   9.450   0.293   0.881
22206WAT     H266861   9.402   0.389   0.759
22207WAT      O66862   4.845   0.065   4.614
22207WAT     H166863   4.888   0.006   4.546
22207WAT     H266864   4.858   0.161   4.588
22208WAT      O66865   4.772   1.579   6.421
22208WAT     H166866   4.721   1.603   6.339
22208WAT     H266867   4.822   1.659   6.454
22209WAT      O66868   5.811   5.878   4.868
22209WAT     H166869   5.801   5.882   4.769
22209WAT     H266870   5.768   5.795   4.903
22210WAT      O66871   7.323   3.985   1.670
22210WAT     H166872   7.360   4.076   1.650
22210WAT     H266873   7.251   3.963   1.605
22211WAT      O66874   0.619   3.832   9.113
22211WAT     H166875   0.571   3.891   9.178
22211WAT     H266876   0.557   3.761   9.080
22212WAT      O66877   9.857   0.995   7.728
22212WAT     H166878   9.887   0.910   7.684
22212WAT     H266879   9.766   0.982   7.766
22213WAT      O66880   5.415   0.603   1.227
22213WAT     H166881   5.397   0.634   1.134
22213WAT     H266882   5.386   0.507   1.236
22214WAT      O66883   6.376   6.470   4.844
22214WAT     H166884   6.295   6.413   4.855
22214WAT     H266885   6.378   6.506   4.751
22215WAT      O66886   4.800   4.313   6.990
22215WAT     H166887   4.867   4.348   6.925
22215WAT     H266888   4.726   4.267   6.940
22216WAT      O66889   7.509   8.062   9.675
22216WAT     H166890   7.537   8.033   9.766
22216WAT     H266891   7.526   8.160   9.664
22217WAT      O66892   0.607   9.304   8.641
22217WAT     H166893   0.512   9.304   8.673
22217WAT     H266894   0.620   9.231   8.574
22218WAT      O66895   1.307   2.795   9.687
22218WAT     H166896   1.273   2.701   9.689
22218WAT     H266897   1.230   2.858   9.679
22219WAT      O66898   7.581   1.931   2.876
22219WAT     H166899   7.557   2.028   2.877
22219WAT     H266900   7.597   1.899   2.969
22220WAT      O66901   3.852   2.766   8.586
22220WAT     H166902   3.848   2.666   8.579
22220WAT     H266903   3.779   2.799   8.645
22221WAT      O66904   0.291   7.515   7.128
22221WAT     H166905   0.308   7.577   7.204
22221WAT     H266906   0.238   7.436   7.160
22222WAT      O66907   7.015   6.924   1.547
22222WAT     H166908   7.096   6.866   1.537
22222WAT     H266909   7.034   6.994   1.616
22223WAT      O66910   5.051   3.460   8.387
22223WAT     H166911   4.957   3.425   8.380
22223WAT     H266912   5.054   3.534   8.455
22224WAT      O66913   0.584   4.762   6.904
22224WAT     H166914   0.509   4.700   6.928
22224WAT     H266915   0.568   4.851   6.947
22225WAT      O66916   7.676   5.625   7.931
22225WAT     H166917   7.591   5.658   7.974
22225WAT     H266918   7.746   5.696   7.937
22226WAT      O66919   9.537   0.547   2.568
22226WAT     H166920   9.630   0.574   2.543
22226WAT     H266921   9.530   0.541   2.668
22227WAT      O66922   7.608   9.814   6.513
22227WAT     H166923   7.562   9.838   6.598
22227WAT     H266924   7.580   9.722   6.484
22228WAT      O66925   5.457   2.815   9.623
22228WAT     H166926   5.538   2.761   9.600
22228WAT     H266927   5.439   2.881   9.550
22229WAT      O66928   4.541   4.094   1.265
22229WAT     H166929   4.581   4.003   1.269
22229WAT     H266930   4.441   4.087   1.265
22230WAT      O66931   7.425   0.860   3.220
22230WAT     H166932   7.361   0.926   3.181
22230WAT     H266933   7.419   0.862   3.320
22231WAT      O66934   5.239   6.712   3.917
22231WAT     H166935   5.160   6.664   3.880
22231WAT     H266936   5.273   6.777   3.849
22232WAT      O66937   0.797   9.707   5.829
22232WAT     H166938   0.781   9.717   5.731
22232WAT     H266939   0.726   9.756   5.879
22233WAT      O66940   9.138   8.809   9.831
22233WAT     H166941   9.088   8.887   9.868
22233WAT     H266942   9.088   8.771   9.752
22234WAT      O66943   6.453   8.479   3.071
22234WAT     H166944   6.396   8.406   3.109
22234WAT     H266945   6.411   8.568   3.091
22235WAT      O66946   8.662   3.471   6.349
22235WAT     H166947   8.702   3.422   6.272
22235WAT     H266948   8.727   3.475   6.424
22236WAT      O66949   1.709   6.700   6.125
22236WAT     H166950   1.720   6.790   6.165
22236WAT     H266951   1.629   6.655   6.163
22237WAT      O66952   7.443   4.150   0.838
22237WAT     H166953   7.433   4.071   0.898
22237WAT     H266954   7.446   4.120   0.743
22238WAT      O66955   7.203   4.497   8.115
22238WAT     H166956   7.147   4.468   8.193
22238WAT     H266957   7.295   4.458   8.124
22239WAT      O66958   2.334   9.464   0.926
22239WAT     H166959   2.313   9.367   0.912
22239WAT     H266960   2.260   9.506   0.980
22240WAT      O66961   9.529   2.887   6.420
22240WAT     H166962   9.493   2.796   6.399
22240WAT     H266963   9.623   2.878   6.455
22241WAT      O66964   8.697   2.690   2.963
22241WAT     H166965   8.666   2.595   2.952
22241WAT     H266966   8.795   2.695   2.945
22242WAT      O66967   3.327   1.197   6.389
22242WAT     H166968   3.408   1.251   6.366
22242WAT     H266969   3.309   1.206   6.487
22243WAT      O66970   0.264   9.380   2.158
22243WAT     H166971   0.200   9.397   2.083
22243WAT     H266972   0.242   9.292   2.201
22244WAT      O66973   5.701   5.732   2.209
22244WAT     H166974   5.724   5.689   2.296
22244WAT     H266975   5.748   5.820   2.202
22245WAT      O66976   6.259   4.378   7.510
22245WAT     H166977   6.337   4.418   7.461
22245WAT     H266978   6.179   4.438   7.500
22246WAT      O66979   1.124   7.857   5.375
22246WAT     H166980   1.172   7.771   5.392
22246WAT     H266981   1.183   7.934   5.400
22247WAT      O66982   7.364   1.549   4.525
22247WAT     H166983   7.312   1.480   4.475
22247WAT     H266984   7.389   1.513   4.615
22248WAT      O66985   5.087   2.769   3.023
22248WAT     H166986   5.033   2.685   3.023
22248WAT     H266987   5.150   2.768   2.946
22249WAT      O66988   0.782   8.576   2.568
22249WAT     H166989   0.861   8.608   2.620
22249WAT     H266990   0.699   8.619   2.604
22250WAT      O66991   3.789   2.726   0.837
22250WAT     H166992   3.886   2.708   0.849
22250WAT     H266993   3.739   2.689   0.916
22251WAT      O66994   4.744   3.812   3.835
22251WAT     H166995   4.802   3.880   3.879
22251WAT     H266996   4.689   3.765   3.904
22252WAT      O66997   2.686   0.153   3.836
22252WAT     H166998   2.658   0.113   3.749
22252WAT     H266999   2.698   0.081   3.904
22253WAT      O67000   1.474   8.650   8.369
22253WAT     H167001   1.490   8.702   8.453
22253WAT     H267002   1.560   8.639   8.319
22254WAT      O67003   9.153   0.362   1.792
22254WAT     H167004   9.104   0.448   1.777
22254WAT     H267005   9.209   0.341   1.711
22255WAT      O67006   7.523   0.359   7.290
22255WAT     H167007   7.426   0.350   7.315
22255WAT     H267008   7.530   0.391   7.196
22256WAT      O67009   1.259   7.614   1.686
22256WAT     H167010   1.248   7.701   1.733
22256WAT     H267011   1.173   7.588   1.642
22257WAT      O67012   2.535   8.555   3.304
22257WAT     H167013   2.525   8.636   3.247
22257WAT     H267014   2.455   8.546   3.364
22258WAT      O67015   7.071   8.365   7.912
22258WAT     H167016   7.112   8.449   7.947
22258WAT     H267017   7.080   8.362   7.813
22259WAT      O67018   1.504   0.748   7.096
22259WAT     H167019   1.603   0.752   7.112
22259WAT     H267020   1.487   0.753   6.998
22260WAT      O67021   6.661   3.797   0.224
22260WAT     H167022   6.666   3.877   0.283
22260WAT     H267023   6.616   3.722   0.273
22261WAT      O67024   0.041   7.398   8.433
22261WAT     H167025   0.078   7.472   8.490
22261WAT     H267026  -0.047   7.427   8.395
22262WAT      O67027   4.514   6.542   2.770
22262WAT     H167028   4.596   6.515   2.720
22262WAT     H267029   4.534   6.545   2.868
22263WAT      O67030   0.038   7.277   9.253
22263WAT     H167031   0.018   7.211   9.181
22263WAT     H267032   0.082   7.231   9.330
22264WAT      O67033   3.903   6.111   9.702
22264WAT     H167034   3.899   6.185   9.770
22264WAT     H267035   3.810   6.078   9.684
22265WAT      O67036   3.020   6.773   6.621
22265WAT     H167037   2.924   6.794   6.603
22265WAT     H267038   3.064   6.852   6.665
22266WAT      O67039   7.658   8.660   0.367
22266WAT     H167040   7.739   8.606   0.385
22266WAT     H267041   7.654   8.684   0.269
22267WAT      O67042   4.452   2.956   0.235
22267WAT     H167043   4.469   2.987   0.142
22267WAT     H267044   4.428   3.034   0.293
22268WAT      O67045   6.202   2.303   1.740
22268WAT     H167046   6.237   2.252   1.818
22268WAT     H267047   6.274   2.310   1.670
22269WAT      O67048   2.376   5.502   6.713
22269WAT     H167049   2.310   5.508   6.789
22269WAT     H267050   2.463   5.468   6.748
22270WAT      O67051   3.893   9.621   3.621
22270WAT     H167052   3.974   9.625   3.562
22270WAT     H267053   3.884   9.707   3.671
22271WAT      O67054   3.798   7.335   7.108
22271WAT     H167055   3.726   7.360   7.043
22271WAT     H267056   3.766   7.260   7.166
22272WAT      O67057   6.393   3.131   2.451
22272WAT     H167058   6.368   3.196   2.381
22272WAT     H267059   6.447   3.177   2.522
22273WAT      O67060   8.276   3.090   2.733
22273WAT     H167061   8.194   3.034   2.742
22273WAT     H267062   8.338   3.070   2.809
22274WAT      O67063   4.974   8.576   2.338
22274WAT     H167064   4.896   8.625   2.376
22274WAT     H267065   5.053   8.587   2.397
22275WAT      O67066   5.589   4.069   1.681
22275WAT     H167067   5.529   4.149   1.691
22275WAT     H267068   5.543   3.999   1.627
22276WAT      O67069   4.933   9.225   1.052
22276WAT     H167070   4.846   9.218   1.101
22276WAT     H267071   5.008   9.222   1.117
22277WAT      O67072   9.103   3.594   3.062
22277WAT     H167073   9.193   3.552   3.045
22277WAT     H267074   9.033   3.544   3.010
22278WAT      O67075   5.337   1.294   7.728
22278WAT     H167076   5.421   1.269   7.681
22278WAT     H267077   5.359   1.351   7.807
22279WAT      O67078   0.190   9.094   5.301
22279WAT     H167079   0.283   9.129   5.313
22279WAT     H267080   0.194   9.009   5.248
22280WAT      O67081   2.219   6.675   4.328
22280WAT     H167082   2.237   6.769   4.357
22280WAT     H267083   2.132   6.670   4.280
22281WAT      O67084   1.747   5.768   1.979
22281WAT     H167085   1.820   5.781   1.912
22281WAT     H267086   1.675   5.710   1.940
22282WAT      O67087   5.438   6.909   3.147
22282WAT     H167088   5.507   6.980   3.132
22282WAT     H267089   5.424   6.896   3.245
22283WAT      O67090   0.577   2.734   8.238
22283WAT     H167091   0.577   2.762   8.333
22283WAT     H267092   0.522   2.651   8.227
22284WAT      O67093   9.057   0.562   6.643
22284WAT     H167094   8.992   0.488   6.623
22284WAT     H267095   9.099   0.546   6.732
22285WAT      O67096   9.364   5.519   4.837
22285WAT     H167097   9.455   5.559   4.851
22285WAT     H267098   9.297   5.568   4.894
22286WAT      O67099   4.943   2.973   9.591
22286WAT     H167100   4.942   2.916   9.509
22286WAT     H267101   4.933   3.069   9.566
22287WAT      O67102   9.110   7.054   8.161
22287WAT     H167103   9.061   7.057   8.249
22287WAT     H267104   9.044   7.060   8.086
22288WAT      O67105   6.843   3.373   9.067
22288WAT     H167106   6.902   3.327   9.134
22288WAT     H267107   6.878   3.465   9.051
22289WAT      O67108   6.360   1.474   5.104
22289WAT     H167109   6.328   1.464   5.199
22289WAT     H267110   6.361   1.571   5.080
22290WAT      O67111   4.498   7.205   5.876
22290WAT     H167112   4.484   7.135   5.946
22290WAT     H267113   4.573   7.177   5.816
22291WAT      O67114   3.326   9.285   5.008
22291WAT     H167115   3.266   9.343   4.953
22291WAT     H267116   3.281   9.197   5.025
22292WAT      O67117   5.834   8.605   0.918
22292WAT     H167118   5.860   8.509   0.926
22292WAT     H267119   5.855   8.638   0.826
22293WAT      O67120   9.272   6.313   8.543
22293WAT     H167121   9.332   6.244   8.503
22293WAT     H267122   9.327   6.380   8.592
22294WAT      O67123   3.041   7.996   9.105
22294WAT     H167124   2.943   7.992   9.126
22294WAT     H267125   3.056   8.064   9.033
22295WAT      O67126   4.197   5.341   7.940
22295WAT     H167127   4.105   5.335   7.903
22295WAT     H267128   4.257   5.387   7.874
22296WAT      O67129   0.684   3.039   2.583
22296WAT     H167130   0.651   3.035   2.489
22296WAT     H267131   0.724   3.129   2.601
22297WAT      O67132   9.787   6.243   6.862
22297WAT     H167133   9.817   6.160   6.814
22297WAT     H267134   9.802   6.232   6.961
22298WAT      O67135   9.043   1.188   5.463
22298WAT     H167136   8.960   1.182   5.408
22298WAT     H267137   9.029   1.142   5.551
22299WAT      O67138   6.606   5.374   0.932
22299WAT     H167139   6.557   5.352   0.848
22299WAT     H267140   6.681   5.437   0.912
22300WAT      O67141   6.672   6.859   5.254
22300WAT     H167142   6.620   6.788   5.301
22300WAT     H267143   6.679   6.940   5.312
22301WAT      O67144   2.684   2.605   0.199
22301WAT     H167145   2.684   2.514   0.240
22301WAT     H267146   2.657   2.673   0.267
22302WAT      O67147   8.764   8.363   8.312
22302WAT     H167148   8.668   8.336   8.321
22302WAT     H267149   8.818   8.317   8.382
22303WAT      O67150   8.014   3.027   9.364
22303WAT     H167151   8.076   2.949   9.366
22303WAT     H267152   8.056   3.101   9.311
22304WAT      O67153   6.357   3.671   8.817
22304WAT     H167154   6.386   3.694   8.724
22304WAT     H267155   6.342   3.572   8.824
22305WAT      O67156   4.818   6.387   7.856
22305WAT     H167157   4.793   6.429   7.769
22305WAT     H267158   4.902   6.429   7.890
22306WAT      O67159   8.003   3.394   1.994
22306WAT     H167160   7.992   3.364   1.899
22306WAT     H267161   8.079   3.460   1.999
22307WAT      O67162   3.729   6.215   8.609
22307WAT     H167163   3.771   6.256   8.528
22307WAT     H267164   3.659   6.276   8.646
22308WAT      O67165   1.801   8.660   1.477
22308WAT     H167166   1.831   8.664   1.572
22308WAT     H267167   1.879   8.637   1.419
22309WAT      O67168   3.480   8.158   8.457
22309WAT     H167169   3.473   8.167   8.557
22309WAT     H267170   3.574   8.176   8.429
22310WAT      O67171   4.548   7.443   6.484
22310WAT     H167172   4.499   7.468   6.568
22310WAT     H267173   4.616   7.514   6.463
22311WAT      O67174   8.641   7.713   2.837
22311WAT     H167175   8.718   7.717   2.773
22311WAT     H267176   8.566   7.661   2.796
22312WAT      O67177   5.219   2.117   4.154
22312WAT     H167178   5.241   2.020   4.161
22312WAT     H267179   5.123   2.132   4.180
22313WAT      O67180   2.279   2.402   2.225
22313WAT     H167181   2.201   2.455   2.258
22313WAT     H267182   2.292   2.322   2.283
22314WAT      O67183   4.228   5.053   6.228
22314WAT     H167184   4.149   5.072   6.287
22314WAT     H267185   4.231   4.956   6.206
22315WAT      O67186   5.458   4.223   6.665
22315WAT     H167187   5.478   4.140   6.717
22315WAT     H267188   5.359   4.229   6.650
22316WAT      O67189   8.303   2.005   5.222
22316WAT     H167190   8.343   1.914   5.219
22316WAT     H267191   8.352   2.062   5.288
22317WAT      O67192   6.699   4.812   4.939
22317WAT     H167193   6.678   4.733   4.882
22317WAT     H267194   6.619   4.873   4.944
22318WAT      O67195   5.390   4.966   2.763
22318WAT     H167196   5.293   4.966   2.786
22318WAT     H267197   5.432   5.051   2.794
22319WAT      O67198   2.845   8.667   7.002
22319WAT     H167199   2.745   8.674   6.998
22319WAT     H267200   2.871   8.575   7.030
22320WAT      O67201   7.616   4.638   5.014
22320WAT     H167202   7.660   4.580   4.945
22320WAT     H267203   7.526   4.602   5.035
22321WAT      O67204   2.419   2.761   3.181
22321WAT     H167205   2.335   2.785   3.133
22321WAT     H267206   2.496   2.767   3.118
22322WAT      O67207   7.075   4.668   4.847
22322WAT     H167208   7.023   4.605   4.789
22322WAT     H267209   7.160   4.692   4.802
22323WAT      O67210   2.002   0.042   6.256
22323WAT     H167211   2.098   0.044   6.228
22323WAT     H267212   1.995   0.012   6.350
22324WAT      O67213   2.561   5.397   9.518
22324WAT     H167214   2.647   5.433   9.553
22324WAT     H267215   2.528   5.324   9.578
22325WAT      O67216   9.162   1.609   8.615
22325WAT     H167217   9.064   1.596   8.630
22325WAT     H267218   9.190   1.696   8.655
22326WAT      O67219   7.886   2.480   9.652
22326WAT     H167220   7.800   2.432   9.633
22326WAT     H267221   7.944   2.423   9.711
22327WAT      O67222   2.704   5.584   1.619
22327WAT     H167223   2.732   5.628   1.704
22327WAT     H267224   2.638   5.512   1.638
22328WAT      O67225   3.674   6.869   5.906
22328WAT     H167226   3.723   6.884   5.820
22328WAT     H267227   3.693   6.777   5.941
22329WAT      O67228   0.883   2.370   7.694
22329WAT     H167229   0.913   2.307   7.623
22329WAT     H267230   0.808   2.426   7.659
22330WAT      O67231   6.096   5.210   2.476
22330WAT     H167232   6.124   5.173   2.565
22330WAT     H267233   6.161   5.280   2.447
22331WAT      O67234   3.544   1.669   9.166
22331WAT     H167235   3.494   1.657   9.251
22331WAT     H267236   3.554   1.767   9.146
22332WAT      O67237   3.036   7.135   5.966
22332WAT     H167238   3.134   7.149   5.959
22332WAT     H267239   3.017   7.052   6.018
22333WAT      O67240   4.499   6.211   9.012
22333WAT     H167241   4.424   6.185   9.073
22333WAT     H267242   4.540   6.296   9.045
22334WAT      O67243   5.513   4.761   5.649
22334WAT     H167244   5.490   4.739   5.744
22334WAT     H267245   5.581   4.835   5.649
22335WAT      O67246   9.714   8.214   9.262
22335WAT     H167247   9.784   8.181   9.198
22335WAT     H267248   9.727   8.171   9.351
22336WAT      O67249   4.091   8.428   3.565
22336WAT     H167250   4.065   8.363   3.637
22336WAT     H267251   4.181   8.403   3.529
22337WAT      O67252   9.845   5.558   1.981
22337WAT     H167253   9.802   5.500   1.913
22337WAT     H267254   9.858   5.507   2.066
22338WAT      O67255   0.705   3.125   7.940
22338WAT     H167256   0.756   3.180   8.007
22338WAT     H267257   0.727   3.028   7.953
22339WAT      O67258   1.454   6.290   5.078
22339WAT     H167259   1.457   6.368   5.016
22339WAT     H267260   1.475   6.321   5.171
22340WAT      O67261   0.211   6.655   3.858
22340WAT     H167262   0.283   6.627   3.794
22340WAT     H267263   0.150   6.720   3.813
22341WAT      O67264   3.648   6.354   3.334
22341WAT     H167265   3.631   6.450   3.311
22341WAT     H267266   3.671   6.346   3.431
22342WAT      O67267   0.325   3.817   1.353
22342WAT     H167268   0.344   3.898   1.409
22342WAT     H267269   0.366   3.830   1.262
22343WAT      O67270   5.260   5.873   3.202
22343WAT     H167271   5.197   5.942   3.237
22343WAT     H267272   5.251   5.868   3.102
22344WAT      O67273   6.146   2.029   9.373
22344WAT     H167274   6.069   2.024   9.436
22344WAT     H267275   6.156   1.941   9.326
22345WAT      O67276   8.854   9.821   3.511
22345WAT     H167277   8.799   9.826   3.594
22345WAT     H267278   8.948   9.798   3.534
22346WAT      O67279   4.106   4.637   7.232
22346WAT     H167280   4.023   4.582   7.229
22346WAT     H267281   4.186   4.577   7.227
22347WAT      O67282   6.481   3.986   1.709
22347WAT     H167283   6.384   3.985   1.686
22347WAT     H267284   6.535   3.967   1.626
22348WAT      O67285   0.186   2.785   2.162
22348WAT     H167286   0.121   2.711   2.141
22348WAT     H267287   0.136   2.871   2.171
22349WAT      O67288   3.397   4.712   7.126
22349WAT     H167289   3.403   4.727   7.027
22349WAT     H267290   3.456   4.778   7.173
22350WAT      O67291   4.802   3.399   6.038
22350WAT     H167292   4.859   3.341   6.097
22350WAT     H267293   4.741   3.341   5.984
22351WAT      O67294   6.510   9.093   9.241
22351WAT     H167295   6.458   9.041   9.173
22351WAT     H267296   6.514   9.041   9.326
22352WAT      O67297   4.179   2.132   6.993
22352WAT     H167298   4.253   2.094   6.938
22352WAT     H267299   4.093   2.087   6.971
22353WAT      O67300   8.189   6.959   9.871
22353WAT     H167301   8.114   7.007   9.917
22353WAT     H267302   8.272   7.013   9.877
22354WAT      O67303   5.694   4.392   9.338
22354WAT     H167304   5.606   4.365   9.376
22354WAT     H267305   5.680   4.436   9.249
22355WAT      O67306   1.215   2.007   4.861
22355WAT     H167307   1.268   1.988   4.779
22355WAT     H267308   1.120   2.024   4.836
22356WAT      O67309   8.033   8.323   6.833
22356WAT     H167310   7.940   8.334   6.868
22356WAT     H267311   8.032   8.262   6.754
22357WAT      O67312   8.596   0.080   8.249
22357WAT     H167313   8.560  -0.010   8.225
22357WAT     H267314   8.536   0.123   8.316
22358WAT      O67315   5.002   2.058   4.855
22358WAT     H167316   4.919   2.003   4.858
22358WAT     H267317   5.017   2.101   4.944
22359WAT      O67318   7.410   8.505   4.237
22359WAT     H167319   7.323   8.545   4.211
22359WAT     H267320   7.449   8.555   4.314
22360WAT      O67321   0.012   4.683   5.722
22360WAT     H167322   0.077   4.648   5.655
22360WAT     H267323   0.031   4.779   5.741
22361WAT      O67324   3.601   2.540   4.865
22361WAT     H167325   3.569   2.457   4.911
22361WAT     H267326   3.538   2.615   4.885
22362WAT      O67327   2.891   0.798   1.173
22362WAT     H167328   2.935   0.731   1.233
22362WAT     H267329   2.844   0.750   1.099
22363WAT      O67330   1.939   3.835   8.834
22363WAT     H167331   1.876   3.757   8.831
22363WAT     H267332   1.887   3.920   8.831
22364WAT      O67333   2.073   6.029   0.631
22364WAT     H167334   2.123   6.034   0.545
22364WAT     H267335   2.036   5.937   0.643
22365WAT      O67336   7.790   9.739   0.692
22365WAT     H167337   7.842   9.824   0.691
22365WAT     H267338   7.843   9.668   0.740
22366WAT      O67339   5.229   1.124   7.193
22366WAT     H167340   5.183   1.073   7.266
22366WAT     H267341   5.240   1.065   7.113
22367WAT      O67342   4.086   3.649   8.450
22367WAT     H167343   4.114   3.744   8.467
22367WAT     H267344   4.164   3.599   8.412
22368WAT      O67345   7.920   7.690   6.268
22368WAT     H167346   7.879   7.607   6.228
22368WAT     H267347   8.019   7.686   6.260
22369WAT      O67348   4.247   5.369   6.613
22369WAT     H167349   4.210   5.360   6.520
22369WAT     H267350   4.220   5.457   6.651
22370WAT      O67351   9.189   7.629   7.575
22370WAT     H167352   9.145   7.606   7.488
22370WAT     H267353   9.220   7.545   7.620
22371WAT      O67354   6.528   8.893   5.334
22371WAT     H167355   6.534   8.910   5.236
22371WAT     H267356   6.471   8.963   5.377
22372WAT      O67357   6.339   2.012   4.682
22372WAT     H167358   6.359   1.980   4.589
22372WAT     H267359   6.266   2.081   4.678
22373WAT      O67360   1.040   7.963   9.190
22373WAT     H167361   0.958   7.944   9.244
22373WAT     H267362   1.104   8.019   9.243
22374WAT      O67363   3.614   2.045   6.257
22374WAT     H167364   3.656   2.002   6.177
22374WAT     H267365   3.592   1.976   6.325
22375WAT      O67366   6.603   0.981   5.559
22375WAT     H167367   6.509   0.952   5.542
22375WAT     H267368   6.613   1.007   5.655
22376WAT      O67369   5.608   8.950   1.734
22376WAT     H167370   5.690   8.949   1.791
22376WAT     H267371   5.565   8.860   1.736
22377WAT      O67372   5.729   1.662   3.089
22377WAT     H167373   5.731   1.656   2.989
22377WAT     H267374   5.808   1.614   3.127
22378WAT      O67375   4.984   2.306   8.831
22378WAT     H167376   4.900   2.321   8.883
22378WAT     H267377   5.063   2.332   8.887
22379WAT      O67378   6.501   6.726   3.802
22379WAT     H167379   6.490   6.698   3.707
22379WAT     H267380   6.415   6.762   3.837
22380WAT      O67381   3.913   1.709   4.683
22380WAT     H167382   3.889   1.669   4.595
22380WAT     H267383   3.921   1.808   4.673
22381WAT      O67384   2.245   0.919   6.321
22381WAT     H167385   2.315   0.879   6.263
22381WAT     H267386   2.155   0.907   6.278
22382WAT      O67387   1.932   8.208   0.892
22382WAT     H167388   1.975   8.237   0.977
22382WAT     H267389   1.931   8.285   0.828
22383WAT      O67390   9.471   6.103   1.278
22383WAT     H167391   9.489   6.005   1.268
22383WAT     H267392   9.374   6.121   1.259
22384WAT      O67393   3.565   9.767   2.996
22384WAT     H167394   3.593   9.839   3.059
22384WAT     H267395   3.552   9.806   2.905
22385WAT      O67396   5.463   7.078   9.327
22385WAT     H167397   5.424   7.165   9.297
22385WAT     H267398   5.397   7.005   9.309
22386WAT      O67399   9.121   3.216   7.984
22386WAT     H167400   9.150   3.168   8.067
22386WAT     H267401   9.024   3.197   7.967
22387WAT      O67402   6.914   8.141   5.681
22387WAT     H167403   6.918   8.120   5.584
22387WAT     H267404   6.906   8.240   5.693
22388WAT      O67405   3.577   9.796   7.481
22388WAT     H167406   3.582   9.782   7.580
22388WAT     H267407   3.488   9.835   7.458
22389WAT      O67408   1.771   5.541   6.002
22389WAT     H167409   1.780   5.479   5.924
22389WAT     H267410   1.834   5.513   6.074
22390WAT      O67411   8.394   8.416   6.716
22390WAT     H167412   8.329   8.465   6.775
22390WAT     H267413   8.450   8.483   6.667
22391WAT      O67414   7.896   9.595   8.038
22391WAT     H167415   7.821   9.611   7.974
22391WAT     H267416   7.904   9.672   8.100
22392WAT      O67417   4.953   3.101   7.371
22392WAT     H167418   4.952   3.149   7.284
22392WAT     H267419   4.907   3.013   7.361
22393WAT      O67420   2.467   3.853   9.134
22393WAT     H167421   2.466   3.771   9.077
22393WAT     H267422   2.536   3.917   9.099
22394WAT      O67423   1.890   2.815   6.700
22394WAT     H167424   1.966   2.773   6.750
22394WAT     H267425   1.877   2.909   6.734
22395WAT      O67426   9.321   9.720   5.925
22395WAT     H167427   9.244   9.740   5.985
22395WAT     H267428   9.366   9.805   5.898
22396WAT      O67429   4.956   3.450   0.793
22396WAT     H167430   4.859   3.438   0.816
22396WAT     H267431   4.963   3.512   0.714
22397WAT      O67432   0.251   1.186   1.381
22397WAT     H167433   0.334   1.166   1.328
22397WAT     H267434   0.277   1.210   1.474
22398WAT      O67435   8.307   5.844   7.150
22398WAT     H167436   8.368   5.823   7.227
22398WAT     H267437   8.216   5.806   7.169
22399WAT      O67438   8.001   7.181   5.656
22399WAT     H167439   8.025   7.249   5.725
22399WAT     H267440   8.081   7.159   5.601
22400WAT      O67441   6.154   7.778   8.017
22400WAT     H167442   6.206   7.739   8.093
22400WAT     H267443   6.198   7.863   7.987
22401WAT      O67444   2.421   9.233   8.033
22401WAT     H167445   2.325   9.259   8.030
22401WAT     H267446   2.429   9.138   8.063
22402WAT      O67447   3.901   7.338   5.345
22402WAT     H167448   3.836   7.403   5.306
22402WAT     H267449   3.987   7.385   5.365
22403WAT      O67450   7.788   4.862   3.706
22403WAT     H167451   7.777   4.764   3.718
22403WAT     H267452   7.744   4.891   3.621
22404WAT      O67453   3.558   6.057   4.272
22404WAT     H167454   3.561   6.076   4.174
22404WAT     H267455   3.602   6.131   4.322
22405WAT      O67456   2.028   7.977   8.366
22405WAT     H167457   2.031   7.953   8.269
22405WAT     H267458   1.941   7.946   8.405
22406WAT      O67459   2.161   9.522   4.100
22406WAT     H167460   2.212   9.451   4.148
22406WAT     H267461   2.134   9.594   4.164
22407WAT      O67462   8.423   1.846   1.180
22407WAT     H167463   8.434   1.791   1.263
22407WAT     H267464   8.337   1.897   1.185
22408WAT      O67465   1.026   9.206   8.775
22408WAT     H167466   0.984   9.250   8.855
22408WAT     H267467   0.967   9.132   8.744
22409WAT      O67468   4.452   4.349   5.081
22409WAT     H167469   4.519   4.291   5.127
22409WAT     H267470   4.451   4.326   4.983
22410WAT      O67471   0.524   6.694   6.900
22410WAT     H167472   0.582   6.634   6.955
22410WAT     H267473   0.435   6.704   6.944
22411WAT      O67474   7.443   5.534   9.876
22411WAT     H167475   7.368   5.599   9.889
22411WAT     H267476   7.522   5.580   9.836
22412WAT      O67477   9.597   7.868   5.616
22412WAT     H167478   9.598   7.963   5.582
22412WAT     H267479   9.502   7.843   5.638
22413WAT      O67480   9.451   5.709   4.407
22413WAT     H167481   9.408   5.641   4.466
22413WAT     H267482   9.387   5.786   4.393
22414WAT      O67483   2.264   2.168   3.610
22414WAT     H167484   2.245   2.209   3.699
22414WAT     H267485   2.187   2.184   3.548
22415WAT      O67486   0.982   1.630   3.357
22415WAT     H167487   1.075   1.593   3.351
22415WAT     H267488   0.949   1.654   3.266
22416WAT      O67489   3.281   3.061   5.312
22416WAT     H167490   3.352   3.090   5.248
22416WAT     H267491   3.250   2.969   5.286
22417WAT      O67492   6.288   4.627   3.968
22417WAT     H167493   6.373   4.627   3.916
22417WAT     H267494   6.283   4.544   4.024
22418WAT      O67495   9.635   4.792   8.589
22418WAT     H167496   9.704   4.861   8.568
22418WAT     H267497   9.545   4.836   8.595
22419WAT      O67498   8.655   5.802   0.560
22419WAT     H167499   8.697   5.806   0.650
22419WAT     H267500   8.719   5.835   0.491
22420WAT      O67501   0.128   5.641   6.574
22420WAT     H167502   0.061   5.614   6.643
22420WAT     H267503   0.203   5.575   6.572
22421WAT      O67504   8.387   0.759   5.886
22421WAT     H167505   8.434   0.835   5.930
22421WAT     H267506   8.454   0.694   5.852
22422WAT      O67507   1.912   5.116   0.693
22422WAT     H167508   1.885   5.209   0.669
22422WAT     H267509   1.909   5.104   0.792
22423WAT      O67510   7.063   1.550   7.181
22423WAT     H167511   7.054   1.648   7.164
22423WAT     H267512   7.138   1.533   7.244
22424WAT      O67513   0.151   8.781   6.725
22424WAT     H167514   0.176   8.877   6.734
22424WAT     H267515   0.213   8.735   6.662
22425WAT      O67516   1.608   5.689   0.847
22425WAT     H167517   1.516   5.662   0.818
22425WAT     H267518   1.669   5.610   0.842
22426WAT      O67519   7.004   9.494   5.472
22426WAT     H167520   7.047   9.411   5.436
22426WAT     H267521   6.951   9.472   5.554
22427WAT      O67522   5.795   5.918   4.585
22427WAT     H167523   5.862   5.993   4.594
22427WAT     H267524   5.732   5.939   4.511
22428WAT      O67525   2.215   8.590   1.563
22428WAT     H167526   2.236   8.571   1.659
22428WAT     H267527   2.299   8.617   1.515
22429WAT      O67528   1.293   2.647   7.337
22429WAT     H167529   1.292   2.558   7.381
22429WAT     H267530   1.219   2.652   7.270
22430WAT      O67531   5.805   2.756   6.988
22430WAT     H167532   5.762   2.717   7.070
22430WAT     H267533   5.864   2.688   6.945
22431WAT      O67534   9.790   3.682   3.691
22431WAT     H167535   9.731   3.698   3.612
22431WAT     H267536   9.861   3.752   3.695
22432WAT      O67537   2.729   5.602   8.469
22432WAT     H167538   2.674   5.583   8.387
22432WAT     H267539   2.781   5.520   8.494
22433WAT      O67540   3.658   3.621   7.870
22433WAT     H167541   3.674   3.716   7.843
22433WAT     H267542   3.682   3.609   7.967
22434WAT      O67543   4.491   3.458   1.942
22434WAT     H167544   4.570   3.505   1.904
22434WAT     H267545   4.415   3.522   1.952
22435WAT      O67546   1.095   3.851   4.680
22435WAT     H167547   1.161   3.906   4.629
22435WAT     H267548   1.025   3.816   4.618
22436WAT      O67549   6.068   9.437   6.548
22436WAT     H167550   6.042   9.519   6.600
22436WAT     H267551   6.165   9.417   6.564
22437WAT      O67552   8.165   8.995   4.387
22437WAT     H167553   8.167   8.927   4.461
22437WAT     H267554   8.251   9.046   4.387
22438WAT      O67555   9.641   5.825   1.685
22438WAT     H167556   9.543   5.808   1.675
22438WAT     H267557   9.684   5.821   1.595
22439WAT      O67558   0.014   1.575   4.596
22439WAT     H167559  -0.048   1.654   4.593
22439WAT     H267560  -0.040   1.491   4.607
22440WAT      O67561   2.557   7.453   6.440
22440WAT     H167562   2.629   7.467   6.372
22440WAT     H267563   2.484   7.398   6.400
22441WAT      O67564   3.472   3.187   6.719
22441WAT     H167565   3.443   3.282   6.704
22441WAT     H267566   3.541   3.184   6.791
22442WAT      O67567   3.797   1.263   4.327
22442WAT     H167568   3.885   1.289   4.288
22442WAT     H267569   3.796   1.165   4.346
22443WAT      O67570   6.325   7.291   9.753
22443WAT     H167571   6.410   7.289   9.806
22443WAT     H267572   6.301   7.198   9.725
22444WAT      O67573   0.216   7.072   6.139
22444WAT     H167574   0.156   6.994   6.118
22444WAT     H267575   0.280   7.086   6.063
22445WAT      O67576   0.384   6.583   4.743
22445WAT     H167577   0.320   6.576   4.666
22445WAT     H267578   0.478   6.575   4.709
22446WAT      O67579   8.058   0.869   3.982
22446WAT     H167580   7.990   0.939   3.958
22446WAT     H267581   8.149   0.903   3.959
22447WAT      O67582   1.328   2.882   8.928
22447WAT     H167583   1.233   2.862   8.954
22447WAT     H267584   1.348   2.978   8.946
22448WAT      O67585   6.172   3.386   8.651
22448WAT     H167586   6.085   3.389   8.603
22448WAT     H267587   6.161   3.423   8.744
22449WAT      O67588   4.450   7.477   5.673
22449WAT     H167589   4.458   7.498   5.771
22449WAT     H267590   4.381   7.406   5.660
22450WAT      O67591   7.366   5.120   1.946
22450WAT     H167592   7.356   5.023   1.921
22450WAT     H267593   7.308   5.139   2.025
22451WAT      O67594   5.365   2.131   0.960
22451WAT     H167595   5.363   2.167   0.867
22451WAT     H267596   5.346   2.033   0.957
22452WAT      O67597   6.314   7.672   6.088
22452WAT     H167598   6.251   7.720   6.150
22452WAT     H267599   6.398   7.649   6.137
22453WAT      O67600   2.900   7.582   5.820
22453WAT     H167601   2.977   7.531   5.857
22453WAT     H267602   2.908   7.678   5.846
22454WAT      O67603   6.539   4.822   1.180
22454WAT     H167604   6.520   4.733   1.222
22454WAT     H267605   6.638   4.838   1.179
22455WAT      O67606   1.116   8.100   3.729
22455WAT     H167607   1.186   8.035   3.757
22455WAT     H267608   1.047   8.053   3.675
22456WAT      O67609   3.366   8.894   3.597
22456WAT     H167610   3.386   8.818   3.658
22456WAT     H267611   3.450   8.925   3.553
22457WAT      O67612   0.688   0.174   2.564
22457WAT     H167613   0.726   0.120   2.639
22457WAT     H267614   0.662   0.114   2.489
22458WAT      O67615   5.916   1.239   3.252
22458WAT     H167616   5.937   1.145   3.279
22458WAT     H267617   5.999   1.285   3.222
22459WAT      O67618   9.703   7.189   3.384
22459WAT     H167619   9.610   7.154   3.398
22459WAT     H267620   9.758   7.120   3.338
22460WAT      O67621   3.274   4.951   8.409
22460WAT     H167622   3.280   4.966   8.311
22460WAT     H267623   3.191   4.994   8.445
22461WAT      O67624   4.858   6.625   1.575
22461WAT     H167625   4.889   6.534   1.600
22461WAT     H267626   4.891   6.691   1.643
22462WAT      O67627   6.408   0.055   7.937
22462WAT     H167628   6.497   0.033   7.897
22462WAT     H267629   6.388  -0.008   8.012
22463WAT      O67630   3.456   7.973   4.610
22463WAT     H167631   3.434   8.052   4.552
22463WAT     H267632   3.465   7.891   4.554
22464WAT      O67633   0.788   7.253   9.524
22464WAT     H167634   0.800   7.351   9.533
22464WAT     H267635   0.719   7.222   9.590
22465WAT      O67636   1.425   7.663   1.325
22465WAT     H167637   1.374   7.610   1.258
22465WAT     H267638   1.489   7.724   1.279
22466WAT      O67639   8.418   7.781   4.282
22466WAT     H167640   8.353   7.810   4.212
22466WAT     H267641   8.455   7.861   4.330
22467WAT      O67642   8.330   5.938   9.628
22467WAT     H167643   8.322   5.866   9.696
22467WAT     H267644   8.358   6.023   9.674
22468WAT      O67645   3.752   9.044   8.799
22468WAT     H167646   3.834   8.989   8.813
22468WAT     H267647   3.680   9.015   8.861
22469WAT      O67648   2.892   2.626   1.683
22469WAT     H167649   2.980   2.647   1.641
22469WAT     H267650   2.907   2.586   1.774
22470WAT      O67651   8.478   2.761   6.005
22470WAT     H167652   8.537   2.680   6.012
22470WAT     H267653   8.418   2.766   6.086
22471WAT      O67654   6.661   3.538   6.386
22471WAT     H167655   6.650   3.564   6.291
22471WAT     H267656   6.581   3.486   6.416
22472WAT      O67657   0.865   5.739   3.857
22472WAT     H167658   0.848   5.641   3.846
22472WAT     H267659   0.955   5.752   3.899
22473WAT      O67660   5.479   4.285   2.352
22473WAT     H167661   5.524   4.219   2.292
22473WAT     H267662   5.385   4.256   2.369
22474WAT      O67663   4.455   1.191   7.560
22474WAT     H167664   4.513   1.130   7.614
22474WAT     H267665   4.501   1.214   7.474
22475WAT      O67666   2.419   8.718   0.080
22475WAT     H167667   2.403   8.725   0.178
22475WAT     H267668   2.340   8.674   0.037
22476WAT      O67669   7.825   3.396   2.200
22476WAT     H167670   7.756   3.463   2.172
22476WAT     H267671   7.899   3.393   2.133
22477WAT      O67672   6.448   6.675   7.941
22477WAT     H167673   6.491   6.603   7.887
22477WAT     H267674   6.368   6.710   7.893
22478WAT      O67675   8.404   2.413   8.045
22478WAT     H167676   8.336   2.486   8.043
22478WAT     H267677   8.358   2.326   8.062
22479WAT      O67678   8.498   0.811   6.460
22479WAT     H167679   8.548   0.729   6.486
22479WAT     H267680   8.515   0.832   6.364
22480WAT      O67681   4.642   1.549   6.168
22480WAT     H167682   4.690   1.554   6.081
22480WAT     H267683   4.591   1.463   6.173
22481WAT      O67684   5.474   3.105   4.874
22481WAT     H167685   5.512   3.067   4.958
22481WAT     H267686   5.543   3.103   4.802
22482WAT      O67687   5.249   8.719   9.238
22482WAT     H167688   5.308   8.712   9.318
22482WAT     H267689   5.194   8.636   9.230
22483WAT      O67690   4.534   9.279   3.924
22483WAT     H167691   4.552   9.364   3.973
22483WAT     H267692   4.545   9.293   3.826
22484WAT      O67693   7.185   4.910   7.541
22484WAT     H167694   7.251   4.845   7.579
22484WAT     H267695   7.213   5.003   7.566
22485WAT      O67696   2.402   7.317   7.767
22485WAT     H167697   2.496   7.349   7.753
22485WAT     H267698   2.351   7.384   7.821
22486WAT      O67699   1.481   0.075   7.240
22486WAT     H167700   1.539   0.018   7.298
22486WAT     H267701   1.415   0.017   7.192
22487WAT      O67702   7.339   8.271   4.012
22487WAT     H167703   7.319   8.174   4.000
22487WAT     H267704   7.438   8.285   4.004
22488WAT      O67705   1.913   3.176   0.753
22488WAT     H167706   2.013   3.177   0.757
22488WAT     H267707   1.883   3.129   0.670
22489WAT      O67708   9.195   4.656   1.716
22489WAT     H167709   9.117   4.596   1.731
22489WAT     H267710   9.183   4.706   1.631
22490WAT      O67711   9.791   0.743   7.583
22490WAT     H167712   9.808   0.717   7.678
22490WAT     H267713   9.722   0.682   7.544
22491WAT      O67714   0.343   5.197   5.381
22491WAT     H167715   0.308   5.281   5.340
22491WAT     H267716   0.390   5.143   5.311
22492WAT      O67717   2.193   1.435   8.594
22492WAT     H167718   2.227   1.341   8.584
22492WAT     H267719   2.161   1.467   8.505
22493WAT      O67720   2.219   1.559   1.263
22493WAT     H167721   2.170   1.534   1.179
22493WAT     H267722   2.166   1.530   1.342
22494WAT      O67723   5.240   2.756   9.429
22494WAT     H167724   5.235   2.791   9.522
22494WAT     H267725   5.323   2.789   9.385
22495WAT      O67726   1.398   2.952   5.431
22495WAT     H167727   1.435   2.878   5.375
22495WAT     H267728   1.468   2.985   5.493
22496WAT      O67729   1.738   8.788   8.776
22496WAT     H167730   1.654   8.840   8.763
22496WAT     H267731   1.722   8.692   8.753
22497WAT      O67732   3.854   1.403   5.086
22497WAT     H167733   3.780   1.361   5.034
22497WAT     H267734   3.925   1.436   5.023
22498WAT      O67735   4.638   5.985   7.310
22498WAT     H167736   4.538   5.981   7.319
22498WAT     H267737   4.664   6.070   7.264
22499WAT      O67738   6.436   0.416   2.796
22499WAT     H167739   6.440   0.344   2.865
22499WAT     H267740   6.528   0.452   2.780
22500WAT      O67741   4.831   7.088   7.273
22500WAT     H167742   4.825   7.163   7.338
22500WAT     H267743   4.833   7.001   7.323
22501WAT      O67744   9.486   8.421   8.515
22501WAT     H167745   9.408   8.469   8.555
22501WAT     H267746   9.570   8.475   8.529
22502WAT      O67747   0.183   2.514   1.600
22502WAT     H167748   0.122   2.543   1.673
22502WAT     H267749   0.164   2.418   1.577
22503WAT      O67750   7.474   4.252   4.548
22503WAT     H167751   7.443   4.342   4.517
22503WAT     H267752   7.404   4.184   4.528
22504WAT      O67753   2.559   5.768   3.024
22504WAT     H167754   2.578   5.777   2.926
22504WAT     H267755   2.579   5.855   3.070
22505WAT      O67756   0.800   2.191   8.390
22505WAT     H167757   0.834   2.283   8.372
22505WAT     H267758   0.784   2.144   8.303
22506WAT      O67759   5.207   7.222   6.657
22506WAT     H167760   5.142   7.267   6.595
22506WAT     H267761   5.217   7.276   6.740
22507WAT      O67762   8.627   8.740   8.448
22507WAT     H167763   8.683   8.786   8.379
22507WAT     H267764   8.571   8.670   8.404
22508WAT      O67765   1.328   8.748   0.401
22508WAT     H167766   1.271   8.738   0.482
22508WAT     H267767   1.409   8.691   0.410
22509WAT      O67768   0.434   5.014   6.562
22509WAT     H167769   0.527   4.977   6.560
22509WAT     H267770   0.374   4.951   6.612
22510WAT      O67771   7.064   9.491   1.739
22510WAT     H167772   7.137   9.424   1.754
22510WAT     H267773   7.103   9.575   1.700
22511WAT      O67774   1.871   5.299   8.608
22511WAT     H167775   1.949   5.336   8.558
22511WAT     H267776   1.886   5.312   8.706
22512WAT      O67777   0.809   8.136   1.913
22512WAT     H167778   0.908   8.148   1.904
22512WAT     H267779   0.782   8.152   2.008
22513WAT      O67780   0.929   2.085   4.316
22513WAT     H167781   0.834   2.065   4.340
22513WAT     H267782   0.937   2.095   4.217
22514WAT      O67783   6.236   7.798   3.693
22514WAT     H167784   6.298   7.875   3.711
22514WAT     H267785   6.160   7.800   3.758
22515WAT      O67786   3.865   5.240   9.496
22515WAT     H167787   3.768   5.243   9.523
22515WAT     H267788   3.921   5.216   9.575
22516WAT      O67789   0.999   3.410   0.597
22516WAT     H167790   0.962   3.447   0.682
22516WAT     H267791   0.932   3.425   0.523
22517WAT      O67792   5.941   4.854   7.045
22517WAT     H167793   6.039   4.838   7.058
22517WAT     H267794   5.891   4.769   7.059
22518WAT      O67795   3.439   5.462   7.033
22518WAT     H167796   3.454   5.560   7.023
22518WAT     H267797   3.345   5.445   7.063
22519WAT      O67798   4.582   4.669   0.717
22519WAT     H167799   4.638   4.702   0.793
22519WAT     H267800   4.633   4.680   0.631
22520WAT      O67801   1.254   7.138   2.921
22520WAT     H167802   1.217   7.189   2.998
22520WAT     H267803   1.212   7.171   2.836
22521WAT      O67804   4.412   4.270   4.135
22521WAT     H167805   4.459   4.356   4.157
22521WAT     H267806   4.346   4.249   4.207
22522WAT      O67807   3.830   4.624   4.147
22522WAT     H167808   3.869   4.620   4.239
22522WAT     H267809   3.840   4.536   4.102
22523WAT      O67810   7.501   1.818   8.739
22523WAT     H167811   7.587   1.774   8.768
22523WAT     H267812   7.443   1.750   8.693
22524WAT      O67813   3.130   5.195   1.743
22524WAT     H167814   3.176   5.282   1.763
22524WAT     H267815   3.031   5.208   1.747
22525WAT      O67816   2.685   6.871   5.126
22525WAT     H167817   2.676   6.870   5.027
22525WAT     H267818   2.596   6.856   5.168
22526WAT      O67819   4.275   1.430   0.776
22526WAT     H167820   4.197   1.438   0.839
22526WAT     H267821   4.314   1.520   0.759
22527WAT      O67822   8.897   5.945   9.168
22527WAT     H167823   8.867   5.884   9.094
22527WAT     H267824   8.817   5.989   9.209
22528WAT      O67825   8.163   6.497   1.765
22528WAT     H167826   8.123   6.585   1.790
22528WAT     H267827   8.098   6.424   1.787
22529WAT      O67828   2.764   7.413   6.771
22529WAT     H167829   2.710   7.446   6.849
22529WAT     H267830   2.705   7.410   6.690
22530WAT      O67831   2.951   3.894   3.054
22530WAT     H167832   2.948   3.797   3.079
22530WAT     H267833   2.866   3.939   3.082
22531WAT      O67834   9.809   1.037   7.026
22531WAT     H167835   9.765   1.105   7.085
22531WAT     H267836   9.815   0.950   7.075
22532WAT      O67837   5.659   3.164   4.642
22532WAT     H167838   5.695   3.257   4.640
22532WAT     H267839   5.632   3.136   4.550
22533WAT      O67840   1.031   5.937   5.739
22533WAT     H167841   0.961   5.868   5.722
22533WAT     H267842   1.094   5.939   5.662
22534WAT      O67843   3.885   3.975   8.304
22534WAT     H167844   3.819   3.900   8.293
22534WAT     H267845   3.927   3.995   8.216
22535WAT      O67846   8.922   6.765   8.286
22535WAT     H167847   8.987   6.831   8.325
22535WAT     H267848   8.878   6.715   8.360
22536WAT      O67849   5.116   7.681   6.129
22536WAT     H167850   5.043   7.705   6.066
22536WAT     H267851   5.175   7.612   6.088
22537WAT      O67852   8.752   1.163   5.423
22537WAT     H167853   8.693   1.158   5.343
22537WAT     H267854   8.753   1.257   5.458
22538WAT      O67855   4.529   6.971   6.658
22538WAT     H167856   4.558   7.049   6.714
22538WAT     H267857   4.553   6.886   6.705
22539WAT      O67858   1.618   5.288   8.673
22539WAT     H167859   1.717   5.303   8.662
22539WAT     H267860   1.572   5.376   8.686
22540WAT      O67861   3.806   0.111   2.959
22540WAT     H167862   3.736   0.150   2.900
22540WAT     H267863   3.857   0.040   2.910
22541WAT      O67864   9.269   7.703   4.093
22541WAT     H167865   9.256   7.760   4.174
22541WAT     H267866   9.365   7.704   4.066
22542WAT      O67867   8.304   5.126   1.488
22542WAT     H167868   8.249   5.063   1.432
22542WAT     H267869   8.365   5.073   1.547
22543WAT      O67870   1.800   2.515   4.707
22543WAT     H167871   1.823   2.425   4.670
22543WAT     H267872   1.720   2.507   4.766
22544WAT      O67873   4.785   3.478   5.647
22544WAT     H167874   4.794   3.469   5.548
22544WAT     H267875   4.818   3.567   5.676
22545WAT      O67876   5.145   6.444   2.843
22545WAT     H167877   5.200   6.497   2.907
22545WAT     H267878   5.048   6.460   2.860
22546WAT      O67879   7.053   2.180   4.155
22546WAT     H167880   7.060   2.151   4.059
22546WAT     H267881   7.116   2.127   4.211
22547WAT      O67882   1.843   7.985   3.380
22547WAT     H167883   1.834   7.906   3.319
22547WAT     H267884   1.937   7.990   3.414
22548WAT      O67885   5.216   7.243   4.464
22548WAT     H167886   5.135   7.190   4.437
22548WAT     H267887   5.271   7.191   4.529
22549WAT      O67888   0.905   3.211   3.195
22549WAT     H167889   0.898   3.302   3.155
22549WAT     H267890   0.837   3.151   3.153
22550WAT      O67891   3.818   2.811   5.703
22550WAT     H167892   3.793   2.874   5.630
22550WAT     H267893   3.908   2.835   5.739
22551WAT      O67894   6.498   5.890   4.244
22551WAT     H167895   6.459   5.811   4.195
22551WAT     H267896   6.424   5.940   4.289
22552WAT      O67897   6.785   3.452   5.798
22552WAT     H167898   6.865   3.417   5.846
22552WAT     H267899   6.760   3.389   5.724
22553WAT      O67900   8.668   8.315   0.507
22553WAT     H167901   8.615   8.242   0.550
22553WAT     H267902   8.631   8.404   0.535
22554WAT      O67903   8.600   2.852   2.763
22554WAT     H167904   8.625   2.794   2.841
22554WAT     H267905   8.632   2.946   2.780
22555WAT      O67906   4.913   6.530   4.112
22555WAT     H167907   4.892   6.520   4.209
22555WAT     H267908   4.857   6.467   4.058
22556WAT      O67909   1.561   0.250   5.537
22556WAT     H167910   1.499   0.305   5.594
22556WAT     H267911   1.647   0.235   5.587
22557WAT      O67912   1.061   9.628   2.880
22557WAT     H167913   1.142   9.594   2.832
22557WAT     H267914   0.983   9.570   2.858
22558WAT      O67915   5.886   2.886   5.154
22558WAT     H167916   5.948   2.814   5.185
22558WAT     H267917   5.849   2.935   5.234
22559WAT      O67918   8.181   6.213   7.990
22559WAT     H167919   8.095   6.263   8.000
22559WAT     H267920   8.244   6.266   7.934
22560WAT      O67921   3.747   4.642   0.980
22560WAT     H167922   3.841   4.642   0.947
22560WAT     H267923   3.709   4.550   0.970
22561WAT      O67924   1.150   4.992   8.331
22561WAT     H167925   1.193   4.998   8.241
22561WAT     H267926   1.184   5.066   8.389
22562WAT      O67927   0.066   1.071   9.392
22562WAT     H167928   0.137   1.103   9.328
22562WAT     H267929   0.018   1.150   9.430
22563WAT      O67930   3.844   8.960   4.408
22563WAT     H167931   3.937   8.925   4.394
22563WAT     H267932   3.844   9.026   4.483
22564WAT      O67933   8.104   0.704   4.900
22564WAT     H167934   8.199   0.726   4.922
22564WAT     H267935   8.093   0.604   4.895
22565WAT      O67936   2.591   5.391   6.829
22565WAT     H167937   2.545   5.312   6.870
22565WAT     H267938   2.623   5.368   6.737
22566WAT      O67939   8.688   4.351   2.540
22566WAT     H167940   8.643   4.291   2.474
22566WAT     H267941   8.756   4.299   2.592
22567WAT      O67942   5.056   5.271   1.950
22567WAT     H167943   5.135   5.293   1.893
22567WAT     H267944   4.981   5.334   1.929
22568WAT      O67945   3.391   8.379   2.630
22568WAT     H167946   3.436   8.350   2.715
22568WAT     H267947   3.366   8.476   2.638
22569WAT      O67948   4.172   4.032   8.866
22569WAT     H167949   4.079   4.032   8.829
22569WAT     H267950   4.200   4.126   8.886
22570WAT      O67951   7.215   2.146   6.469
22570WAT     H167952   7.168   2.223   6.511
22570WAT     H267953   7.271   2.099   6.538
22571WAT      O67954   3.613   3.243   6.962
22571WAT     H167955   3.531   3.210   7.008
22571WAT     H267956   3.685   3.174   6.971
22572WAT      O67957   1.016   4.790   3.765
22572WAT     H167958   1.059   4.733   3.695
22572WAT     H267959   1.033   4.750   3.855
22573WAT      O67960   8.642   2.692   1.739
22573WAT     H167961   8.595   2.626   1.681
22573WAT     H267962   8.603   2.690   1.831
22574WAT      O67963   4.999   4.711   0.313
22574WAT     H167964   5.057   4.653   0.255
22574WAT     H267965   4.930   4.757   0.257
22575WAT      O67966   7.661   9.782   3.190
22575WAT     H167967   7.602   9.790   3.270
22575WAT     H267968   7.709   9.694   3.192
22576WAT      O67969   9.354   9.589   1.598
22576WAT     H167970   9.444   9.559   1.630
22576WAT     H267971   9.328   9.534   1.518
22577WAT      O67972   4.689   0.590   9.153
22577WAT     H167973   4.761   0.602   9.222
22577WAT     H267974   4.728   0.607   9.062
22578WAT      O67975   9.387   2.855   7.638
22578WAT     H167976   9.398   2.761   7.607
22578WAT     H267977   9.476   2.901   7.638
22579WAT      O67978   5.557   1.225   4.357
22579WAT     H167979   5.457   1.231   4.353
22579WAT     H267980   5.597   1.312   4.328
22580WAT      O67981   0.714   7.391   3.113
22580WAT     H167982   0.668   7.372   3.026
22580WAT     H267983   0.669   7.342   3.187
22581WAT      O67984   2.012   8.286   4.517
22581WAT     H167985   1.953   8.303   4.438
22581WAT     H267986   1.958   8.245   4.590
22582WAT      O67987   8.844   3.131   7.456
22582WAT     H167988   8.903   3.180   7.391
22582WAT     H267989   8.749   3.140   7.427
22583WAT      O67990   0.061   5.126   2.820
22583WAT     H167991   0.014   5.151   2.735
22583WAT     H267992   0.060   5.203   2.883
22584WAT      O67993   2.251   6.532   8.762
22584WAT     H167994   2.222   6.628   8.772
22584WAT     H267995   2.304   6.505   8.842
22585WAT      O67996   9.671   0.015   4.683
22585WAT     H167997   9.740   0.082   4.710
22585WAT     H267998   9.712  -0.054   4.624
22586WAT      O67999   8.439   4.056   4.804
22586WAT     H168000   8.347   4.025   4.826
22586WAT     H268001   8.472   4.008   4.722
22587WAT      O68002   4.401   2.237   1.262
22587WAT     H168003   4.407   2.222   1.361
22587WAT     H268004   4.486   2.278   1.229
22588WAT      O68005   8.510   2.403   2.322
22588WAT     H168006   8.525   2.306   2.301
22588WAT     H268007   8.581   2.436   2.385
22589WAT      O68008   1.974   7.487   9.025
22589WAT     H168009   1.975   7.586   9.017
22589WAT     H268010   1.881   7.453   9.011
22590WAT      O68011   6.941   5.847   2.427
22590WAT     H168012   6.915   5.901   2.347
22590WAT     H268013   6.928   5.902   2.510
22591WAT      O68014   3.910   5.018   9.319
22591WAT     H168015   3.999   5.017   9.273
22591WAT     H268016   3.899   5.104   9.369
22592WAT      O68017   3.240   4.223   6.415
22592WAT     H168018   3.172   4.219   6.341
22592WAT     H268019   3.232   4.141   6.472
22593WAT      O68020   8.833   2.845   5.367
22593WAT     H168021   8.910   2.803   5.415
22593WAT     H268022   8.867   2.897   5.289
22594WAT      O68023   8.506   2.053   1.955
22594WAT     H168024   8.558   1.967   1.956
22594WAT     H268025   8.535   2.108   1.877
22595WAT      O68026   8.941   8.414   3.485
22595WAT     H168027   8.939   8.458   3.394
22595WAT     H268028   8.926   8.316   3.475
22596WAT      O68029   1.564   5.122   2.119
22596WAT     H168030   1.653   5.126   2.073
22596WAT     H268031   1.508   5.199   2.088
22597WAT      O68032   4.909   7.806   4.107
22597WAT     H168033   5.002   7.839   4.123
22597WAT     H268034   4.911   7.733   4.038
22598WAT      O68035   3.148   2.185   6.166
22598WAT     H168036   3.149   2.255   6.094
22598WAT     H268037   3.232   2.193   6.221
22599WAT      O68038   8.717   1.940   9.153
22599WAT     H168039   8.637   1.881   9.166
22599WAT     H268040   8.733   1.954   9.055
22600WAT      O68041   4.280   9.617   1.694
22600WAT     H168042   4.320   9.608   1.785
22600WAT     H268043   4.216   9.694   1.693
22601WAT      O68044   3.809   5.155   5.652
22601WAT     H168045   3.788   5.252   5.663
22601WAT     H268046   3.746   5.101   5.708
22602WAT      O68047   1.980   8.791   6.672
22602WAT     H168048   1.948   8.881   6.700
22602WAT     H268049   2.037   8.752   6.745
22603WAT      O68050   5.500   3.148   9.018
22603WAT     H168051   5.418   3.175   8.966
22603WAT     H268052   5.520   3.218   9.087
22604WAT      O68053   7.673   2.219   9.586
22604WAT     H168054   7.652   2.273   9.668
22604WAT     H268055   7.709   2.130   9.614
22605WAT      O68056   1.314   8.650   6.559
22605WAT     H168057   1.218   8.656   6.587
22605WAT     H268058   1.319   8.605   6.470
22606WAT      O68059   5.954   5.688   6.706
22606WAT     H168060   5.937   5.766   6.646
22606WAT     H268061   5.952   5.604   6.653
22607WAT      O68062   1.912   1.246   1.534
22607WAT     H168063   1.857   1.167   1.506
22607WAT     H268064   1.883   1.326   1.482
22608WAT      O68065   4.304   7.986   2.576
22608WAT     H168066   4.266   8.025   2.492
22608WAT     H268067   4.403   7.979   2.568
22609WAT      O68068   2.929   8.034   5.017
22609WAT     H168069   2.893   8.048   5.110
22609WAT     H268070   2.899   7.945   4.983
22610WAT      O68071   4.197   6.352   3.174
22610WAT     H168072   4.163   6.342   3.081
22610WAT     H268073   4.237   6.443   3.185
22611WAT      O68074   6.610   4.151   5.200
22611WAT     H168075   6.635   4.227   5.260
22611WAT     H268076   6.586   4.071   5.256
22612WAT      O68077   7.484   5.334   2.773
22612WAT     H168078   7.449   5.363   2.685
22612WAT     H268079   7.543   5.254   2.761
22613WAT      O68080   3.212   7.768   4.109
22613WAT     H168081   3.268   7.843   4.145
22613WAT     H268082   3.138   7.806   4.054
22614WAT      O68083   0.538   4.998   7.047
22614WAT     H168084   0.568   4.953   7.132
22614WAT     H268085   0.589   5.083   7.035
22615WAT      O68086   2.759   4.249   3.475
22615WAT     H168087   2.756   4.180   3.547
22615WAT     H268088   2.844   4.301   3.482
22616WAT      O68089   0.873   5.620   5.271
22616WAT     H168090   0.798   5.560   5.300
22616WAT     H268091   0.946   5.565   5.230
22617WAT      O68092   7.543   3.133   8.653
22617WAT     H168093   7.573   3.174   8.567
22617WAT     H268094   7.578   3.186   8.730
22618WAT      O68095   0.410   8.362   1.059
22618WAT     H168096   0.375   8.455   1.057
22618WAT     H268097   0.401   8.320   0.969
22619WAT      O68098   1.872   4.150   7.516
22619WAT     H168099   1.797   4.202   7.475
22619WAT     H268100   1.958   4.199   7.502
22620WAT      O68101   5.198   1.152   1.477
22620WAT     H168102   5.278   1.182   1.529
22620WAT     H268103   5.132   1.110   1.539
22621WAT      O68104   9.098   9.174   6.506
22621WAT     H168105   9.103   9.259   6.558
22621WAT     H268106   9.035   9.186   6.428
22622WAT      O68107   1.703   1.206   5.044
22622WAT     H168108   1.729   1.169   5.133
22622WAT     H268109   1.638   1.144   4.999
22623WAT      O68110   8.062   4.381   3.208
22623WAT     H168111   8.133   4.413   3.145
22623WAT     H268112   8.066   4.281   3.213
22624WAT      O68113   6.515   8.392   4.647
22624WAT     H168114   6.464   8.470   4.611
22624WAT     H268115   6.485   8.373   4.740
22625WAT      O68116   4.393   2.429   5.944
22625WAT     H168117   4.337   2.371   6.002
22625WAT     H268118   4.425   2.377   5.865
22626WAT      O68119   0.904   5.230   9.464
22626WAT     H168120   0.959   5.312   9.447
22626WAT     H268121   0.873   5.230   9.559
22627WAT      O68122   4.197   4.674   6.729
22627WAT     H168123   4.175   4.699   6.823
22627WAT     H268124   4.295   4.653   6.722
22628WAT      O68125   0.404   5.092   4.061
22628WAT     H168126   0.389   5.190   4.052
22628WAT     H268127   0.476   5.063   3.998
22629WAT      O68128   4.649   3.840   1.310
22629WAT     H168129   4.728   3.827   1.251
22629WAT     H268130   4.675   3.822   1.405
22630WAT      O68131   7.506   5.421   7.265
22630WAT     H168132   7.467   5.411   7.356
22630WAT     H268133   7.442   5.383   7.197
22631WAT      O68134   3.179   2.190   2.533
22631WAT     H168135   3.246   2.154   2.598
22631WAT     H268136   3.102   2.127   2.527
22632WAT      O68137   6.625   5.419   9.836
22632WAT     H168138   6.609   5.321   9.839
22632WAT     H268139   6.647   5.447   9.743
22633WAT      O68140   1.560   7.450   5.285
22633WAT     H168141   1.642   7.396   5.263
22633WAT     H268142   1.525   7.422   5.374
22634WAT      O68143   5.027   5.336   8.936
22634WAT     H168144   5.053   5.244   8.964
22634WAT     H268145   5.037   5.398   9.014
22635WAT      O68146   0.364   8.322   5.579
22635WAT     H168147   0.456   8.285   5.573
22635WAT     H268148   0.298   8.247   5.590
22636WAT      O68149   0.633   2.464   2.605
22636WAT     H168150   0.540   2.498   2.588
22636WAT     H268151   0.661   2.491   2.697
22637WAT      O68152   1.879   5.425   1.907
22637WAT     H168153   1.969   5.391   1.934
22637WAT     H268154   1.831   5.460   1.988
22638WAT      O68155   4.796   3.824   3.405
22638WAT     H168156   4.729   3.756   3.435
22638WAT     H268157   4.812   3.890   3.479
22639WAT      O68158   0.123   9.303   9.601
22639WAT     H168159   0.132   9.209   9.569
22639WAT     H268160   0.068   9.356   9.537
22640WAT      O68161   6.817   7.636   7.809
22640WAT     H168162   6.874   7.621   7.729
22640WAT     H268163   6.790   7.548   7.848
22641WAT      O68164   6.033   2.779   1.801
22641WAT     H168165   6.054   2.687   1.767
22641WAT     H268166   6.116   2.833   1.805
22642WAT      O68167   7.388   1.088   5.908
22642WAT     H168168   7.355   0.994   5.902
22642WAT     H268169   7.310   1.151   5.906
22643WAT      O68170   2.686   1.267   8.025
22643WAT     H168171   2.783   1.251   8.007
22643WAT     H268172   2.662   1.229   8.115
22644WAT      O68173   9.351   0.099   0.380
22644WAT     H168174   9.274   0.124   0.321
22644WAT     H268175   9.435   0.142   0.346
22645WAT      O68176   4.282   2.712   6.351
22645WAT     H168177   4.190   2.692   6.318
22645WAT     H268178   4.338   2.629   6.348
22646WAT      O68179   6.058   6.390   0.618
22646WAT     H168180   6.098   6.359   0.704
22646WAT     H268181   6.049   6.312   0.555
22647WAT      O68182   2.862   7.603   7.529
22647WAT     H168183   2.894   7.508   7.520
22647WAT     H268184   2.763   7.603   7.540
22648WAT      O68185   4.805   8.876   2.462
22648WAT     H168186   4.743   8.803   2.432
22648WAT     H268187   4.818   8.941   2.387
22649WAT      O68188   5.022   8.965   9.401
22649WAT     H168189   5.058   8.872   9.396
22649WAT     H268190   4.999   8.987   9.495
22650WAT      O68191   7.218   4.655   2.073
22650WAT     H168192   7.123   4.634   2.096
22650WAT     H268193   7.278   4.595   2.127
22651WAT      O68194   9.879   3.909   8.692
22651WAT     H168195   9.846   3.980   8.630
22651WAT     H268196   9.831   3.915   8.779
22652WAT      O68197   1.866   8.337   4.306
22652WAT     H168198   1.896   8.402   4.236
22652WAT     H268199   1.842   8.250   4.262
22653WAT      O68200   6.395   0.403   4.724
22653WAT     H168201   6.490   0.374   4.730
22653WAT     H268202   6.367   0.410   4.628
22654WAT      O68203   9.839   2.969   4.796
22654WAT     H168204   9.830   2.898   4.726
22654WAT     H268205   9.834   3.059   4.753
22655WAT      O68206   1.030   0.199   1.639
22655WAT     H168207   1.067   0.274   1.694
22655WAT     H268208   0.956   0.154   1.689
22656WAT      O68209   0.982   8.707   0.064
22656WAT     H168210   0.920   8.628   0.069
22656WAT     H268211   0.937   8.787   0.103
22657WAT      O68212   1.700   7.199   1.055
22657WAT     H168213   1.692   7.295   1.082
22657WAT     H268214   1.785   7.184   1.006
22658WAT      O68215   8.341   9.673   3.164
22658WAT     H168216   8.361   9.740   3.092
22658WAT     H268217   8.340   9.581   3.125
22659WAT      O68218   2.867   8.729   0.360
22659WAT     H168219   2.856   8.822   0.327
22659WAT     H268220   2.791   8.673   0.328
22660WAT      O68221   8.519   6.335   1.137
22660WAT     H168222   8.501   6.390   1.218
22660WAT     H268223   8.591   6.268   1.157
22661WAT      O68224   7.529   3.614   4.975
22661WAT     H168225   7.561   3.658   4.892
22661WAT     H268226   7.487   3.682   5.035
22662WAT      O68227   6.891   8.486   6.021
22662WAT     H168228   6.966   8.422   6.004
22662WAT     H268229   6.818   8.440   6.070
22663WAT      O68230   7.908   7.159   9.758
22663WAT     H168231   7.941   7.250   9.734
22663WAT     H268232   7.917   7.145   9.857
22664WAT      O68233   5.260   0.816   0.428
22664WAT     H168234   5.297   0.728   0.399
22664WAT     H268235   5.328   0.888   0.411
22665WAT      O68236   5.074   3.249   1.811
22665WAT     H168237   5.022   3.177   1.855
22665WAT     H268238   5.124   3.212   1.733
22666WAT      O68239   0.644   0.964   6.781
22666WAT     H168240   0.610   0.896   6.845
22666WAT     H268241   0.738   0.988   6.805
22667WAT      O68242   7.496   0.418   3.121
22667WAT     H168243   7.419   0.378   3.171
22667WAT     H268244   7.473   0.512   3.094
22668WAT      O68245   4.299   2.996   3.486
22668WAT     H168246   4.250   2.965   3.568
22668WAT     H268247   4.376   3.054   3.514
22669WAT      O68248   3.401   7.840   7.369
22669WAT     H168249   3.309   7.801   7.371
22669WAT     H268250   3.396   7.936   7.342
22670WAT      O68251   8.559   4.986   5.082
22670WAT     H168252   8.460   4.973   5.087
22670WAT     H268253   8.594   4.940   5.000
22671WAT      O68254   5.185   2.848   8.117
22671WAT     H168255   5.236   2.931   8.093
22671WAT     H268256   5.088   2.862   8.097
22672WAT      O68257   4.482   3.037   2.911
22672WAT     H168258   4.407   3.102   2.898
22672WAT     H268259   4.455   2.947   2.877
22673WAT      O68260   9.057   7.471   9.374
22673WAT     H168261   8.966   7.511   9.364
22673WAT     H268262   9.078   7.458   9.471
22674WAT      O68263   3.870   0.015   9.671
22674WAT     H168264   3.884   0.095   9.613
22674WAT     H268265   3.880  -0.068   9.616
22675WAT      O68266   4.692   4.517   8.796
22675WAT     H168267   4.722   4.421   8.800
22675WAT     H268268   4.732   4.561   8.715
22676WAT      O68269   9.706   4.104   2.753
22676WAT     H168270   9.680   4.061   2.667
22676WAT     H268271   9.672   4.198   2.755
22677WAT      O68272   5.637   8.120   5.625
22677WAT     H168273   5.603   8.135   5.718
22677WAT     H268274   5.598   8.188   5.564
22678WAT      O68275   2.510   2.638   4.890
22678WAT     H168276   2.475   2.719   4.937
22678WAT     H268277   2.564   2.667   4.810
22679WAT      O68278   9.396   0.948   8.772
22679WAT     H168279   9.311   0.987   8.738
22679WAT     H268280   9.470   1.014   8.760
22680WAT      O68281   8.662   6.078   2.797
22680WAT     H168282   8.670   6.140   2.719
22680WAT     H268283   8.624   6.127   2.875
22681WAT      O68284   0.158   3.785   8.408
22681WAT     H168285   0.071   3.801   8.454
22681WAT     H268286   0.148   3.801   8.310
22682WAT      O68287   4.204   0.599   7.970
22682WAT     H168288   4.143   0.577   7.894
22682WAT     H268289   4.267   0.523   7.985
22683WAT      O68290   8.135   4.054   5.808
22683WAT     H168291   8.117   4.072   5.711
22683WAT     H268292   8.172   3.962   5.819
22684WAT      O68293   2.938   0.106   8.685
22684WAT     H168294   3.012   0.130   8.748
22684WAT     H268295   2.969   0.034   8.623
22685WAT      O68296   7.881   8.485   0.373
22685WAT     H168297   7.946   8.526   0.309
22685WAT     H268298   7.843   8.401   0.333
22686WAT      O68299   6.255   5.250   2.036
22686WAT     H168300   6.260   5.339   2.083
22686WAT     H268301   6.297   5.180   2.093
22687WAT      O68302   2.741   9.241   4.975
22687WAT     H168303   2.719   9.328   5.018
22687WAT     H268304   2.663   9.179   4.982
22688WAT      O68305   6.214   4.129   4.467
22688WAT     H168306   6.145   4.199   4.449
22688WAT     H268307   6.194   4.048   4.412
22689WAT      O68308   7.101   3.293   7.586
22689WAT     H168309   7.189   3.325   7.552
22689WAT     H268310   7.051   3.247   7.513
22690WAT      O68311   4.636   9.757   6.358
22690WAT     H168312   4.732   9.736   6.344
22690WAT     H268313   4.624   9.855   6.371
22691WAT      O68314   3.650   6.364   9.415
22691WAT     H168315   3.627   6.274   9.451
22691WAT     H268316   3.620   6.435   9.479
22692WAT      O68317   2.404   2.058   5.315
22692WAT     H168318   2.420   2.136   5.377
22692WAT     H268319   2.477   1.991   5.327
22693WAT      O68320   7.978   0.536   8.341
22693WAT     H168321   7.922   0.534   8.424
22693WAT     H268322   8.074   0.550   8.366
22694WAT      O68323   7.967   0.706   0.331
22694WAT     H168324   7.872   0.736   0.324
22694WAT     H268325   7.999   0.718   0.425
22695WAT      O68326   0.633   0.408   7.740
22695WAT     H168327   0.689   0.405   7.658
22695WAT     H268328   0.540   0.376   7.719
22696WAT      O68329   1.758   4.138   0.365
22696WAT     H168330   1.809   4.166   0.446
22696WAT     H268331   1.803   4.059   0.323
22697WAT      O68332   1.484   7.340   7.623
22697WAT     H168333   1.446   7.297   7.541
22697WAT     H268334   1.508   7.269   7.690
22698WAT      O68335   7.017   0.647   1.700
22698WAT     H168336   7.087   0.593   1.746
22698WAT     H268337   6.936   0.590   1.683
22699WAT      O68338   8.364   2.800   1.229
22699WAT     H168339   8.358   2.795   1.130
22699WAT     H268340   8.279   2.766   1.269
22700WAT      O68341   8.376   0.967   7.714
22700WAT     H168342   8.394   1.062   7.688
22700WAT     H268343   8.458   0.927   7.755
22701WAT      O68344   0.249   8.227   2.419
22701WAT     H168345   0.314   8.229   2.344
22701WAT     H268346   0.155   8.233   2.383
22702WAT      O68347   9.402   3.121   0.664
22702WAT     H168348   9.397   3.221   0.670
22702WAT     H268349   9.428   3.084   0.754
22703WAT      O68350   8.844   9.333   8.400
22703WAT     H168351   8.932   9.300   8.364
22703WAT     H268352   8.815   9.275   8.476
22704WAT      O68353   5.221   0.183   9.413
22704WAT     H168354   5.286   0.228   9.352
22704WAT     H268355   5.269   0.151   9.495
22705WAT      O68356   4.624   5.349   5.540
22705WAT     H168357   4.627   5.448   5.525
22705WAT     H268358   4.595   5.330   5.634
22706WAT      O68359   4.367   0.962   3.555
22706WAT     H168360   4.450   0.928   3.599
22706WAT     H268361   4.316   1.020   3.619
22707WAT      O68362   6.608   9.073   0.579
22707WAT     H168363   6.661   9.122   0.509
22707WAT     H268364   6.517   9.052   0.544
22708WAT      O68365   7.449   6.169   4.068
22708WAT     H168366   7.351   6.192   4.069
22708WAT     H268367   7.471   6.112   4.147
22709WAT      O68368   7.177   3.987   3.201
22709WAT     H168369   7.223   3.926   3.266
22709WAT     H268370   7.105   4.038   3.248
22710WAT      O68371   0.157   9.135   6.163
22710WAT     H168372   0.157   9.060   6.097
22710WAT     H268373   0.132   9.220   6.116
22711WAT      O68374   5.655   3.377   2.177
22711WAT     H168375   5.723   3.439   2.137
22711WAT     H268376   5.643   3.399   2.274
22712WAT      O68377   9.878   9.442   1.277
22712WAT     H168378   9.917   9.469   1.188
22712WAT     H268379   9.818   9.363   1.264
22713WAT      O68380   1.891   7.701   6.969
22713WAT     H168381   1.792   7.692   6.959
22713WAT     H268382   1.934   7.704   6.879
22714WAT      O68383   9.081   1.224   8.949
22714WAT     H168384   9.088   1.127   8.975
22714WAT     H268385   9.102   1.234   8.852
22715WAT      O68386   7.769   7.396   3.747
22715WAT     H168387   7.810   7.458   3.679
22715WAT     H268388   7.757   7.445   3.834
22716WAT      O68389   3.899   8.566   9.246
22716WAT     H168390   3.956   8.557   9.164
22716WAT     H268391   3.955   8.593   9.324
22717WAT      O68392   8.908   2.103   3.866
22717WAT     H168393   8.969   2.156   3.807
22717WAT     H268394   8.954   2.084   3.953
22718WAT      O68395   6.044   5.088   0.577
22718WAT     H168396   6.137   5.051   0.582
22718WAT     H268397   6.003   5.085   0.668
22719WAT      O68398   5.895   2.418   9.427
22719WAT     H168399   5.904   2.370   9.514
22719WAT     H268400   5.805   2.460   9.421
22720WAT      O68401   5.404   3.339   4.314
22720WAT     H168402   5.375   3.263   4.373
22720WAT     H268403   5.488   3.379   4.351
22721WAT      O68404   7.423   3.495   4.758
22721WAT     H168405   7.464   3.514   4.847
22721WAT     H268406   7.361   3.569   4.732
22722WAT      O68407   1.063   1.829   9.539
22722WAT     H168408   1.155   1.824   9.499
22722WAT     H268409   1.025   1.737   9.547
22723WAT      O68410   5.164   5.415   3.306
22723WAT     H168411   5.251   5.457   3.331
22723WAT     H268412   5.149   5.334   3.362
22724WAT      O68413   0.435   8.979   0.032
22724WAT     H168414   0.489   9.060   0.009
22724WAT     H268415   0.340   9.007   0.049
22725WAT      O68416   0.810   5.852   2.520
22725WAT     H168417   0.819   5.781   2.450
22725WAT     H268418   0.771   5.812   2.603
22726WAT      O68419   1.008   6.364   0.481
22726WAT     H168420   0.915   6.400   0.486
22726WAT     H268421   1.029   6.316   0.567
22727WAT      O68422   4.471   8.954   7.172
22727WAT     H168423   4.384   8.996   7.144
22727WAT     H268424   4.542   9.024   7.172
22728WAT      O68425   6.902   9.753   7.526
22728WAT     H168426   6.806   9.776   7.538
22728WAT     H268427   6.921   9.740   7.429
22729WAT      O68428   8.855   7.771   5.226
22729WAT     H168429   8.800   7.810   5.151
22729WAT     H268430   8.799   7.708   5.279
22730WAT      O68431   0.680   8.616   6.730
22730WAT     H168432   0.710   8.708   6.703
22730WAT     H268433   0.580   8.610   6.720
22731WAT      O68434   2.062   0.338   8.863
22731WAT     H168435   2.093   0.312   8.772
22731WAT     H268436   1.974   0.295   8.881
22732WAT      O68437   0.387   0.607   4.588
22732WAT     H168438   0.487   0.613   4.588
22732WAT     H268439   0.348   0.699   4.593
22733WAT      O68440   5.310   9.470   2.296
22733WAT     H168441   5.387   9.526   2.326
22733WAT     H268442   5.304   9.474   2.196
22734WAT      O68443   1.097   1.177   4.094
22734WAT     H168444   1.007   1.210   4.122
22734WAT     H268445   1.135   1.239   4.025
22735WAT      O68446   6.503   7.722   3.862
22735WAT     H168447   6.498   7.623   3.848
22735WAT     H268448   6.455   7.768   3.788
22736WAT      O68449   6.791   5.002   1.533
22736WAT     H168450   6.783   4.902   1.532
22736WAT     H268451   6.860   5.029   1.601
22737WAT      O68452   3.131   7.367   7.611
22737WAT     H168453   3.131   7.326   7.702
22737WAT     H268454   3.140   7.466   7.619
22738WAT      O68455   7.733   0.054   8.511
22738WAT     H168456   7.704  -0.027   8.459
22738WAT     H268457   7.653   0.109   8.534
22739WAT      O68458   7.605   3.004   1.000
22739WAT     H168459   7.562   2.951   0.927
22739WAT     H268460   7.610   2.950   1.083
22740WAT      O68461   1.607   6.024   8.262
22740WAT     H168462   1.569   6.093   8.200
22740WAT     H268463   1.639   6.068   8.346
22741WAT      O68464   5.775   1.406   1.143
22741WAT     H168465   5.726   1.436   1.061
22741WAT     H268466   5.721   1.337   1.191
22742WAT      O68467   0.703   2.541   8.730
22742WAT     H168468   0.694   2.507   8.637
22742WAT     H268469   0.683   2.468   8.795
22743WAT      O68470   5.280   0.113   3.647
22743WAT     H168471   5.303   0.042   3.580
22743WAT     H268472   5.310   0.202   3.613
22744WAT      O68473   2.813   3.666   9.162
22744WAT     H168474   2.837   3.616   9.079
22744WAT     H268475   2.794   3.601   9.236
22745WAT      O68476   7.783   4.312   8.606
22745WAT     H168477   7.798   4.237   8.671
22745WAT     H268478   7.871   4.343   8.570
22746WAT      O68479   3.800   1.887   7.575
22746WAT     H168480   3.810   1.987   7.575
22746WAT     H268481   3.715   1.863   7.527
22747WAT      O68482   1.610   9.673   7.750
22747WAT     H168483   1.596   9.658   7.848
22747WAT     H268484   1.589   9.768   7.727
22748WAT      O68485   0.824   9.525   4.052
22748WAT     H168486   0.771   9.521   4.137
22748WAT     H268487   0.781   9.465   3.984
22749WAT      O68488   5.151   4.463   2.282
22749WAT     H168489   5.177   4.382   2.335
22749WAT     H268490   5.059   4.492   2.309
22750WAT      O68491   0.726   0.655   6.849
22750WAT     H168492   0.655   0.693   6.907
22750WAT     H268493   0.706   0.559   6.830
22751WAT      O68494   6.976   9.774   6.385
22751WAT     H168495   7.000   9.684   6.349
22751WAT     H268496   6.924   9.764   6.469
22752WAT      O68497   3.806   6.908   7.994
22752WAT     H168498   3.845   6.816   8.003
22752WAT     H268499   3.844   6.967   8.066
22753WAT      O68500   2.693   5.962   3.514
22753WAT     H168501   2.606   5.968   3.466
22753WAT     H268502   2.735   5.873   3.495
22754WAT      O68503   9.790   2.531   0.846
22754WAT     H168504   9.785   2.433   0.823
22754WAT     H268505   9.884   2.562   0.837
22755WAT      O68506   6.065   7.787   8.881
22755WAT     H168507   6.016   7.766   8.796
22755WAT     H268508   6.146   7.729   8.887
22756WAT      O68509   0.392   1.076   0.361
22756WAT     H168510   0.451   1.137   0.414
22756WAT     H268511   0.335   1.023   0.424
22757WAT      O68512   1.480   4.107   0.377
22757WAT     H168513   1.577   4.121   0.399
22757WAT     H268514   1.472   4.052   0.294
22758WAT      O68515   0.674   2.101   3.110
22758WAT     H168516   0.698   2.184   3.060
22758WAT     H268517   0.575   2.088   3.108
22759WAT      O68518   4.005   3.273   4.628
22759WAT     H168519   4.011   3.273   4.728
22759WAT     H268520   3.997   3.178   4.595
22760WAT      O68521   9.691   7.816   6.052
22760WAT     H168522   9.595   7.822   6.077
22760WAT     H268523   9.709   7.727   6.010
22761WAT      O68524   1.534   4.052   3.372
22761WAT     H168525   1.611   4.027   3.431
22761WAT     H268526   1.528   4.152   3.366
22762WAT      O68527   9.824   5.924   4.862
22762WAT     H168528   9.730   5.936   4.829
22762WAT     H268529   9.838   5.981   4.943
22763WAT      O68530   0.942   0.853   7.277
22763WAT     H168531   0.886   0.921   7.229
22763WAT     H268532   0.999   0.804   7.211
22764WAT      O68533   8.473   6.906   1.228
22764WAT     H168534   8.532   6.906   1.309
22764WAT     H268535   8.529   6.892   1.146
22765WAT      O68536   0.055   7.717   8.275
22765WAT     H168537   0.078   7.626   8.239
22765WAT     H268538  -0.028   7.750   8.231
22766WAT      O68539   9.166   7.291   7.092
22766WAT     H168540   9.078   7.284   7.045
22766WAT     H268541   9.152   7.315   7.188
22767WAT      O68542   3.131   7.563   9.858
22767WAT     H168543   3.054   7.598   9.805
22767WAT     H268544   3.213   7.561   9.801
22768WAT      O68545   4.149   1.650   6.151
22768WAT     H168546   4.140   1.552   6.129
22768WAT     H268547   4.245   1.675   6.152
22769WAT      O68548   5.106   6.005   7.763
22769WAT     H168549   5.196   6.002   7.806
22769WAT     H268550   5.116   6.023   7.665
22770WAT      O68551   8.520   5.621   9.220
22770WAT     H168552   8.576   5.643   9.141
22770WAT     H268553   8.430   5.590   9.190
22771WAT      O68554   5.568   2.110   8.155
22771WAT     H168555   5.594   2.122   8.251
22771WAT     H268556   5.552   2.013   8.136
22772WAT      O68557   3.897   0.450   0.615
22772WAT     H168558   3.954   0.523   0.654
22772WAT     H268559   3.956   0.378   0.579
22773WAT      O68560   5.680   1.907   3.246
22773WAT     H168561   5.601   1.954   3.206
22773WAT     H268562   5.699   1.823   3.195
22774WAT      O68563   5.279   6.032   8.309
22774WAT     H168564   5.346   6.046   8.381
22774WAT     H268565   5.277   5.936   8.283
22775WAT      O68566   6.787   6.515   1.977
22775WAT     H168567   6.881   6.532   2.006
22775WAT     H268568   6.744   6.449   2.039
22776WAT      O68569   8.792   6.487   3.242
22776WAT     H168570   8.721   6.492   3.312
22776WAT     H268571   8.882   6.482   3.285
22777WAT      O68572   3.881   8.850   6.501
22777WAT     H168573   3.885   8.852   6.401
22777WAT     H268574   3.846   8.937   6.535
22778WAT      O68575   8.282   0.948   3.831
22778WAT     H168576   8.357   0.946   3.897
22778WAT     H268577   8.270   1.042   3.797
22779WAT      O68578   6.239   0.156   4.504
22779WAT     H168579   6.196   0.151   4.594
22779WAT     H268580   6.337   0.137   4.513
22780WAT      O68581   0.463   6.776   4.919
22780WAT     H168582   0.561   6.775   4.901
22780WAT     H268583   0.417   6.714   4.857
22781WAT      O68584   8.373   2.941   8.924
22781WAT     H168585   8.441   2.873   8.897
22781WAT     H268586   8.383   2.961   9.022
22782WAT      O68587   0.818   4.390   3.306
22782WAT     H168588   0.848   4.463   3.246
22782WAT     H268589   0.847   4.409   3.400
22783WAT      O68590   8.178   2.114   9.810
22783WAT     H168591   8.158   2.059   9.729
22783WAT     H268592   8.273   2.144   9.808
22784WAT      O68593   1.954   1.973   0.451
22784WAT     H168594   1.896   2.048   0.420
22784WAT     H268595   2.050   2.000   0.447
22785WAT      O68596   2.431   3.879   0.876
22785WAT     H168597   2.377   3.903   0.957
22785WAT     H268598   2.517   3.929   0.877
22786WAT      O68599   3.831   0.623   2.047
22786WAT     H168600   3.765   0.675   1.994
22786WAT     H268601   3.844   0.533   2.004
22787WAT      O68602   2.805   4.344   9.182
22787WAT     H168603   2.855   4.407   9.242
22787WAT     H268604   2.709   4.343   9.208
22788WAT      O68605   1.459   6.147   9.357
22788WAT     H168606   1.412   6.184   9.276
22788WAT     H268607   1.534   6.208   9.383
22789WAT      O68608   5.196   3.338   0.738
22789WAT     H168609   5.101   3.365   0.751
22789WAT     H268610   5.250   3.417   0.708
22790WAT      O68611   1.906   4.937   2.509
22790WAT     H168612   1.877   4.989   2.589
22790WAT     H268613   1.998   4.903   2.522
22791WAT      O68614   0.105   0.944   8.120
22791WAT     H168615   0.056   1.015   8.171
22791WAT     H268616   0.153   0.986   8.043
22792WAT      O68617   3.434   9.837   5.826
22792WAT     H168618   3.394   9.883   5.905
22792WAT     H268619   3.361   9.813   5.762
22793WAT      O68620   9.619   1.440   6.537
22793WAT     H168621   9.675   1.357   6.535
22793WAT     H268622   9.626   1.483   6.628
22794WAT      O68623   2.452   8.226   9.385
22794WAT     H168624   2.463   8.232   9.286
22794WAT     H268625   2.541   8.236   9.429
22795WAT      O68626   8.448   2.034   1.636
22795WAT     H168627   8.378   1.963   1.642
22795WAT     H268628   8.522   2.003   1.576
22796WAT      O68629   1.763   1.032   5.245
22796WAT     H168630   1.761   0.954   5.183
22796WAT     H268631   1.708   1.011   5.327
22797WAT      O68632   4.569   2.118   3.362
22797WAT     H168633   4.476   2.088   3.341
22797WAT     H268634   4.587   2.206   3.319
22798WAT      O68635   4.796   1.180   1.410
22798WAT     H168636   4.855   1.130   1.347
22798WAT     H268637   4.740   1.245   1.358
22799WAT      O68638   6.397   4.126   8.799
22799WAT     H168639   6.473   4.112   8.735
22799WAT     H268640   6.390   4.223   8.822
22800WAT      O68641   8.956   8.904   4.526
22800WAT     H168642   8.994   8.965   4.456
22800WAT     H268643   8.885   8.846   4.484
22801WAT      O68644   0.949   3.567   7.164
22801WAT     H168645   0.895   3.638   7.121
22801WAT     H268646   0.958   3.489   7.102
22802WAT      O68647   2.660   7.920   1.273
22802WAT     H168648   2.659   7.965   1.362
22802WAT     H268649   2.598   7.967   1.211
22803WAT      O68650   7.945   2.256   0.785
22803WAT     H168651   7.914   2.311   0.864
22803WAT     H268652   7.910   2.163   0.795
22804WAT      O68653   3.396   3.020   4.847
22804WAT     H168654   3.419   3.079   4.770
22804WAT     H268655   3.310   3.051   4.888
22805WAT      O68656   0.935   7.531   1.307
22805WAT     H168657   0.870   7.599   1.342
22805WAT     H268658   1.027   7.570   1.309
22806WAT      O68659   8.717   3.751   1.792
22806WAT     H168660   8.720   3.819   1.865
22806WAT     H268661   8.635   3.766   1.736
22807WAT      O68662   9.063   4.990   8.252
22807WAT     H168663   9.103   4.911   8.205
22807WAT     H268664   9.135   5.054   8.278
22808WAT      O68665   7.437   1.482   0.689
22808WAT     H168666   7.489   1.529   0.760
22808WAT     H268667   7.482   1.395   0.668
22809WAT      O68668   5.591   3.970   7.176
22809WAT     H168669   5.604   4.021   7.260
22809WAT     H268670   5.520   3.901   7.189
22810WAT      O68671   9.517   9.648   2.034
22810WAT     H168672   9.454   9.699   2.092
22810WAT     H268673   9.526   9.695   1.946
22811WAT      O68674   9.452   3.543   3.365
22811WAT     H168675   9.377   3.524   3.301
22811WAT     H268676   9.426   3.512   3.457
22812WAT      O68677   6.869   0.457   0.265
22812WAT     H168678   6.960   0.484   0.293
22812WAT     H268679   6.828   0.398   0.336
22813WAT      O68680   4.844   7.519   3.500
22813WAT     H168681   4.846   7.583   3.423
22813WAT     H268682   4.751   7.511   3.535
22814WAT      O68683   6.078   2.698   4.478
22814WAT     H168684   6.044   2.731   4.390
22814WAT     H268685   6.128   2.771   4.524
22815WAT      O68686   4.340   0.046   7.038
22815WAT     H168687   4.347  -0.052   7.055
22815WAT     H268688   4.244   0.075   7.048
22816WAT      O68689   9.667   5.939   4.522
22816WAT     H168690   9.589   5.881   4.501
22816WAT     H268691   9.747   5.882   4.540
22817WAT      O68692   8.929   4.164   7.452
22817WAT     H168693   9.006   4.222   7.424
22817WAT     H268694   8.943   4.134   7.547
22818WAT      O68695   0.535   5.896   0.069
22818WAT     H168696   0.453   5.855   0.029
22818WAT     H268697   0.612   5.883   0.006
22819WAT      O68698   1.118   9.458   0.790
22819WAT     H168699   1.163   9.521   0.853
22819WAT     H268700   1.103   9.504   0.702
22820WAT      O68701   5.116   1.394   1.236
22820WAT     H168702   5.099   1.321   1.302
22820WAT     H268703   5.111   1.483   1.282
22821WAT      O68704   4.753   6.115   2.244
22821WAT     H168705   4.740   6.059   2.162
22821WAT     H268706   4.804   6.198   2.221
22822WAT      O68707   9.259   3.168   3.711
22822WAT     H168708   9.343   3.150   3.762
22822WAT     H268709   9.187   3.196   3.774
22823WAT      O68710   7.323   0.491   5.400
22823WAT     H168711   7.384   0.412   5.406
22823WAT     H268712   7.345   0.545   5.319
22824WAT      O68713   4.457   9.218   0.220
22824WAT     H168714   4.512   9.141   0.188
22824WAT     H268715   4.431   9.275   0.142
22825WAT      O68716   9.858   9.487   9.422
22825WAT     H168717   9.832   9.565   9.479
22825WAT     H268718   9.776   9.449   9.378
22826WAT      O68719   1.386   4.341   5.314
22826WAT     H168720   1.474   4.356   5.359
22826WAT     H268721   1.336   4.428   5.309
22827WAT      O68722   1.948   9.724   7.625
22827WAT     H168723   2.021   9.748   7.561
22827WAT     H268724   1.880   9.667   7.578
22828WAT      O68725   9.217   9.411   6.897
22828WAT     H168726   9.190   9.338   6.960
22828WAT     H268727   9.257   9.487   6.949
22829WAT      O68728   7.058   5.667   3.098
22829WAT     H168729   7.067   5.695   3.002
22829WAT     H268730   7.011   5.739   3.149
22830WAT      O68731   7.262   9.344   1.537
22830WAT     H168732   7.220   9.408   1.473
22830WAT     H268733   7.341   9.387   1.581
22831WAT      O68734   7.605   1.865   2.137
22831WAT     H168735   7.569   1.775   2.160
22831WAT     H268736   7.606   1.876   2.038
22832WAT      O68737   3.174   5.665   1.061
22832WAT     H168738   3.154   5.760   1.086
22832WAT     H268739   3.161   5.606   1.140
22833WAT      O68740   6.571   6.912   2.289
22833WAT     H168741   6.623   6.954   2.364
22833WAT     H268742   6.487   6.873   2.326
22834WAT      O68743   6.126   4.301   2.265
22834WAT     H168744   6.079   4.214   2.246
22834WAT     H268745   6.166   4.298   2.356
22835WAT      O68746   6.210   3.054   7.719
22835WAT     H168747   6.114   3.070   7.742
22835WAT     H268748   6.266   3.062   7.802
22836WAT      O68749   4.119   1.833   1.990
22836WAT     H168750   4.155   1.924   2.007
22836WAT     H268751   4.029   1.824   2.033
22837WAT      O68752   1.467   8.414   4.110
22837WAT     H168753   1.529   8.437   4.035
22837WAT     H268754   1.468   8.487   4.178
22838WAT      O68755   5.032   1.603   6.550
22838WAT     H168756   5.068   1.696   6.550
22838WAT     H268757   5.087   1.545   6.490
22839WAT      O68758   0.577   0.611   2.063
22839WAT     H168759   0.672   0.605   2.092
22839WAT     H268760   0.571   0.595   1.964
22840WAT      O68761   2.984   5.416   1.564
22840WAT     H168762   2.967   5.498   1.620
22840WAT     H268763   3.071   5.427   1.516
22841WAT      O68764   1.602   1.272   8.702
22841WAT     H168765   1.688   1.226   8.678
22841WAT     H268766   1.610   1.370   8.682
22842WAT      O68767   9.708   4.220   4.081
22842WAT     H168768   9.608   4.225   4.076
22842WAT     H268769   9.738   4.129   4.055
22843WAT      O68770   1.238   5.696   3.089
22843WAT     H168771   1.305   5.642   3.141
22843WAT     H268772   1.155   5.707   3.144
22844WAT      O68773   7.809   2.219   4.380
22844WAT     H168774   7.881   2.154   4.357
22844WAT     H268775   7.850   2.308   4.400
22845WAT      O68776   8.367   7.711   8.106
22845WAT     H168777   8.456   7.755   8.119
22845WAT     H268778   8.342   7.715   8.010
22846WAT      O68779   0.273   5.255   4.605
22846WAT     H168780   0.343   5.193   4.571
22846WAT     H268781   0.252   5.324   4.536
22847WAT      O68782   5.132   4.996   3.901
22847WAT     H168783   5.035   5.016   3.891
22847WAT     H268784   5.174   5.065   3.961
22848WAT      O68785   4.021   8.140   0.022
22848WAT     H168786   4.074   8.083   0.085
22848WAT     H268787   4.034   8.108  -0.072
22849WAT      O68788   8.761   8.465   5.063
22849WAT     H168789   8.686   8.448   4.999
22849WAT     H268790   8.847   8.432   5.023
22850WAT      O68791   9.735   3.572   3.280
22850WAT     H168792   9.644   3.540   3.305
22850WAT     H268793   9.787   3.497   3.239
22851WAT      O68794   1.956   0.088   7.833
22851WAT     H168795   1.961   0.011   7.770
22851WAT     H268796   1.894   0.066   7.909
22852WAT      O68797   6.192   0.022   9.479
22852WAT     H168798   6.157   0.115   9.488
22852WAT     H268799   6.167  -0.031   9.560
22853WAT      O68800   2.667   9.292   1.979
22853WAT     H168801   2.587   9.314   2.034
22853WAT     H268802   2.733   9.241   2.034
22854WAT      O68803   2.483   0.668   5.721
22854WAT     H168804   2.459   0.737   5.790
22854WAT     H268805   2.561   0.699   5.668
22855WAT      O68806   8.859   4.623   6.177
22855WAT     H168807   8.917   4.697   6.143
22855WAT     H268808   8.911   4.538   6.181
22856WAT      O68809   6.125   6.106   6.130
22856WAT     H168810   6.203   6.057   6.171
22856WAT     H268811   6.052   6.114   6.198
22857WAT      O68812   6.183   2.459   6.469
22857WAT     H168813   6.142   2.541   6.507
22857WAT     H268814   6.275   2.447   6.506
22858WAT      O68815   8.860   5.327   7.828
22858WAT     H168816   8.871   5.240   7.780
22858WAT     H268817   8.783   5.378   7.789
22859WAT      O68818   1.946   1.191   0.290
22859WAT     H168819   1.898   1.116   0.245
22859WAT     H268820   2.041   1.194   0.256
22860WAT      O68821   7.521   8.893   4.099
22860WAT     H168822   7.426   8.861   4.109
22860WAT     H268823   7.563   8.848   4.021
22861WAT      O68824   2.831   3.498   7.770
22861WAT     H168825   2.927   3.517   7.790
22861WAT     H268826   2.818   3.399   7.758
22862WAT      O68827   4.862   2.580   8.895
22862WAT     H168828   4.826   2.592   8.803
22862WAT     H268829   4.838   2.488   8.928
22863WAT      O68830   4.549   1.238   0.565
22863WAT     H168831   4.493   1.242   0.648
22863WAT     H268832   4.628   1.298   0.576
22864WAT      O68833   1.709   8.385   2.105
22864WAT     H168834   1.652   8.425   2.033
22864WAT     H268835   1.795   8.436   2.111
22865WAT      O68836   1.907   1.804   7.736
22865WAT     H168837   1.969   1.726   7.741
22865WAT     H268838   1.955   1.886   7.767
22866WAT      O68839   9.791   4.878   7.209
22866WAT     H168840   9.795   4.794   7.263
22866WAT     H268841   9.718   4.937   7.245
22867WAT      O68842   6.607   8.483   8.133
22867WAT     H168843   6.688   8.512   8.183
22867WAT     H268844   6.580   8.391   8.162
22868WAT      O68845   3.495   7.665   6.228
22868WAT     H168846   3.486   7.673   6.129
22868WAT     H268847   3.494   7.757   6.269
22869WAT      O68848   4.681   6.974   9.503
22869WAT     H168849   4.683   7.031   9.585
22869WAT     H268850   4.591   6.931   9.495
22870WAT      O68851   1.387   1.626   6.044
22870WAT     H168852   1.352   1.649   5.953
22870WAT     H268853   1.358   1.534   6.069
22871WAT      O68854   3.879   4.735   4.790
22871WAT     H168855   3.928   4.756   4.706
22871WAT     H268856   3.842   4.642   4.784
22872WAT      O68857   1.954   9.243   7.185
22872WAT     H168858   2.020   9.289   7.125
22872WAT     H268859   1.911   9.167   7.135
22873WAT      O68860   2.403   9.010   6.847
22873WAT     H168861   2.485   9.053   6.810
22873WAT     H268862   2.393   9.033   6.943
22874WAT      O68863   2.501   2.727   7.693
22874WAT     H168864   2.543   2.638   7.712
22874WAT     H268865   2.497   2.742   7.594
22875WAT      O68866   4.146   6.234   7.552
22875WAT     H168867   4.235   6.190   7.540
22875WAT     H268868   4.132   6.301   7.480
22876WAT      O68869   7.436   6.975   1.860
22876WAT     H168870   7.417   6.879   1.881
22876WAT     H268871   7.533   6.985   1.837
22877WAT      O68872   9.143   7.695   1.226
22877WAT     H168873   9.203   7.760   1.272
22877WAT     H268874   9.113   7.733   1.138
22878WAT      O68875   2.151   6.277   3.057
22878WAT     H168876   2.140   6.263   3.155
22878WAT     H268877   2.062   6.270   3.012
22879WAT      O68878   4.299   3.523   1.399
22879WAT     H168879   4.348   3.567   1.324
22879WAT     H268880   4.206   3.500   1.370
22880WAT      O68881   1.183   1.548   7.052
22880WAT     H168882   1.248   1.518   6.982
22880WAT     H268883   1.232   1.565   7.137
22881WAT      O68884   4.305   0.925   4.414
22881WAT     H168885   4.388   0.974   4.440
22881WAT     H268886   4.241   0.926   4.491
22882WAT      O68887   5.540   6.780   0.718
22882WAT     H168888   5.603   6.744   0.787
22882WAT     H268889   5.501   6.867   0.750
22883WAT      O68890   2.686   1.899   1.801
22883WAT     H168891   2.654   1.987   1.838
22883WAT     H268892   2.743   1.854   1.869
22884WAT      O68893   7.978   4.335   6.316
22884WAT     H168894   8.046   4.365   6.249
22884WAT     H268895   7.916   4.268   6.273
22885WAT      O68896   6.147   7.849   3.420
22885WAT     H168897   6.209   7.856   3.498
22885WAT     H268898   6.054   7.831   3.452
22886WAT      O68899   7.241   4.237   7.720
22886WAT     H168900   7.175   4.298   7.676
22886WAT     H268901   7.285   4.285   7.796
22887WAT      O68902   5.594   8.497   7.462
22887WAT     H168903   5.627   8.486   7.555
22887WAT     H268904   5.586   8.407   7.418
22888WAT      O68905   9.444   1.603   6.430
22888WAT     H168906   9.452   1.609   6.331
22888WAT     H268907   9.509   1.536   6.466
22889WAT      O68908   8.203   9.417   7.356
22889WAT     H168909   8.222   9.511   7.385
22889WAT     H268910   8.288   9.370   7.335
22890WAT      O68911   8.273   0.234   6.896
22890WAT     H168912   8.231   0.289   6.968
22890WAT     H268913   8.210   0.225   6.820
22891WAT      O68914   4.638   8.672   2.429
22891WAT     H168915   4.620   8.601   2.497
22891WAT     H268916   4.566   8.672   2.360
22892WAT      O68917   5.962   9.346   7.704
22892WAT     H168918   5.987   9.379   7.613
22892WAT     H268919   5.862   9.345   7.713
22893WAT      O68920   5.542   5.605   2.952
22893WAT     H168921   5.639   5.616   2.930
22893WAT     H268922   5.528   5.627   3.049
22894WAT      O68923   9.628   9.606   0.609
22894WAT     H168924   9.548   9.573   0.660
22894WAT     H268925   9.622   9.705   0.597
22895WAT      O68926   5.730   9.789   5.767
22895WAT     H168927   5.658   9.769   5.701
22895WAT     H268928   5.689   9.815   5.854
22896WAT      O68929   0.037   8.946   3.627
22896WAT     H168930   0.062   9.008   3.701
22896WAT     H268931   0.019   8.998   3.543
22897WAT      O68932   6.123   9.666   0.359
22897WAT     H168933   6.100   9.758   0.389
22897WAT     H268934   6.201   9.669   0.296
22898WAT      O68935   3.737   8.601   2.313
22898WAT     H168936   3.812   8.655   2.352
22898WAT     H268937   3.764   8.505   2.307
22899WAT      O68938   6.535   8.514   1.987
22899WAT     H168939   6.546   8.461   2.071
22899WAT     H268940   6.470   8.588   2.003
22900WAT      O68941   6.615   0.530   8.946
22900WAT     H168942   6.610   0.628   8.962
22900WAT     H268943   6.606   0.511   8.849
22901WAT      O68944   2.885   2.142   6.253
22901WAT     H168945   2.973   2.186   6.236
22901WAT     H268946   2.818   2.211   6.280
22902WAT      O68947   6.745   9.078   6.728
22902WAT     H168948   6.670   9.024   6.689
22902WAT     H268949   6.831   9.053   6.683
22903WAT      O68950   6.875   4.508   4.710
22903WAT     H168951   6.890   4.491   4.613
22903WAT     H268952   6.821   4.434   4.749
22904WAT      O68953   8.693   5.032   3.521
22904WAT     H168954   8.694   4.964   3.595
22904WAT     H268955   8.762   5.102   3.539
22905WAT      O68956   9.454   6.167   0.237
22905WAT     H168957   9.448   6.080   0.189
22905WAT     H268958   9.367   6.188   0.281
22906WAT      O68959   1.607   0.347   5.856
22906WAT     H168960   1.611   0.248   5.840
22906WAT     H268961   1.513   0.379   5.849
22907WAT      O68962   1.354   4.071   6.046
22907WAT     H168963   1.288   3.998   6.028
22907WAT     H268964   1.347   4.100   6.141
22908WAT      O68965   4.171   5.466   3.234
22908WAT     H168966   4.269   5.484   3.221
22908WAT     H268967   4.156   5.425   3.323
22909WAT      O68968   2.629   0.173   3.125
22909WAT     H168969   2.620   0.129   3.214
22909WAT     H268970   2.603   0.269   3.132
22910WAT      O68971   1.927   0.233   5.726
22910WAT     H168972   2.023   0.211   5.709
22910WAT     H268973   1.890   0.281   5.647
22911WAT      O68974   1.077   9.025   9.535
22911WAT     H168975   1.165   9.070   9.522
22911WAT     H268976   1.082   8.932   9.499
22912WAT      O68977   7.565   4.892   3.862
22912WAT     H168978   7.495   4.957   3.835
22912WAT     H268979   7.642   4.898   3.798
22913WAT      O68980   3.472   3.884   4.903
22913WAT     H168981   3.462   3.787   4.882
22913WAT     H268982   3.387   3.919   4.944
22914WAT      O68983   8.935   9.601   8.420
22914WAT     H168984   8.938   9.617   8.519
22914WAT     H268985   8.894   9.512   8.402
22915WAT      O68986   4.737   1.206   6.839
22915WAT     H168987   4.651   1.156   6.834
22915WAT     H268988   4.759   1.242   6.748
22916WAT      O68989   4.447   5.255   8.578
22916WAT     H168990   4.396   5.170   8.589
22916WAT     H268991   4.402   5.312   8.509
22917WAT      O68992   0.046   3.218   6.441
22917WAT     H168993  -0.052   3.228   6.430
22917WAT     H268994   0.083   3.166   6.364
22918WAT      O68995   0.280   8.424   1.509
22918WAT     H168996   0.313   8.518   1.514
22918WAT     H268997   0.350   8.362   1.544
22919WAT      O68998   8.664   3.130   9.413
22919WAT     H168999   8.587   3.071   9.386
22919WAT     H269000   8.693   3.107   9.505
22920WAT      O69001   8.103   1.663   1.739
22920WAT     H169002   8.203   1.662   1.745
22920WAT     H269003   8.067   1.743   1.786
22921WAT      O69004   8.378   9.566   2.087
22921WAT     H169005   8.449   9.506   2.124
22921WAT     H269006   8.420   9.637   2.031
22922WAT      O69007   7.051   8.001   1.227
22922WAT     H169008   7.053   7.947   1.143
22922WAT     H269009   7.069   8.097   1.204
22923WAT      O69010   8.583   2.700   4.340
22923WAT     H169011   8.553   2.768   4.273
22923WAT     H269012   8.542   2.611   4.316
22924WAT      O69013   4.703   2.486   7.201
22924WAT     H169014   4.732   2.463   7.109
22924WAT     H269015   4.615   2.534   7.198
22925WAT      O69016   6.491   1.516   4.262
22925WAT     H169017   6.441   1.564   4.334
22925WAT     H269018   6.427   1.488   4.189
22926WAT      O69019   8.232   9.011   5.000
22926WAT     H169020   8.173   8.984   4.923
22926WAT     H269021   8.286   9.091   4.973
22927WAT      O69022   6.126   4.346   7.930
22927WAT     H169023   6.091   4.289   8.004
22927WAT     H269024   6.226   4.341   7.928
22928WAT      O69025   3.393   1.034   0.093
22928WAT     H169026   3.343   1.074   0.016
22928WAT     H269027   3.359   1.073   0.178
22929WAT      O69028   9.666   0.053   8.013
22929WAT     H169029   9.694  -0.026   7.958
22929WAT     H269030   9.588   0.098   7.969
22930WAT      O69031   2.661   1.275   3.386
22930WAT     H169032   2.632   1.249   3.293
22930WAT     H269033   2.581   1.284   3.445
22931WAT      O69034   8.449   5.016   4.650
22931WAT     H169035   8.429   5.094   4.709
22931WAT     H269036   8.371   4.953   4.650
22932WAT      O69037   0.997   9.212   2.889
22932WAT     H169038   1.017   9.171   2.799
22932WAT     H269039   0.932   9.286   2.877
22933WAT      O69040   5.880   1.425   4.175
22933WAT     H169041   5.856   1.342   4.124
22933WAT     H269042   5.973   1.417   4.209
22934WAT      O69043   9.596   6.834   8.670
22934WAT     H169044   9.619   6.922   8.713
22934WAT     H269045   9.502   6.809   8.695
22935WAT      O69046   0.036   3.914   0.218
22935WAT     H169047   0.129   3.951   0.214
22935WAT     H269048  -0.017   3.951   0.141
22936WAT      O69049   8.697   3.873   8.860
22936WAT     H169050   8.776   3.913   8.906
22936WAT     H269051   8.666   3.792   8.909
22937WAT      O69052   3.830   0.501   5.266
22937WAT     H169053   3.737   0.481   5.296
22937WAT     H269054   3.890   0.506   5.345
22938WAT      O69055   6.008   2.607   9.887
22938WAT     H169056   5.973   2.698   9.907
22938WAT     H269057   6.051   2.569   9.969
22939WAT      O69058   1.712   0.401   1.611
22939WAT     H169059   1.676   0.308   1.607
22939WAT     H269060   1.812   0.398   1.617
22940WAT      O69061   5.704   0.866   4.915
22940WAT     H169062   5.607   0.846   4.927
22940WAT     H269063   5.743   0.804   4.848
22941WAT      O69064   5.165   0.186   4.084
22941WAT     H169065   5.247   0.215   4.132
22941WAT     H269066   5.085   0.236   4.118
22942WAT      O69067   5.565   7.255   4.990
22942WAT     H169068   5.594   7.347   4.966
22942WAT     H269069   5.640   7.207   5.036
22943WAT      O69070   4.403   1.711   5.660
22943WAT     H169071   4.472   1.778   5.687
22943WAT     H269072   4.367   1.667   5.742
22944WAT      O69073   2.671   6.345   5.823
22944WAT     H169074   2.629   6.434   5.845
22944WAT     H269075   2.689   6.341   5.724
22945WAT      O69076   9.033   7.812   4.267
22945WAT     H169077   9.091   7.808   4.349
22945WAT     H269078   8.979   7.729   4.260
22946WAT      O69079   8.725   8.907   9.169
22946WAT     H169080   8.822   8.924   9.154
22946WAT     H269081   8.682   8.989   9.207
22947WAT      O69082   9.684   5.992   0.583
22947WAT     H169083   9.749   6.020   0.654
22947WAT     H269084   9.715   6.025   0.494
22948WAT      O69085   2.817   4.514   2.055
22948WAT     H169086   2.796   4.452   2.131
22948WAT     H269087   2.911   4.500   2.025
22949WAT      O69088   5.381   8.982   8.415
22949WAT     H169089   5.308   8.915   8.422
22949WAT     H269090   5.416   9.004   8.507
22950WAT      O69091   3.836   7.492   4.989
22950WAT     H169092   3.859   7.564   5.054
22950WAT     H269093   3.828   7.531   4.898
22951WAT      O69094   6.551   4.426   9.648
22951WAT     H169095   6.612   4.349   9.626
22951WAT     H269096   6.592   4.511   9.616
22952WAT      O69097   4.481   5.255   5.774
22952WAT     H169098   4.436   5.176   5.732
22952WAT     H269099   4.427   5.287   5.852
22953WAT      O69100   4.425   2.804   6.578
22953WAT     H169101   4.406   2.788   6.481
22953WAT     H269102   4.363   2.748   6.633
22954WAT      O69103   6.037   2.807   9.137
22954WAT     H169104   6.076   2.892   9.172
22954WAT     H269105   6.105   2.733   9.146
22955WAT      O69106   0.961   5.997   2.800
22955WAT     H169107   0.865   5.970   2.794
22955WAT     H269108   1.001   6.001   2.709
22956WAT      O69109   9.132   7.458   1.360
22956WAT     H169110   9.044   7.411   1.361
22956WAT     H269111   9.134   7.525   1.286
22957WAT      O69112   8.721   7.434   1.219
22957WAT     H169113   8.725   7.532   1.238
22957WAT     H269114   8.628   7.410   1.190
22958WAT      O69115   3.247   5.700   1.384
22958WAT     H169116   3.334   5.727   1.342
22958WAT     H269117   3.257   5.610   1.426
22959WAT      O69118   8.464   4.993   6.129
22959WAT     H169119   8.459   4.977   6.030
22959WAT     H269120   8.399   4.934   6.176
22960WAT      O69121   1.777   1.082   7.936
22960WAT     H169122   1.789   0.983   7.929
22960WAT     H269123   1.863   1.128   7.912
22961WAT      O69124   8.638   4.375   4.526
22961WAT     H169125   8.630   4.473   4.507
22961WAT     H269126   8.589   4.323   4.456
22962WAT      O69127   3.728   7.081   5.692
22962WAT     H169128   3.684   7.050   5.608
22962WAT     H269129   3.781   7.164   5.674
22963WAT      O69130   2.059   7.002   0.518
22963WAT     H169131   2.065   6.904   0.496
22963WAT     H269132   2.043   7.053   0.434
22964WAT      O69133   2.178   4.489   9.854
22964WAT     H169134   2.225   4.577   9.861
22964WAT     H269135   2.245   4.415   9.860
22965WAT      O69136   2.364   8.540   6.036
22965WAT     H169137   2.388   8.560   6.131
22965WAT     H269138   2.266   8.555   6.023
22966WAT      O69139   9.689   6.355   1.730
22966WAT     H169140   9.664   6.259   1.739
22966WAT     H269141   9.633   6.397   1.659
22967WAT      O69142   0.594   0.088   3.377
22967WAT     H169143   0.605   0.160   3.309
22967WAT     H269144   0.683   0.063   3.414
22968WAT      O69145   2.224   8.194   3.659
22968WAT     H169146   2.322   8.199   3.637
22968WAT     H269147   2.175   8.265   3.609
22969WAT      O69148   8.066   5.172   8.064
22969WAT     H169149   8.117   5.092   8.095
22969WAT     H269150   8.106   5.254   8.103
22970WAT      O69151   3.034   8.100   5.904
22970WAT     H169152   3.099   8.177   5.902
22970WAT     H269153   3.072   8.026   5.959
22971WAT      O69154   8.372   5.228   4.789
22971WAT     H169155   8.445   5.254   4.853
22971WAT     H269156   8.386   5.274   4.702
22972WAT      O69157   6.367   5.571   8.292
22972WAT     H169158   6.302   5.625   8.239
22972WAT     H269159   6.357   5.592   8.390
22973WAT      O69160   4.698   1.907   5.989
22973WAT     H169161   4.796   1.909   5.973
22973WAT     H269162   4.671   1.815   6.019
22974WAT      O69163   2.603   6.368   8.764
22974WAT     H169164   2.568   6.285   8.722
22974WAT     H269165   2.533   6.408   8.824
22975WAT      O69166   3.803   6.843   3.883
22975WAT     H169167   3.804   6.936   3.921
22975WAT     H269168   3.896   6.813   3.864
22976WAT      O69169   9.023   6.053   0.589
22976WAT     H169170   8.951   6.098   0.641
22976WAT     H269171   9.102   6.115   0.581
22977WAT      O69172   1.138   9.512   8.353
22977WAT     H169173   1.068   9.564   8.304
22977WAT     H269174   1.096   9.465   8.431
22978WAT      O69175   1.986   3.746   3.479
22978WAT     H169176   1.925   3.741   3.558
22978WAT     H269177   2.069   3.693   3.499
22979WAT      O69178   3.479   9.814   4.478
22979WAT     H169179   3.396   9.819   4.535
22979WAT     H269180   3.452   9.806   4.382
22980WAT      O69181   7.934   1.089   0.521
22980WAT     H169182   7.925   1.077   0.422
22980WAT     H269183   8.027   1.068   0.550
22981WAT      O69184   8.758   8.022   8.531
22981WAT     H169185   8.662   8.052   8.537
22981WAT     H269186   8.777   7.956   8.604
22982WAT      O69187   6.800   6.946   0.913
22982WAT     H169188   6.740   6.923   0.837
22982WAT     H269189   6.818   7.044   0.912
22983WAT      O69190   0.364   6.306   4.487
22983WAT     H169191   0.267   6.328   4.486
22983WAT     H269192   0.377   6.208   4.472
22984WAT      O69193   9.518   4.650   0.217
22984WAT     H169194   9.566   4.641   0.130
22984WAT     H269195   9.561   4.723   0.271
22985WAT      O69196   9.322   9.662   0.996
22985WAT     H169197   9.393   9.622   1.054
22985WAT     H269198   9.314   9.760   1.016
22986WAT      O69199   7.397   8.646   7.373
22986WAT     H169200   7.329   8.654   7.300
22986WAT     H269201   7.480   8.694   7.346
22987WAT      O69202   9.366   9.198   6.422
22987WAT     H169203   9.274   9.192   6.461
22987WAT     H269204   9.370   9.273   6.357
22988WAT      O69205   3.778   8.906   8.337
22988WAT     H169206   3.805   8.860   8.423
22988WAT     H269207   3.727   8.989   8.358
22989WAT      O69208   8.436   0.111   0.158
22989WAT     H169209   8.427   0.011   0.162
22989WAT     H269210   8.528   0.135   0.130
22990WAT      O69211   6.730   8.697   8.443
22990WAT     H169212   6.775   8.708   8.532
22990WAT     H269213   6.787   8.641   8.383
22991WAT      O69214   7.554   7.203   5.740
22991WAT     H169215   7.522   7.117   5.701
22991WAT     H269216   7.522   7.279   5.684
22992WAT      O69217   5.193   6.709   8.071
22992WAT     H169218   5.256   6.736   8.145
22992WAT     H269219   5.168   6.791   8.018
22993WAT      O69220   1.098   8.667   4.631
22993WAT     H169221   1.094   8.698   4.536
22993WAT     H269222   1.053   8.734   4.689
22994WAT      O69223   6.015   8.627   4.873
22994WAT     H169224   5.961   8.689   4.931
22994WAT     H269225   6.002   8.533   4.905
22995WAT      O69226   1.884   1.012   2.455
22995WAT     H169227   1.837   1.066   2.525
22995WAT     H269228   1.880   0.915   2.481
22996WAT      O69229   6.248   3.854   6.167
22996WAT     H169230   6.213   3.947   6.178
22996WAT     H269231   6.216   3.797   6.242
22997WAT      O69232   2.616   2.617   5.953
22997WAT     H169233   2.540   2.647   6.011
22997WAT     H269234   2.609   2.660   5.863
22998WAT      O69235   6.046   0.417   3.156
22998WAT     H169236   6.055   0.506   3.200
22998WAT     H269237   6.009   0.428   3.064
22999WAT      O69238   0.281   0.683   6.948
22999WAT     H169239   0.215   0.681   6.873
22999WAT     H269240   0.239   0.723   7.029
23000WAT      O69241   6.593   3.579   7.572
23000WAT     H169242   6.684   3.540   7.584
23000WAT     H269243   6.582   3.658   7.632
23001WAT      O69244   1.912   1.970   5.509
23001WAT     H169245   1.847   2.038   5.475
23001WAT     H269246   1.982   2.015   5.564
23002WAT      O69247   6.610   1.142   6.103
23002WAT     H169248   6.595   1.044   6.092
23002WAT     H269249   6.613   1.164   6.200
23003WAT      O69250   6.463   0.821   0.394
23003WAT     H169251   6.479   0.745   0.331
23003WAT     H269252   6.523   0.898   0.370
23004WAT      O69253   7.604   4.771   7.531
23004WAT     H169254   7.636   4.816   7.448
23004WAT     H269255   7.640   4.820   7.611
23005WAT      O69256   4.446   3.982   5.190
23005WAT     H169257   4.489   4.072   5.186
23005WAT     H269258   4.359   3.989   5.239
23006WAT      O69259   0.051   5.422   9.698
23006WAT     H169260  -0.045   5.439   9.719
23006WAT     H269261   0.078   5.475   9.618
23007WAT      O69262   8.483   8.070   8.534
23007WAT     H169263   8.450   8.150   8.584
23007WAT     H269264   8.418   7.995   8.546
23008WAT      O69265   8.392   8.642   1.322
23008WAT     H169266   8.339   8.704   1.381
23008WAT     H269267   8.458   8.591   1.377
23009WAT      O69268   9.607   4.910   5.697
23009WAT     H169269   9.624   4.813   5.716
23009WAT     H269270   9.514   4.934   5.726
23010WAT      O69271   6.219   5.062   0.294
23010WAT     H169272   6.124   5.081   0.269
23010WAT     H269273   6.247   4.974   0.254
23011WAT      O69274   0.275   5.496   5.642
23011WAT     H169275   0.259   5.397   5.635
23011WAT     H269276   0.231   5.530   5.725
23012WAT      O69277   3.455   1.982   0.753
23012WAT     H169278   3.396   2.061   0.770
23012WAT     H269279   3.403   1.898   0.766
23013WAT      O69280   3.262   1.854   5.468
23013WAT     H169281   3.232   1.855   5.563
23013WAT     H269282   3.356   1.887   5.463
23014WAT      O69283   2.665   9.322   3.806
23014WAT     H169284   2.579   9.330   3.856
23014WAT     H269285   2.649   9.283   3.716
23015WAT      O69286   7.140   6.344   5.909
23015WAT     H169287   7.070   6.383   5.850
23015WAT     H269288   7.198   6.282   5.856
23016WAT      O69289   2.637   4.191   4.329
23016WAT     H169290   2.566   4.123   4.352
23016WAT     H269291   2.701   4.151   4.264
23017WAT      O69292   5.497   9.569   0.613
23017WAT     H169293   5.582   9.529   0.579
23017WAT     H269294   5.419   9.527   0.566
23018WAT      O69295   5.696   6.650   0.899
23018WAT     H169296   5.685   6.652   0.999
23018WAT     H269297   5.697   6.555   0.868
23019WAT      O69298   0.501   6.813   2.940
23019WAT     H169299   0.492   6.739   3.006
23019WAT     H269300   0.570   6.788   2.871
23020WAT      O69301   2.083   7.992   3.472
23020WAT     H169302   2.094   7.901   3.512
23020WAT     H269303   2.148   8.055   3.515
23021WAT      O69304   0.627   1.062   2.128
23021WAT     H169305   0.661   0.986   2.183
23021WAT     H269306   0.618   1.143   2.185
23022WAT      O69307   2.768   3.017   3.807
23022WAT     H169308   2.792   3.028   3.710
23022WAT     H269309   2.700   2.945   3.816
23023WAT      O69310   6.042   5.258   7.567
23023WAT     H169311   6.122   5.302   7.528
23023WAT     H269312   6.040   5.162   7.540
23024WAT      O69313   6.054   4.729   0.329
23024WAT     H169314   6.095   4.744   0.239
23024WAT     H269315   5.960   4.697   0.319
23025WAT      O69316   0.535   3.444   9.430
23025WAT     H169317   0.499   3.365   9.479
23025WAT     H269318   0.634   3.449   9.442
23026WAT      O69319   3.674   0.821   5.386
23026WAT     H169320   3.620   0.902   5.363
23026WAT     H269321   3.686   0.765   5.304
23027WAT      O69322   1.968   5.652   2.521
23027WAT     H169323   1.991   5.668   2.616
23027WAT     H269324   1.986   5.556   2.498
23028WAT      O69325   7.100   3.534   3.731
23028WAT     H169326   7.138   3.477   3.804
23028WAT     H269327   7.018   3.581   3.765
23029WAT      O69328   3.449   1.626   0.988
23029WAT     H169329   3.392   1.673   0.921
23029WAT     H269330   3.506   1.693   1.036
23030WAT      O69331   2.654   0.739   8.742
23030WAT     H169332   2.707   0.824   8.743
23030WAT     H269333   2.664   0.692   8.829
23031WAT      O69334   4.874   3.960   6.439
23031WAT     H169335   4.780   3.989   6.457
23031WAT     H269336   4.921   4.030   6.384
23032WAT      O69337   0.829   5.551   4.862
23032WAT     H169338   0.738   5.592   4.867
23032WAT     H269339   0.844   5.494   4.943
23033WAT      O69340   7.859   4.839   4.992
23033WAT     H169341   7.800   4.764   5.022
23033WAT     H269342   7.952   4.822   5.024
23034WAT      O69343   8.847   4.263   6.520
23034WAT     H169344   8.822   4.262   6.617
23034WAT     H269345   8.834   4.355   6.484
23035WAT      O69346   3.051   0.282   9.208
23035WAT     H169347   3.145   0.254   9.228
23035WAT     H269348   3.047   0.327   9.120
23036WAT      O69349   7.495   8.412   6.146
23036WAT     H169350   7.397   8.391   6.141
23036WAT     H269351   7.509   8.498   6.195
23037WAT      O69352   8.538   1.282   9.594
23037WAT     H169353   8.615   1.228   9.558
23037WAT     H269354   8.565   1.326   9.679
23038WAT      O69355   4.797   5.951   1.505
23038WAT     H169356   4.764   5.910   1.420
23038WAT     H269357   4.752   6.039   1.519
23039WAT      O69358   8.291   0.047   4.549
23039WAT     H169359   8.358   0.017   4.618
23039WAT     H269360   8.228  -0.029   4.529
23040WAT      O69361   6.336   0.085   2.561
23040WAT     H169362   6.312   0.181   2.577
23040WAT     H269363   6.432   0.071   2.586
23041WAT      O69364   4.136   8.050   3.052
23041WAT     H169365   4.172   8.004   2.970
23041WAT     H269366   4.038   8.034   3.058
23042WAT      O69367   3.467   1.030   4.852
23042WAT     H169368   3.396   1.099   4.840
23042WAT     H269369   3.449   0.978   4.936
23043WAT      O69370   1.839   0.280   5.068
23043WAT     H169371   1.793   0.239   4.989
23043WAT     H269372   1.827   0.221   5.148
23044WAT      O69373   4.785   5.822   9.301
23044WAT     H169374   4.728   5.746   9.331
23044WAT     H269375   4.866   5.829   9.360
23045WAT      O69376   2.985   9.074   9.680
23045WAT     H169377   2.929   9.156   9.688
23045WAT     H269378   2.959   9.024   9.598
23046WAT      O69379   7.547   9.547   6.478
23046WAT     H169380   7.512   9.496   6.557
23046WAT     H269381   7.631   9.504   6.446
23047WAT      O69382   0.356   5.206   2.255
23047WAT     H169383   0.299   5.223   2.175
23047WAT     H269384   0.404   5.119   2.245
23048WAT      O69385   6.316   4.439   3.631
23048WAT     H169386   6.217   4.457   3.637
23048WAT     H269387   6.352   4.426   3.723
23049WAT      O69388   4.658   3.197   6.647
23049WAT     H169389   4.579   3.138   6.666
23049WAT     H269390   4.673   3.259   6.723
23050WAT      O69391   3.168   8.963   7.771
23050WAT     H169392   3.185   9.044   7.828
23050WAT     H269393   3.106   8.987   7.696
23051WAT      O69394   9.260   0.194   2.864
23051WAT     H169395   9.207   0.276   2.882
23051WAT     H269396   9.315   0.207   2.781
23052WAT      O69397   2.126   6.985   9.230
23052WAT     H169398   2.116   6.896   9.273
23052WAT     H269399   2.181   6.975   9.146
23053WAT      O69400   1.839   7.007   6.121
23053WAT     H169401   1.850   6.944   6.198
23053WAT     H269402   1.894   6.975   6.044
23054WAT      O69403   4.460   8.414   7.731
23054WAT     H169404   4.530   8.365   7.782
23054WAT     H269405   4.497   8.442   7.642
23055WAT      O69406   3.602   9.072   6.411
23055WAT     H169407   3.655   9.115   6.485
23055WAT     H269408   3.586   8.976   6.432
23056WAT      O69409   5.211   4.872   9.110
23056WAT     H169410   5.234   4.958   9.155
23056WAT     H269411   5.201   4.800   9.180
23057WAT      O69412   7.897   8.812   5.110
23057WAT     H169413   7.991   8.795   5.141
23057WAT     H269414   7.851   8.870   5.177
23058WAT      O69415   5.571   6.930   4.427
23058WAT     H169416   5.598   6.881   4.510
23058WAT     H269417   5.511   6.871   4.372
23059WAT      O69418   6.852   7.213   6.080
23059WAT     H169419   6.884   7.193   6.172
23059WAT     H269420   6.899   7.294   6.044
23060WAT      O69421   4.342   7.245   4.605
23060WAT     H169422   4.266   7.244   4.540
23060WAT     H269423   4.428   7.265   4.556
23061WAT      O69424   7.117   1.740   0.178
23061WAT     H169425   7.152   1.702   0.093
23061WAT     H269426   7.052   1.675   0.219
23062WAT      O69427   4.968   7.954   4.741
23062WAT     H169428   4.915   7.869   4.744
23062WAT     H269429   5.027   7.954   4.661
23063WAT      O69430   7.132   0.219   5.996
23063WAT     H169431   7.079   0.295   6.034
23063WAT     H269432   7.070   0.153   5.953
23064WAT      O69433   5.640   0.176   7.174
23064WAT     H169434   5.590   0.262   7.190
23064WAT     H269435   5.622   0.113   7.249
23065WAT      O69436   2.639   0.573   1.294
23065WAT     H169437   2.662   0.639   1.366
23065WAT     H269438   2.557   0.604   1.246
23066WAT      O69439   2.860   7.218   6.940
23066WAT     H169440   2.828   7.281   6.869
23066WAT     H269441   2.815   7.129   6.928
23067WAT      O69442   1.753   8.311   8.990
23067WAT     H169443   1.702   8.284   8.908
23067WAT     H269444   1.689   8.332   9.064
23068WAT      O69445   0.428   0.319   5.544
23068WAT     H169446   0.457   0.318   5.639
23068WAT     H269447   0.329   0.318   5.539
23069WAT      O69448   6.729   5.676   8.448
23069WAT     H169449   6.814   5.630   8.472
23069WAT     H269450   6.718   5.676   8.348
23070WAT      O69451   3.718   1.915   6.664
23070WAT     H169452   3.784   1.932   6.590
23070WAT     H269453   3.627   1.944   6.635
23071WAT      O69454   3.285   2.918   0.693
23071WAT     H169455   3.375   2.881   0.718
23071WAT     H269456   3.222   2.842   0.676
23072WAT      O69457   5.340   0.152   1.866
23072WAT     H169458   5.401   0.075   1.847
23072WAT     H269459   5.252   0.136   1.823
23073WAT      O69460   8.108   2.878   8.789
23073WAT     H169461   8.099   2.977   8.781
23073WAT     H269462   8.190   2.856   8.843
23074WAT      O69463   3.640   8.460   9.854
23074WAT     H169464   3.685   8.383   9.901
23074WAT     H269465   3.597   8.426   9.770
23075WAT      O69466   9.479   0.825   6.241
23075WAT     H169467   9.431   0.737   6.234
23075WAT     H269468   9.509   0.854   6.150
23076WAT      O69469   7.211   6.041   9.216
23076WAT     H169470   7.184   5.999   9.303
23076WAT     H269471   7.170   6.132   9.208
23077WAT      O69472   3.290   3.701   2.262
23077WAT     H169473   3.259   3.794   2.243
23077WAT     H269474   3.315   3.693   2.358
23078WAT      O69475   4.529   2.905   8.420
23078WAT     H169476   4.612   2.957   8.399
23078WAT     H269477   4.449   2.956   8.389
23079WAT      O69478   5.185   3.872   1.394
23079WAT     H169479   5.152   3.933   1.322
23079WAT     H269480   5.228   3.792   1.353
23080WAT      O69481   2.401   9.634   0.292
23080WAT     H169482   2.461   9.627   0.371
23080WAT     H269483   2.432   9.570   0.221
23081WAT      O69484   2.171   9.573   3.087
23081WAT     H169485   2.195   9.626   3.168
23081WAT     H269486   2.169   9.633   3.007
23082WAT      O69487   8.749   1.503   5.410
23082WAT     H169488   8.714   1.472   5.322
23082WAT     H269489   8.678   1.494   5.480
23083WAT      O69490   0.673   9.532   4.268
23083WAT     H169491   0.592   9.493   4.224
23083WAT     H269492   0.647   9.617   4.315
23084WAT      O69493   3.265   3.341   4.657
23084WAT     H169494   3.273   3.362   4.754
23084WAT     H269495   3.272   3.425   4.603
23085WAT      O69496   3.166   3.693   9.142
23085WAT     H169497   3.091   3.757   9.151
23085WAT     H269498   3.192   3.685   9.045
23086WAT      O69499   3.616   3.474   9.433
23086WAT     H169500   3.647   3.391   9.386
23086WAT     H269501   3.516   3.472   9.440
23087WAT      O69502   8.605   1.070   2.378
23087WAT     H169503   8.671   1.012   2.426
23087WAT     H269504   8.530   1.014   2.344
23088WAT      O69505   7.983   2.804   6.794
23088WAT     H169506   7.921   2.760   6.729
23088WAT     H269507   8.002   2.897   6.764
23089WAT      O69508   4.851   0.662   9.346
23089WAT     H169509   4.864   0.738   9.409
23089WAT     H269510   4.940   0.624   9.321
23090WAT      O69511   1.216   8.684   8.196
23090WAT     H169512   1.253   8.722   8.111
23090WAT     H269513   1.290   8.641   8.248
23091WAT      O69514   6.540   9.603   6.984
23091WAT     H169515   6.504   9.647   7.066
23091WAT     H269516   6.613   9.539   7.010
23092WAT      O69517   8.671   8.472   7.195
23092WAT     H169518   8.594   8.444   7.252
23092WAT     H269519   8.651   8.560   7.152
23093WAT      O69520   4.094   5.809   8.443
23093WAT     H169521   4.171   5.802   8.507
23093WAT     H269522   4.029   5.876   8.477
23094WAT      O69523   5.860   2.569   5.017
23094WAT     H169524   5.880   2.502   5.088
23094WAT     H269525   5.944   2.616   4.990
23095WAT      O69526   5.203   3.791   4.219
23095WAT     H169527   5.263   3.715   4.195
23095WAT     H269528   5.215   3.813   4.316
23096WAT      O69529   5.835   8.417   2.924
23096WAT     H169530   5.890   8.424   2.841
23096WAT     H269531   5.894   8.424   3.004
23097WAT      O69532   3.942   9.036   0.746
23097WAT     H169533   3.884   9.109   0.709
23097WAT     H269534   3.926   9.028   0.844
23098WAT      O69535   8.772   6.727   2.035
23098WAT     H169536   8.730   6.755   1.949
23098WAT     H269537   8.820   6.640   2.022
23099WAT      O69538   7.191   4.938   0.812
23099WAT     H169539   7.101   4.954   0.854
23099WAT     H269540   7.214   4.841   0.818
23100WAT      O69541   1.902   5.292   3.580
23100WAT     H169542   1.993   5.327   3.555
23100WAT     H269543   1.851   5.268   3.498
23101WAT      O69544   1.771   4.930   8.970
23101WAT     H169545   1.741   4.934   8.874
23101WAT     H269546   1.784   5.022   9.005
23102WAT      O69547   3.000   8.503   5.307
23102WAT     H169548   3.011   8.409   5.339
23102WAT     H269549   2.934   8.551   5.365
23103WAT      O69550   1.422   6.574   1.595
23103WAT     H169551   1.377   6.616   1.517
23103WAT     H269552   1.380   6.608   1.680
23104WAT      O69553   3.944   9.762   2.806
23104WAT     H169554   4.042   9.763   2.825
23104WAT     H269555   3.926   9.701   2.729
23105WAT      O69556   9.023   1.633   9.130
23105WAT     H169557   8.962   1.618   9.052
23105WAT     H269558   8.969   1.651   9.212
23106WAT      O69559   1.034   3.211   3.487
23106WAT     H169560   1.098   3.272   3.441
23106WAT     H269561   0.988   3.261   3.560
23107WAT      O69562   3.747   0.888   0.439
23107WAT     H169563   3.760   0.789   0.445
23107WAT     H269564   3.651   0.910   0.457
23108WAT      O69565   9.331   9.431   2.903
23108WAT     H169566   9.411   9.375   2.928
23108WAT     H269567   9.254   9.371   2.882
23109WAT      O69568   8.316   0.077   8.025
23109WAT     H169569   8.319   0.011   8.101
23109WAT     H269570   8.403   0.077   7.976
23110WAT      O69571   7.125   5.201   4.149
23110WAT     H169572   7.030   5.215   4.179
23110WAT     H269573   7.142   5.255   4.067
23111WAT      O69574   9.349   3.534   2.649
23111WAT     H169575   9.420   3.550   2.718
23111WAT     H269576   9.330   3.619   2.601
23112WAT      O69577   0.234   6.000   3.647
23112WAT     H169578   0.154   5.981   3.705
23112WAT     H269579   0.309   5.940   3.673
23113WAT      O69580   7.767   3.220   1.020
23113WAT     H169581   7.728   3.130   1.004
23113WAT     H269582   7.805   3.225   1.113
23114WAT      O69583   4.802   0.636   2.365
23114WAT     H169584   4.895   0.653   2.333
23114WAT     H269585   4.738   0.649   2.290
23115WAT      O69586   4.833   2.268   3.989
23115WAT     H169587   4.896   2.268   3.911
23115WAT     H269588   4.800   2.361   4.004
23116WAT      O69589   6.184   8.055   4.462
23116WAT     H169590   6.159   8.134   4.519
23116WAT     H269591   6.149   7.971   4.503
23117WAT      O69592   8.545   1.072   0.692
23117WAT     H169593   8.546   0.974   0.673
23117WAT     H269594   8.460   1.096   0.739
23118WAT      O69595   2.169   0.306   8.599
23118WAT     H169596   2.100   0.237   8.575
23118WAT     H269597   2.134   0.397   8.580
23119WAT      O69598   1.269   2.498   9.633
23119WAT     H169599   1.267   2.490   9.534
23119WAT     H269600   1.350   2.450   9.669
23120WAT      O69601   5.264   8.415   0.613
23120WAT     H169602   5.311   8.332   0.642
23120WAT     H269603   5.329   8.475   0.567
23121WAT      O69604   9.268   6.745   4.685
23121WAT     H169605   9.300   6.681   4.755
23121WAT     H269606   9.188   6.794   4.719
23122WAT      O69607   7.598   2.678   0.918
23122WAT     H169608   7.569   2.659   1.012
23122WAT     H269609   7.697   2.687   0.915
23123WAT      O69610   6.177   0.497   6.965
23123WAT     H169611   6.196   0.594   6.953
23123WAT     H269612   6.192   0.449   6.879
23124WAT      O69613   4.752   1.507   0.765
23124WAT     H169614   4.776   1.439   0.696
23124WAT     H269615   4.720   1.461   0.848
23125WAT      O69616   7.903   8.794   9.312
23125WAT     H169617   7.955   8.854   9.373
23125WAT     H269618   7.889   8.841   9.224
23126WAT      O69619   7.113   6.173   3.250
23126WAT     H169620   7.168   6.232   3.309
23126WAT     H269621   7.093   6.088   3.298
23127WAT      O69622   2.064   5.736   5.001
23127WAT     H169623   2.086   5.833   4.992
23127WAT     H269624   1.984   5.726   5.061
23128WAT      O69625   9.557   8.103   3.094
23128WAT     H169626   9.513   8.038   3.032
23128WAT     H269627   9.488   8.163   3.134
23129WAT      O69628   6.417   3.838   4.830
23129WAT     H169629   6.382   3.881   4.747
23129WAT     H269630   6.342   3.793   4.879
23130WAT      O69631   5.564   4.568   7.531
23130WAT     H169632   5.571   4.480   7.484
23130WAT     H269633   5.476   4.610   7.511
23131WAT      O69634   2.778   8.479   3.405
23131WAT     H169635   2.826   8.454   3.321
23131WAT     H269636   2.681   8.496   3.384
23132WAT      O69637   6.345   0.901   4.461
23132WAT     H169638   6.400   0.928   4.540
23132WAT     H269639   6.402   0.906   4.379
23133WAT      O69640   1.514   9.575   7.141
23133WAT     H169641   1.432   9.631   7.128
23133WAT     H269642   1.593   9.634   7.158
23134WAT      O69643   4.915   6.493   0.891
23134WAT     H169644   4.835   6.514   0.946
23134WAT     H269645   4.974   6.574   0.886
23135WAT      O69646   3.779   2.001   9.070
23135WAT     H169647   3.824   1.995   9.159
23135WAT     H269648   3.847   2.018   8.999
23136WAT      O69649   0.673   1.151   6.219
23136WAT     H169650   0.606   1.162   6.146
23136WAT     H269651   0.634   1.184   6.305
23137WAT      O69652   1.280   7.740   6.575
23137WAT     H169653   1.184   7.746   6.601
23137WAT     H269654   1.328   7.822   6.606
23138WAT      O69655   3.124   7.023   6.355
23138WAT     H169656   3.204   7.077   6.330
23138WAT     H269657   3.080   7.063   6.436
23139WAT      O69658   9.697   8.364   4.476
23139WAT     H169659   9.703   8.460   4.504
23139WAT     H269660   9.670   8.358   4.380
23140WAT      O69661   8.427   9.462   5.330
23140WAT     H169662   8.502   9.432   5.272
23140WAT     H269663   8.461   9.485   5.421
23141WAT      O69664   8.524   8.644   6.627
23141WAT     H169665   8.574   8.662   6.542
23141WAT     H269666   8.586   8.654   6.705
23142WAT      O69667   4.634   6.043   6.999
23142WAT     H169668   4.701   6.082   7.062
23142WAT     H269669   4.632   5.944   7.010
23143WAT      O69670   0.681   6.597   6.300
23143WAT     H169671   0.611   6.531   6.272
23143WAT     H269672   0.637   6.675   6.344
23144WAT      O69673   4.760   4.606   3.112
23144WAT     H169674   4.795   4.645   3.027
23144WAT     H269675   4.818   4.634   3.188
23145WAT      O69676   4.966   1.763   4.384
23145WAT     H169677   4.926   1.744   4.473
23145WAT     H269678   5.053   1.812   4.396
23146WAT      O69679   8.184   3.296   6.521
23146WAT     H169680   8.156   3.377   6.572
23146WAT     H269681   8.277   3.270   6.548
23147WAT      O69682   6.355   8.410   0.314
23147WAT     H169683   6.412   8.340   0.271
23147WAT     H269684   6.414   8.481   0.353
23148WAT      O69685   8.056   5.233   8.819
23148WAT     H169686   8.116   5.262   8.744
23148WAT     H269687   8.104   5.245   8.906
23149WAT      O69688   8.479   0.895   3.107
23149WAT     H169689   8.492   0.886   3.008
23149WAT     H269690   8.558   0.855   3.154
23150WAT      O69691   4.624   6.056   7.594
23150WAT     H169692   4.691   6.080   7.664
23150WAT     H269693   4.669   6.002   7.523
23151WAT      O69694   2.485   4.258   9.693
23151WAT     H169695   2.433   4.316   9.756
23151WAT     H269696   2.541   4.193   9.745
23152WAT      O69697   4.008   5.335   8.702
23152WAT     H169698   3.949   5.315   8.780
23152WAT     H269699   4.002   5.432   8.679
23153WAT      O69700   7.953   8.627   3.967
23153WAT     H169701   7.988   8.696   4.029
23153WAT     H269702   7.990   8.642   3.875
23154WAT      O69703   1.760   4.908   4.100
23154WAT     H169704   1.665   4.940   4.102
23154WAT     H269705   1.768   4.827   4.158
23155WAT      O69706   8.602   8.960   0.592
23155WAT     H169707   8.698   8.941   0.572
23155WAT     H269708   8.579   9.053   0.564
23156WAT      O69709   2.921   1.989   0.481
23156WAT     H169710   2.864   2.043   0.543
23156WAT     H269711   3.013   2.028   0.478
23157WAT      O69712   5.700   5.074   6.486
23157WAT     H169713   5.671   5.095   6.393
23157WAT     H269714   5.653   5.134   6.551
23158WAT      O69715   9.379   7.537   4.754
23158WAT     H169716   9.430   7.555   4.669
23158WAT     H269717   9.383   7.618   4.812
23159WAT      O69718   0.772   4.652   7.665
23159WAT     H169719   0.693   4.592   7.651
23159WAT     H269720   0.794   4.699   7.580
23160WAT      O69721   0.859   0.032   3.792
23160WAT     H169722   0.857   0.111   3.853
23160WAT     H269723   0.952   0.020   3.757
23161WAT      O69724   9.382   7.412   6.654
23161WAT     H169725   9.310   7.433   6.721
23161WAT     H269726   9.345   7.350   6.584
23162WAT      O69727   3.864   9.172   5.124
23162WAT     H169728   3.899   9.092   5.075
23162WAT     H269729   3.871   9.253   5.066
23163WAT      O69730   4.184   8.568   5.312
23163WAT     H169731   4.103   8.623   5.294
23163WAT     H269732   4.184   8.488   5.252
23164WAT      O69733   0.393   7.053   5.937
23164WAT     H169734   0.440   6.982   5.990
23164WAT     H269735   0.453   7.133   5.928
23165WAT      O69736   2.189   6.844   2.965
23165WAT     H169737   2.158   6.750   2.961
23165WAT     H269738   2.180   6.879   3.059
23166WAT      O69739   5.468   8.598   3.682
23166WAT     H169740   5.378   8.630   3.711
23166WAT     H269741   5.474   8.499   3.694
23167WAT      O69742   4.939   1.563   8.131
23167WAT     H169743   4.939   1.607   8.221
23167WAT     H269744   4.969   1.629   8.062
23168WAT      O69745   0.105   0.754   5.007
23168WAT     H169746   0.095   0.659   5.037
23168WAT     H269747   0.113   0.814   5.086
23169WAT      O69748   2.186   6.304   4.756
23169WAT     H169749   2.148   6.329   4.667
23169WAT     H269750   2.284   6.286   4.747
23170WAT      O69751   2.922   0.894   8.435
23170WAT     H169752   2.994   0.964   8.435
23170WAT     H269753   2.963   0.803   8.438
23171WAT      O69754   5.287   8.483   8.941
23171WAT     H169755   5.276   8.513   9.036
23171WAT     H269756   5.358   8.538   8.897
23172WAT      O69757   7.798   9.379   3.894
23172WAT     H169758   7.711   9.380   3.846
23172WAT     H269759   7.855   9.455   3.862
23173WAT      O69760   1.214   8.906   5.574
23173WAT     H169761   1.220   8.830   5.508
23173WAT     H269762   1.304   8.920   5.616
23174WAT      O69763   1.261   7.182   8.371
23174WAT     H169764   1.271   7.254   8.441
23174WAT     H269765   1.313   7.208   8.289
23175WAT      O69766   4.200   2.817   6.833
23175WAT     H169767   4.208   2.744   6.765
23175WAT     H269768   4.143   2.785   6.909
23176WAT      O69769   9.820   3.301   0.914
23176WAT     H169770   9.859   3.278   1.003
23176WAT     H269771   9.725   3.329   0.926
23177WAT      O69772   3.974   9.723   1.910
23177WAT     H169773   3.989   9.749   2.005
23177WAT     H269774   4.032   9.645   1.888
23178WAT      O69775   2.657   0.347   7.736
23178WAT     H169776   2.687   0.428   7.788
23178WAT     H269777   2.609   0.285   7.798
23179WAT      O69778   1.775   0.942   0.737
23179WAT     H169779   1.705   0.957   0.667
23179WAT     H269780   1.840   1.018   0.736
23180WAT      O69781   2.505   2.335   3.256
23180WAT     H169782   2.471   2.257   3.309
23180WAT     H269783   2.536   2.303   3.166
23181WAT      O69784   9.454   1.319   6.307
23181WAT     H169785   9.488   1.367   6.388
23181WAT     H269786   9.519   1.248   6.281
23182WAT      O69787   6.300   3.589   0.556
23182WAT     H169788   6.280   3.570   0.460
23182WAT     H269789   6.345   3.510   0.597
23183WAT      O69790   2.902   2.496   4.898
23183WAT     H169791   2.962   2.560   4.945
23183WAT     H269792   2.932   2.484   4.803
23184WAT      O69793   0.065   9.592   1.949
23184WAT     H169794   0.047   9.671   2.009
23184WAT     H269795   0.024   9.510   1.989
23185WAT      O69796   1.446   2.300   4.108
23185WAT     H169797   1.362   2.246   4.101
23185WAT     H269798   1.524   2.239   4.117
23186WAT      O69799   2.182   3.242   8.402
23186WAT     H169800   2.218   3.198   8.484
23186WAT     H269801   2.231   3.209   8.321
23187WAT      O69802   7.710   2.043   5.112
23187WAT     H169803   7.647   2.116   5.087
23187WAT     H269804   7.774   2.076   5.182
23188WAT      O69805   7.933   5.688   5.883
23188WAT     H169806   8.015   5.632   5.890
23188WAT     H269807   7.940   5.749   5.804
23189WAT      O69808   0.682   5.190   4.134
23189WAT     H169809   0.677   5.139   4.049
23189WAT     H269810   0.599   5.246   4.144
23190WAT      O69811   3.287   1.879   9.253
23190WAT     H169812   3.342   1.923   9.181
23190WAT     H269813   3.333   1.890   9.341
23191WAT      O69814   9.418   5.063   0.386
23191WAT     H169815   9.387   5.049   0.293
23191WAT     H269816   9.346   5.038   0.451
23192WAT      O69817   5.763   4.100   2.998
23192WAT     H169818   5.680   4.132   3.042
23192WAT     H269819   5.739   4.051   2.914
23193WAT      O69820   5.006   1.169   5.474
23193WAT     H169821   5.038   1.085   5.431
23193WAT     H269822   5.033   1.247   5.417
23194WAT      O69823   1.591   4.204   1.480
23194WAT     H169824   1.572   4.251   1.566
23194WAT     H269825   1.688   4.183   1.474
23195WAT      O69826   7.301   9.350   1.888
23195WAT     H169827   7.302   9.433   1.944
23195WAT     H269828   7.395   9.318   1.873
23196WAT      O69829   6.691   0.585   1.040
23196WAT     H169830   6.630   0.617   0.967
23196WAT     H269831   6.775   0.640   1.040
23197WAT      O69832   0.211   2.345   0.911
23197WAT     H169833   0.213   2.294   0.997
23197WAT     H269834   0.189   2.283   0.836
23198WAT      O69835   2.133   3.724   0.240
23198WAT     H169836   2.068   3.713   0.165
23198WAT     H269837   2.096   3.678   0.322
23199WAT      O69838   9.468   3.691   6.327
23199WAT     H169839   9.389   3.738   6.366
23199WAT     H269840   9.439   3.603   6.289
23200WAT      O69841   5.622   2.838   1.639
23200WAT     H169842   5.571   2.764   1.683
23200WAT     H269843   5.560   2.916   1.625
23201WAT      O69844   6.736   1.393   6.466
23201WAT     H169845   6.805   1.442   6.414
23201WAT     H269846   6.777   1.353   6.548
23202WAT      O69847   2.604   8.241   8.319
23202WAT     H169848   2.647   8.259   8.407
23202WAT     H269849   2.615   8.145   8.295
23203WAT      O69850   2.169   4.794   3.928
23203WAT     H169851   2.135   4.733   4.000
23203WAT     H269852   2.144   4.757   3.839
23204WAT      O69853   0.809   2.187   5.208
23204WAT     H169854   0.727   2.215   5.157
23204WAT     H269855   0.887   2.184   5.145
23205WAT      O69856   6.503   4.308   3.944
23205WAT     H169857   6.455   4.232   3.901
23205WAT     H269858   6.457   4.332   4.029
23206WAT      O69859   2.869   5.184   8.249
23206WAT     H169860   2.839   5.275   8.223
23206WAT     H269861   2.883   5.128   8.167
23207WAT      O69862   5.473   4.298   4.209
23207WAT     H169863   5.549   4.353   4.242
23207WAT     H269864   5.502   4.243   4.130
23208WAT      O69865   8.973   3.575   5.603
23208WAT     H169866   8.996   3.628   5.521
23208WAT     H269867   8.998   3.627   5.685
23209WAT      O69868   7.361   4.545   2.945
23209WAT     H169869   7.407   4.558   3.032
23209WAT     H269870   7.380   4.453   2.911
23210WAT      O69871   7.466   7.872   5.460
23210WAT     H169872   7.430   7.859   5.553
23210WAT     H269873   7.390   7.884   5.397
23211WAT      O69874   7.571   3.184   2.879
23211WAT     H169875   7.476   3.152   2.883
23211WAT     H269876   7.608   3.166   2.788
23212WAT      O69877   7.064   5.381   1.065
23212WAT     H169878   7.075   5.430   0.979
23212WAT     H269879   7.134   5.411   1.130
23213WAT      O69880   3.837   7.740   8.290
23213WAT     H169881   3.886   7.827   8.278
23213WAT     H269882   3.901   7.664   8.282
23214WAT      O69883   7.074   3.563   1.574
23214WAT     H169884   7.085   3.510   1.490
23214WAT     H269885   7.142   3.534   1.642
23215WAT      O69886   5.142   0.617   1.365
23215WAT     H169887   5.215   0.568   1.411
23215WAT     H269888   5.079   0.552   1.322
23216WAT      O69889   2.847   8.641   5.500
23216WAT     H169890   2.773   8.709   5.495
23216WAT     H269891   2.818   8.564   5.555
23217WAT      O69892   8.015   2.566   6.956
23217WAT     H169893   8.024   2.656   6.914
23217WAT     H269894   8.081   2.556   7.030
23218WAT      O69895   7.638   0.931   4.169
23218WAT     H169896   7.671   0.862   4.234
23218WAT     H269897   7.577   0.995   4.216
23219WAT      O69898   7.102   2.963   6.707
23219WAT     H169899   7.062   2.992   6.794
23219WAT     H269900   7.086   3.034   6.638
23220WAT      O69901   9.773   4.309   6.221
23220WAT     H169902   9.834   4.358   6.282
23220WAT     H269903   9.780   4.346   6.128
23221WAT      O69904   6.547   3.604   0.355
23221WAT     H169905   6.528   3.531   0.289
23221WAT     H269906   6.526   3.571   0.447
23222WAT      O69907   0.410   9.066   4.598
23222WAT     H169908   0.483   9.060   4.666
23222WAT     H269909   0.449   9.087   4.509
23223WAT      O69910   2.582   0.939   1.241
23223WAT     H169911   2.673   0.981   1.247
23223WAT     H269912   2.513   1.012   1.241
23224WAT      O69913   9.100   2.145   2.082
23224WAT     H169914   9.080   2.083   2.006
23224WAT     H269915   9.021   2.204   2.099
23225WAT      O69916   2.135   4.018   7.046
23225WAT     H169917   2.192   3.980   7.118
23225WAT     H269918   2.075   3.946   7.009
23226WAT      O69919   9.630   2.484   7.195
23226WAT     H169920   9.583   2.484   7.284
23226WAT     H269921   9.699   2.411   7.194
23227WAT      O69922   3.905   8.867   4.111
23227WAT     H169923   3.955   8.875   4.024
23227WAT     H269924   3.957   8.912   4.183
23228WAT      O69925   1.172   3.297   1.129
23228WAT     H169926   1.168   3.351   1.045
23228WAT     H269927   1.255   3.321   1.181
23229WAT      O69928   3.687   2.300   1.856
23229WAT     H169929   3.767   2.269   1.804
23229WAT     H269930   3.606   2.297   1.797
23230WAT      O69931   5.793   7.189   0.252
23230WAT     H169932   5.732   7.179   0.331
23230WAT     H269933   5.883   7.219   0.284
23231WAT      O69934   6.651   8.060   9.316
23231WAT     H169935   6.629   8.012   9.232
23231WAT     H269936   6.588   8.032   9.389
23232WAT      O69937   8.171   7.346   8.027
23232WAT     H169938   8.167   7.427   8.085
23232WAT     H269939   8.083   7.333   7.981
23233WAT      O69940   7.086   7.529   3.867
23233WAT     H169941   7.082   7.436   3.904
23233WAT     H269942   7.150   7.532   3.791
23234WAT      O69943   2.553   5.363   6.331
23234WAT     H169944   2.599   5.324   6.411
23234WAT     H269945   2.465   5.402   6.359
23235WAT      O69946   7.026   4.279   7.416
23235WAT     H169947   7.035   4.353   7.483
23235WAT     H269948   7.026   4.317   7.324
23236WAT      O69949   5.213   9.828   8.743
23236WAT     H169950   5.285   9.829   8.674
23236WAT     H269951   5.124   9.827   8.698
23237WAT      O69952   0.480   3.707   7.123
23237WAT     H169953   0.451   3.663   7.038
23237WAT     H269954   0.580   3.703   7.130
23238WAT      O69955   7.233   4.755   0.004
23238WAT     H169956   7.299   4.742   0.078
23238WAT     H269957   7.264   4.829  -0.055
23239WAT      O69958   8.923   1.619   8.453
23239WAT     H169959   8.847   1.683   8.462
23239WAT     H269960   8.951   1.614   8.357
23240WAT      O69961   3.963   3.720   1.779
23240WAT     H169962   3.980   3.816   1.804
23240WAT     H269963   3.864   3.703   1.782
23241WAT      O69964   7.291   9.505   0.235
23241WAT     H169965   7.318   9.416   0.196
23241WAT     H269966   7.205   9.494   0.285
23242WAT      O69967   0.139   9.280   4.977
23242WAT     H169968   0.207   9.337   4.931
23242WAT     H269969   0.130   9.310   5.072
23243WAT      O69970   4.267   5.353   1.011
23243WAT     H169971   4.188   5.363   1.071
23243WAT     H269972   4.240   5.307   0.927
23244WAT      O69973   3.904   4.064   8.763
23244WAT     H169974   3.900   4.154   8.806
23244WAT     H269975   3.826   4.054   8.700
23245WAT      O69976   1.221   3.293   9.398
23245WAT     H169977   1.304   3.323   9.352
23245WAT     H269978   1.179   3.219   9.345
23246WAT      O69979   5.375   2.241   0.722
23246WAT     H169980   5.473   2.251   0.711
23246WAT     H269981   5.331   2.241   0.632
23247WAT      O69982   9.115   1.623   9.567
23247WAT     H169983   9.171   1.576   9.498
23247WAT     H269984   9.157   1.612   9.657
23248WAT      O69985   1.206   0.083   3.130
23248WAT     H169986   1.165   0.169   3.100
23248WAT     H269987   1.135   0.013   3.138
23249WAT      O69988   3.438   7.121   2.029
23249WAT     H169989   3.374   7.186   2.070
23249WAT     H269990   3.496   7.169   1.963
23250WAT      O69991   2.567   1.695   9.204
23250WAT     H169992   2.563   1.657   9.296
23250WAT     H269993   2.489   1.662   9.151
23251WAT      O69994   1.583   1.387   8.277
23251WAT     H169995   1.675   1.422   8.295
23251WAT     H269996   1.576   1.362   8.180
23252WAT      O69997   2.959   5.652   2.147
23252WAT     H169998   3.002   5.569   2.112
23252WAT     H269999   3.027   5.723   2.157
23253WAT      O70000   1.086   2.281   0.482
23253WAT     H170001   1.052   2.331   0.561
23253WAT     H270002   1.051   2.322   0.398
23254WAT      O70003   1.432   4.507   0.186
23254WAT     H170004   1.413   4.604   0.177
23254WAT     H270005   1.455   4.469   0.096
23255WAT      O70006   5.012   5.135   6.174
23255WAT     H170007   5.049   5.062   6.230
23255WAT     H270008   4.914   5.142   6.188
23256WAT      O70009   9.046   1.783   1.697
23256WAT     H170010   8.946   1.788   1.702
23256WAT     H270011   9.072   1.703   1.643
23257WAT      O70012   0.309   0.442   3.564
23257WAT     H170013   0.373   0.378   3.606
23257WAT     H270014   0.239   0.392   3.513
23258WAT      O70015   8.777   1.179   7.257
23258WAT     H170016   8.808   1.191   7.163
23258WAT     H270017   8.855   1.163   7.316
23259WAT      O70018   3.180   7.632   7.654
23259WAT     H170019   3.179   7.671   7.562
23259WAT     H270020   3.205   7.703   7.720
23260WAT      O70021   8.897   6.897   3.840
23260WAT     H170022   8.985   6.941   3.824
23260WAT     H270023   8.832   6.923   3.769
23261WAT      O70024   5.361   1.685   2.882
23261WAT     H170025   5.438   1.679   2.818
23261WAT     H270026   5.349   1.780   2.911
23262WAT      O70027   9.148   1.826   4.440
23262WAT     H170028   9.061   1.851   4.398
23262WAT     H270029   9.148   1.856   4.536
23263WAT      O70030   0.744   5.932   1.877
23263WAT     H170031   0.679   5.981   1.819
23263WAT     H270032   0.722   5.834   1.874
23264WAT      O70033   3.282   9.073   0.391
23264WAT     H170034   3.320   9.147   0.447
23264WAT     H270035   3.199   9.038   0.434
23265WAT      O70036   0.572   4.979   9.392
23265WAT     H170037   0.664   4.944   9.376
23265WAT     H270038   0.521   4.914   9.447
23266WAT      O70039   5.659   5.435   9.010
23266WAT     H170040   5.669   5.340   9.041
23266WAT     H270041   5.567   5.468   9.033
23267WAT      O70042   4.686   4.050   1.628
23267WAT     H170043   4.709   3.962   1.586
23267WAT     H270044   4.769   4.093   1.664
23268WAT      O70045   3.122   2.609   6.757
23268WAT     H170046   3.160   2.641   6.843
23268WAT     H270047   3.088   2.515   6.768
23269WAT      O70048   5.186   8.197   6.706
23269WAT     H170049   5.153   8.175   6.798
23269WAT     H270050   5.253   8.271   6.712
23270WAT      O70051   6.880   2.176   0.538
23270WAT     H170052   6.780   2.167   0.535
23270WAT     H270053   6.919   2.137   0.455
23271WAT      O70054   9.207   7.361   7.693
23271WAT     H170055   9.210   7.375   7.792
23271WAT     H270056   9.264   7.282   7.669
23272WAT      O70057   4.334   0.311   3.636
23272WAT     H170058   4.329   0.215   3.608
23272WAT     H270059   4.363   0.367   3.559
23273WAT      O70060   8.974   4.831   0.162
23273WAT     H170061   8.920   4.755   0.124
23273WAT     H270062   9.069   4.802   0.171
23274WAT      O70063   5.680   3.855   4.247
23274WAT     H170064   5.596   3.868   4.195
23274WAT     H270065   5.669   3.778   4.310
23275WAT      O70066   7.180   0.466   9.373
23275WAT     H170067   7.210   0.405   9.301
23275WAT     H270068   7.086   0.444   9.398
23276WAT      O70069   4.679   2.564   0.294
23276WAT     H170070   4.708   2.479   0.251
23276WAT     H270071   4.719   2.570   0.385
23277WAT      O70072   4.131   3.456   5.343
23277WAT     H170073   4.197   3.531   5.349
23277WAT     H270074   4.179   3.371   5.322
23278WAT      O70075   0.257   0.521   3.825
23278WAT     H170076   0.274   0.479   3.736
23278WAT     H270077   0.172   0.573   3.822
23279WAT      O70078   6.746   2.871   4.157
23279WAT     H170079   6.653   2.858   4.192
23279WAT     H270080   6.775   2.965   4.173
23280WAT      O70081   1.146   6.756   5.321
23280WAT     H170082   1.225   6.814   5.301
23280WAT     H270083   1.149   6.727   5.416
23281WAT      O70084   3.187   6.253   8.351
23281WAT     H170085   3.094   6.216   8.358
23281WAT     H270086   3.193   6.313   8.271
23282WAT      O70087   0.868   5.599   1.953
23282WAT     H170088   0.930   5.603   1.874
23282WAT     H270089   0.916   5.558   2.030
23283WAT      O70090   3.632   7.300   6.541
23283WAT     H170091   3.555   7.236   6.536
23283WAT     H270092   3.710   7.257   6.586
23284WAT      O70093   1.469   5.978   4.396
23284WAT     H170094   1.437   6.043   4.465
23284WAT     H270095   1.565   5.996   4.376
23285WAT      O70096   6.056   7.182   8.024
23285WAT     H170097   6.122   7.205   7.953
23285WAT     H270098   6.037   7.084   8.021
23286WAT      O70099   5.236   6.455   1.607
23286WAT     H170100   5.237   6.370   1.555
23286WAT     H270101   5.265   6.531   1.549
23287WAT      O70102   3.837   1.679   0.850
23287WAT     H170103   3.928   1.709   0.821
23287WAT     H270104   3.830   1.580   0.838
23288WAT      O70105   9.099   5.259   5.778
23288WAT     H170106   9.034   5.333   5.798
23288WAT     H270107   9.157   5.243   5.857
23289WAT      O70108   2.855   6.088   2.656
23289WAT     H170109   2.871   6.132   2.744
23289WAT     H270110   2.903   6.001   2.653
23290WAT      O70111   8.036   8.130   4.121
23290WAT     H170112   8.000   8.205   4.176
23290WAT     H270113   8.114   8.088   4.168
23291WAT      O70114   7.461   7.099   5.317
23291WAT     H170115   7.452   7.070   5.222
23291WAT     H270116   7.388   7.059   5.372
23292WAT      O70117   8.646   4.794   4.917
23292WAT     H170118   8.659   4.710   4.970
23292WAT     H270119   8.635   4.772   4.820
23293WAT      O70120   6.218   3.185   1.914
23293WAT     H170121   6.177   3.272   1.885
23293WAT     H270122   6.305   3.172   1.867
23294WAT      O70123   5.809   6.312   0.125
23294WAT     H170124   5.863   6.247   0.073
23294WAT     H270125   5.788   6.274   0.215
23295WAT      O70126   5.433   7.443   2.573
23295WAT     H170127   5.517   7.492   2.594
23295WAT     H270128   5.454   7.347   2.556
23296WAT      O70129   3.604   9.789   3.845
23296WAT     H170130   3.564   9.714   3.791
23296WAT     H270131   3.649   9.751   3.926
23297WAT      O70132   4.827   0.428   7.859
23297WAT     H170133   4.912   0.397   7.902
23297WAT     H270134   4.752   0.368   7.886
23298WAT      O70135   7.016   6.406   1.169
23298WAT     H170136   7.001   6.504   1.184
23298WAT     H270137   7.111   6.391   1.140
23299WAT      O70138   3.656   9.213   1.219
23299WAT     H170139   3.636   9.122   1.183
23299WAT     H270140   3.680   9.207   1.316
23300WAT      O70141   8.775   2.638   8.236
23300WAT     H170142   8.686   2.642   8.282
23300WAT     H270143   8.796   2.729   8.198
23301WAT      O70144   5.057   5.709   8.805
23301WAT     H170145   4.971   5.718   8.754
23301WAT     H270146   5.038   5.710   8.903
23302WAT      O70147   4.078   8.064   2.230
23302WAT     H170148   4.134   8.108   2.300
23302WAT     H270149   4.069   8.125   2.152
23303WAT      O70150   2.940   3.000   3.219
23303WAT     H170151   2.856   3.051   3.236
23303WAT     H270152   2.940   2.918   3.277
23304WAT      O70153   5.733   8.531   9.333
23304WAT     H170154   5.779   8.598   9.390
23304WAT     H270155   5.683   8.578   9.260
23305WAT      O70156   5.327   3.523   9.291
23305WAT     H170157   5.370   3.466   9.360
23305WAT     H270158   5.384   3.604   9.274
23306WAT      O70159   6.328   3.978   3.746
23306WAT     H170160   6.423   3.972   3.717
23306WAT     H270161   6.300   3.892   3.789
23307WAT      O70162   5.806   8.320   7.194
23307WAT     H170163   5.798   8.417   7.169
23307WAT     H270164   5.806   8.264   7.111
23308WAT      O70165   0.062   8.415   6.353
23308WAT     H170166   0.046   8.512   6.374
23308WAT     H270167   0.041   8.360   6.434
23309WAT      O70168   4.842   1.611   8.417
23309WAT     H170169   4.895   1.667   8.481
23309WAT     H270170   4.790   1.543   8.468
23310WAT      O70171   5.577   0.495   2.774
23310WAT     H170172   5.622   0.574   2.815
23310WAT     H270173   5.492   0.523   2.730
23311WAT      O70174   9.286   8.364   8.078
23311WAT     H170175   9.317   8.337   7.987
23311WAT     H270176   9.364   8.368   8.140
23312WAT      O70177   0.659   2.956   1.305
23312WAT     H170178   0.589   2.915   1.246
23312WAT     H270179   0.637   2.936   1.401
23313WAT      O70180   5.675   9.381   4.512
23313WAT     H170181   5.770   9.380   4.484
23313WAT     H270182   5.622   9.320   4.452
23314WAT      O70183   4.258   8.154   7.231
23314WAT     H170184   4.256   8.111   7.321
23314WAT     H270185   4.274   8.252   7.242
23315WAT      O70186   5.674   2.448   6.852
23315WAT     H170187   5.691   2.420   6.947
23315WAT     H270188   5.622   2.533   6.852
23316WAT      O70189   9.529   2.107   3.618
23316WAT     H170190   9.542   2.008   3.621
23316WAT     H270191   9.482   2.132   3.534
23317WAT      O70192   5.025   7.061   6.820
23317WAT     H170193   4.986   7.098   6.905
23317WAT     H270194   5.074   7.133   6.771
23318WAT      O70195   5.645   0.884   5.712
23318WAT     H170196   5.741   0.879   5.685
23318WAT     H270197   5.610   0.976   5.691
23319WAT      O70198   6.638   3.456   2.195
23319WAT     H170199   6.620   3.406   2.279
23319WAT     H270200   6.661   3.392   2.122
23320WAT      O70201   0.414   4.089   3.300
23320WAT     H170202   0.316   4.073   3.317
23320WAT     H270203   0.465   4.005   3.315
23321WAT      O70204   0.088   9.303   2.577
23321WAT     H170205   0.058   9.291   2.483
23321WAT     H270206   0.187   9.309   2.580
23322WAT      O70207   7.086   8.351   0.754
23322WAT     H170208   7.019   8.421   0.734
23322WAT     H270209   7.178   8.384   0.731
23323WAT      O70210   7.134   6.239   2.506
23323WAT     H170211   7.074   6.277   2.576
23323WAT     H270212   7.215   6.200   2.550
23324WAT      O70213   2.394   5.404   2.413
23324WAT     H170214   2.336   5.331   2.449
23324WAT     H270215   2.490   5.378   2.421
23325WAT      O70216   7.307   9.568   3.183
23325WAT     H170217   7.366   9.491   3.162
23325WAT     H270218   7.232   9.538   3.242
23326WAT      O70219   3.653   6.725   3.056
23326WAT     H170220   3.625   6.691   3.146
23326WAT     H270221   3.645   6.652   2.988
23327WAT      O70222   7.263   2.959   4.433
23327WAT     H170223   7.204   3.021   4.382
23327WAT     H270224   7.358   2.990   4.427
23328WAT      O70225   1.843   9.473   6.810
23328WAT     H170226   1.941   9.484   6.822
23328WAT     H270227   1.796   9.557   6.838
23329WAT      O70228   4.203   5.589   0.514
23329WAT     H170229   4.105   5.595   0.531
23329WAT     H270230   4.235   5.674   0.472
23330WAT      O70231   2.651   2.717   4.654
23330WAT     H170232   2.732   2.734   4.710
23330WAT     H270233   2.654   2.624   4.619
23331WAT      O70234   0.703   3.629   3.470
23331WAT     H170235   0.651   3.563   3.524
23331WAT     H270236   0.794   3.639   3.510
23332WAT      O70237   4.170   5.112   3.425
23332WAT     H170238   4.185   5.087   3.330
23332WAT     H270239   4.182   5.210   3.436
23333WAT      O70240   1.157   7.824   9.533
23333WAT     H170241   1.120   7.857   9.620
23333WAT     H270242   1.082   7.808   9.469
23334WAT      O70243   9.650   7.933   0.211
23334WAT     H170244   9.716   8.007   0.212
23334WAT     H270245   9.678   7.863   0.145
23335WAT      O70246   3.422   1.494   2.106
23335WAT     H170247   3.407   1.483   2.205
23335WAT     H270248   3.445   1.589   2.086
23336WAT      O70249   3.787   2.828   2.210
23336WAT     H170250   3.697   2.815   2.253
23336WAT     H270251   3.842   2.889   2.267
23337WAT      O70252   4.831   1.884   2.409
23337WAT     H170253   4.891   1.812   2.444
23337WAT     H270254   4.867   1.920   2.324
23338WAT      O70255   8.748   5.378   5.258
23338WAT     H170256   8.804   5.298   5.236
23338WAT     H270257   8.706   5.412   5.174
23339WAT      O70258   7.522   9.360   3.716
23339WAT     H170259   7.506   9.441   3.660
23339WAT     H270260   7.472   9.368   3.802
23340WAT      O70261   8.461   9.696   5.816
23340WAT     H170262   8.458   9.781   5.868
23340WAT     H270263   8.368   9.659   5.807
23341WAT      O70264   2.733   9.196   0.707
23341WAT     H170265   2.663   9.214   0.637
23341WAT     H270266   2.823   9.217   0.670
23342WAT      O70267   9.645   8.948   3.742
23342WAT     H170268   9.725   8.905   3.783
23342WAT     H270269   9.670   9.037   3.704
23343WAT      O70270   3.986   7.207   8.558
23343WAT     H170271   3.908   7.172   8.505
23343WAT     H270272   3.995   7.155   8.643
23344WAT      O70273   2.956   7.191   5.695
23344WAT     H170274   2.973   7.137   5.777
23344WAT     H270275   3.038   7.243   5.671
23345WAT      O70276   6.682   5.097   7.823
23345WAT     H170277   6.663   5.014   7.770
23345WAT     H270278   6.741   5.074   7.901
23346WAT      O70279   0.807   0.399   2.448
23346WAT     H170280   0.790   0.311   2.491
23346WAT     H270281   0.901   0.428   2.465
23347WAT      O70282   2.543   3.543   8.129
23347WAT     H170283   2.631   3.555   8.082
23347WAT     H270284   2.486   3.624   8.113
23348WAT      O70285   9.474   4.298   2.504
23348WAT     H170286   9.388   4.319   2.458
23348WAT     H270287   9.496   4.371   2.569
23349WAT      O70288   8.671   8.245   5.980
23349WAT     H170289   8.752   8.305   5.978
23349WAT     H270290   8.607   8.274   5.909
23350WAT      O70291   2.251   6.802   0.229
23350WAT     H170292   2.205   6.828   0.144
23350WAT     H270293   2.183   6.777   0.298
23351WAT      O70294   0.705   0.390   6.535
23351WAT     H170295   0.801   0.398   6.510
23351WAT     H270296   0.695   0.390   6.634
23352WAT      O70297   1.293   1.427   2.809
23352WAT     H170298   1.366   1.381   2.861
23352WAT     H270299   1.205   1.411   2.854
23353WAT      O70300   4.280   1.631   3.728
23353WAT     H170301   4.357   1.685   3.695
23353WAT     H270302   4.270   1.548   3.673
23354WAT      O70303   5.771   1.365   3.674
23354WAT     H170304   5.677   1.348   3.704
23354WAT     H270305   5.811   1.280   3.642
23355WAT      O70306   5.325   5.225   2.362
23355WAT     H170307   5.286   5.317   2.369
23355WAT     H270308   5.422   5.231   2.341
23356WAT      O70309   7.192   8.190   9.139
23356WAT     H170310   7.210   8.282   9.175
23356WAT     H270311   7.279   8.141   9.128
23357WAT      O70312   5.041   7.453   2.898
23357WAT     H170313   5.124   7.488   2.940
23357WAT     H270314   4.968   7.521   2.907
23358WAT      O70315   2.903   3.220   0.851
23358WAT     H170316   2.911   3.236   0.950
23358WAT     H270317   2.857   3.132   0.836
23359WAT      O70318   8.014   6.988   2.888
23359WAT     H170319   8.036   6.895   2.859
23359WAT     H270320   8.051   7.004   2.980
23360WAT      O70321   8.278   7.249   3.225
23360WAT     H170322   8.328   7.314   3.169
23360WAT     H270323   8.186   7.283   3.242
23361WAT      O70324   6.922   0.225   5.460
23361WAT     H170325   6.840   0.220   5.403
23361WAT     H270326   6.954   0.320   5.463
23362WAT      O70327   4.809   4.840   6.501
23362WAT     H170328   4.803   4.789   6.415
23362WAT     H270329   4.784   4.936   6.485
23363WAT      O70330   8.517   6.340   8.814
23363WAT     H170331   8.546   6.251   8.850
23363WAT     H270332   8.555   6.352   8.722
23364WAT      O70333   5.506   0.853   7.346
23364WAT     H170334   5.417   0.809   7.335
23364WAT     H270335   5.502   0.946   7.311
23365WAT      O70336   4.711   5.108   8.140
23365WAT     H170337   4.755   5.036   8.087
23365WAT     H270338   4.776   5.147   8.205
23366WAT      O70339   6.636   9.673   7.369
23366WAT     H170340   6.687   9.603   7.420
23366WAT     H270341   6.586   9.731   7.433
23367WAT      O70342   4.571   8.933   0.059
23367WAT     H170343   4.569   8.886   0.148
23367WAT     H270344   4.558   8.866  -0.014
23368WAT      O70345   2.093   3.946   2.897
23368WAT     H170346   2.058   4.030   2.857
23368WAT     H270347   2.173   3.914   2.845
23369WAT      O70348   7.105   4.579   6.083
23369WAT     H170349   7.055   4.493   6.086
23369WAT     H270350   7.113   4.610   5.988
23370WAT      O70351   1.395   6.369   3.897
23370WAT     H170352   1.345   6.386   3.981
23370WAT     H270353   1.383   6.446   3.834
23371WAT      O70354   2.483   6.707   7.263
23371WAT     H170355   2.515   6.679   7.173
23371WAT     H270356   2.396   6.663   7.283
23372WAT      O70357   2.548   0.423   3.116
23372WAT     H170358   2.602   0.480   3.053
23372WAT     H270359   2.540   0.470   3.204
23373WAT      O70360   2.503   8.768   8.399
23373WAT     H170361   2.481   8.790   8.304
23373WAT     H270362   2.476   8.845   8.457
23374WAT      O70363   3.132   3.601   8.881
23374WAT     H170364   3.200   3.528   8.881
23374WAT     H270365   3.086   3.605   8.792
23375WAT      O70366   9.684   2.842   6.063
23375WAT     H170367   9.608   2.782   6.089
23375WAT     H270368   9.675   2.929   6.111
23376WAT      O70369   7.788   9.122   8.225
23376WAT     H170370   7.857   9.178   8.271
23376WAT     H270371   7.704   9.123   8.279
23377WAT      O70372   3.937   2.357   2.574
23377WAT     H170373   4.025   2.310   2.565
23377WAT     H270374   3.875   2.324   2.504
23378WAT      O70375   0.426   7.888   1.761
23378WAT     H170376   0.474   7.801   1.762
23378WAT     H270377   0.420   7.924   1.854
23379WAT      O70378   5.957   7.358   3.092
23379WAT     H170379   5.956   7.289   3.165
23379WAT     H270380   5.875   7.346   3.035
23380WAT      O70381   4.582   7.382   1.617
23380WAT     H170382   4.586   7.295   1.568
23380WAT     H270383   4.671   7.428   1.610
23381WAT      O70384   4.425   5.331   9.179
23381WAT     H170385   4.351   5.267   9.198
23381WAT     H270386   4.511   5.293   9.214
23382WAT      O70387   6.656   4.323   4.749
23382WAT     H170388   6.628   4.332   4.845
23382WAT     H270389   6.583   4.355   4.690
23383WAT      O70390   8.175   7.387   0.923
23383WAT     H170391   8.196   7.301   0.970
23383WAT     H270392   8.257   7.423   0.879
23384WAT      O70393   2.918   2.389   0.659
23384WAT     H170394   2.922   2.413   0.562
23384WAT     H270395   2.891   2.294   0.670
23385WAT      O70396   4.104   1.149   8.184
23385WAT     H170397   4.199   1.175   8.200
23385WAT     H270398   4.088   1.056   8.216
23386WAT      O70399   6.940   2.785   4.006
23386WAT     H170400   7.006   2.860   4.010
23386WAT     H270401   6.862   2.807   4.065
23387WAT      O70402   0.368   1.505   3.246
23387WAT     H170403   0.291   1.502   3.310
23387WAT     H270404   0.334   1.506   3.152
23388WAT      O70405   6.620   9.359   4.272
23388WAT     H170406   6.532   9.313   4.289
23388WAT     H270407   6.666   9.316   4.195
23389WAT      O70408   2.252   5.405   6.077
23389WAT     H170409   2.303   5.393   5.992
23389WAT     H270410   2.243   5.316   6.123
23390WAT      O70411   2.631   2.309   2.559
23390WAT     H170412   2.620   2.366   2.641
23390WAT     H270413   2.660   2.367   2.483
23391WAT      O70414   1.062   3.964   1.891
23391WAT     H170415   1.038   3.940   1.985
23391WAT     H270416   1.157   3.938   1.873
23392WAT      O70417   4.385   1.840   7.243
23392WAT     H170418   4.305   1.872   7.293
23392WAT     H270419   4.420   1.913   7.185
23393WAT      O70420   2.208   5.240   0.678
23393WAT     H170421   2.210   5.255   0.777
23393WAT     H270422   2.164   5.152   0.659
23394WAT      O70423   9.612   4.187   4.595
23394WAT     H170424   9.599   4.271   4.647
23394WAT     H270425   9.637   4.210   4.501
23395WAT      O70426   7.940   4.145   3.450
23395WAT     H170427   8.037   4.150   3.424
23395WAT     H270428   7.916   4.223   3.507
23396WAT      O70429   4.242   2.684   1.473
23396WAT     H170430   4.327   2.634   1.488
23396WAT     H270431   4.193   2.694   1.559
23397WAT      O70432   1.123   0.705   9.360
23397WAT     H170433   1.126   0.796   9.318
23397WAT     H270434   1.028   0.679   9.375
23398WAT      O70435   3.069   6.624   1.835
23398WAT     H170436   3.147   6.618   1.899
23398WAT     H270437   3.031   6.532   1.822
23399WAT      O70438   2.619   3.263   8.119
23399WAT     H170439   2.593   3.357   8.097
23399WAT     H270440   2.719   3.256   8.120
23400WAT      O70441   6.230   8.758   7.515
23400WAT     H170442   6.234   8.835   7.452
23400WAT     H270443   6.136   8.727   7.524
23401WAT      O70444   8.202   6.207   4.535
23401WAT     H170445   8.156   6.291   4.508
23401WAT     H270446   8.202   6.199   4.635
23402WAT      O70447   6.291   0.229   6.203
23402WAT     H170448   6.348   0.231   6.285
23402WAT     H270449   6.213   0.168   6.218
23403WAT      O70450   9.763   2.065   7.867
23403WAT     H170451   9.722   2.039   7.780
23403WAT     H270452   9.811   1.987   7.907
23404WAT      O70453   4.422   9.693   1.170
23404WAT     H170454   4.390   9.696   1.075
23404WAT     H270455   4.505   9.638   1.175
23405WAT      O70456   2.462   7.493   3.859
23405WAT     H170457   2.478   7.424   3.929
23405WAT     H270458   2.370   7.482   3.822
23406WAT      O70459   2.510   6.202   9.541
23406WAT     H170460   2.469   6.242   9.459
23406WAT     H270461   2.500   6.103   9.538
23407WAT      O70462   2.203   8.144   7.143
23407WAT     H170463   2.108   8.125   7.119
23407WAT     H270464   2.236   8.074   7.206
23408WAT      O70465   4.840   9.019   8.829
23408WAT     H170466   4.795   9.103   8.859
23408WAT     H270467   4.912   8.994   8.894
23409WAT      O70468   7.805   4.880   6.612
23409WAT     H170469   7.783   4.855   6.706
23409WAT     H270470   7.806   4.980   6.603
23410WAT      O70471   1.963   4.588   6.612
23410WAT     H170472   1.897   4.514   6.599
23410WAT     H270473   1.914   4.675   6.615
23411WAT      O70474   5.262   3.484   1.778
23411WAT     H170475   5.215   3.571   1.763
23411WAT     H270476   5.197   3.416   1.811
23412WAT      O70477   1.653   5.542   8.108
23412WAT     H170478   1.631   5.595   8.190
23412WAT     H270479   1.699   5.601   8.041
23413WAT      O70480   0.918   3.165   2.847
23413WAT     H170481   0.862   3.131   2.922
23413WAT     H270482   0.939   3.091   2.784
23414WAT      O70483   4.496   3.678   4.308
23414WAT     H170484   4.545   3.728   4.379
23414WAT     H270485   4.558   3.655   4.234
23415WAT      O70486   7.098   2.012   3.923
23415WAT     H170487   7.009   1.969   3.906
23415WAT     H270488   7.154   2.008   3.840
23416WAT      O70489   5.305   0.777   5.959
23416WAT     H170490   5.217   0.730   5.965
23416WAT     H270491   5.292   0.867   5.917
23417WAT      O70492   8.171   1.909   3.909
23417WAT     H170493   8.242   1.965   3.865
23417WAT     H270494   8.081   1.944   3.883
23418WAT      O70495   6.679   1.223   6.707
23418WAT     H170496   6.598   1.274   6.736
23418WAT     H270497   6.651   1.146   6.651
23419WAT      O70498   4.660   8.407   4.482
23419WAT     H170499   4.644   8.375   4.388
23419WAT     H270500   4.582   8.381   4.539
23420WAT      O70501   9.266   5.325   2.069
23420WAT     H170502   9.345   5.384   2.051
23420WAT     H270503   9.208   5.368   2.139
23421WAT      O70504   2.947   6.172   9.096
23421WAT     H170505   3.007   6.242   9.134
23421WAT     H270506   2.941   6.095   9.160
23422WAT      O70507   6.354   5.736   0.593
23422WAT     H170508   6.373   5.639   0.605
23422WAT     H270509   6.387   5.787   0.673
23423WAT      O70510   8.517   1.106   3.629
23423WAT     H170511   8.536   1.182   3.567
23423WAT     H270512   8.434   1.058   3.599
23424WAT      O70513   1.599   4.956   8.015
23424WAT     H170514   1.651   4.909   7.944
23424WAT     H270515   1.594   4.897   8.096
23425WAT      O70516   9.212   1.313   0.599
23425WAT     H170517   9.172   1.257   0.671
23425WAT     H270518   9.189   1.273   0.509
23426WAT      O70519   4.951   8.245   0.893
23426WAT     H170520   5.038   8.195   0.899
23426WAT     H270521   4.882   8.198   0.948
23427WAT      O70522   8.572   3.585   9.630
23427WAT     H170523   8.641   3.653   9.657
23427WAT     H270524   8.616   3.508   9.584
23428WAT      O70525   6.670   4.889   6.259
23428WAT     H170526   6.717   4.807   6.228
23428WAT     H270527   6.580   4.894   6.217
23429WAT      O70528   8.074   5.071   5.530
23429WAT     H170529   8.106   4.992   5.581
23429WAT     H270530   7.974   5.073   5.531
23430WAT      O70531   4.576   5.518   5.790
23430WAT     H170532   4.665   5.516   5.837
23430WAT     H270533   4.532   5.429   5.801
23431WAT      O70534   0.781   7.410   7.235
23431WAT     H170535   0.877   7.388   7.221
23431WAT     H270536   0.724   7.344   7.187
23432WAT      O70537   8.613   2.919   1.284
23432WAT     H170538   8.580   3.012   1.300
23432WAT     H270539   8.539   2.864   1.244
23433WAT      O70540   5.752   3.202   6.961
23433WAT     H170541   5.771   3.171   7.054
23433WAT     H270542   5.761   3.301   6.957
23434WAT      O70543   2.667   4.748   2.596
23434WAT     H170544   2.735   4.723   2.665
23434WAT     H270545   2.609   4.821   2.631
23435WAT      O70546   8.142   5.539   2.563
23435WAT     H170547   8.187   5.623   2.594
23435WAT     H270548   8.211   5.468   2.548
23436WAT      O70549   3.072   0.400   8.978
23436WAT     H170550   3.104   0.489   9.012
23436WAT     H270551   3.003   0.415   8.907
23437WAT      O70552   4.103   6.930   7.549
23437WAT     H170553   4.091   7.029   7.557
23437WAT     H270554   4.022   6.890   7.506
23438WAT      O70555   0.844   6.284   0.768
23438WAT     H170556   0.809   6.376   0.785
23438WAT     H270557   0.942   6.288   0.752
23439WAT      O70558   4.735   3.040   8.288
23439WAT     H170559   4.830   3.043   8.318
23439WAT     H270560   4.731   3.051   8.188
23440WAT      O70561   1.143   8.638   0.601
23440WAT     H170562   1.107   8.555   0.557
23440WAT     H270563   1.220   8.615   0.659
23441WAT      O70564   1.434   7.206   7.398
23441WAT     H170565   1.344   7.162   7.390
23441WAT     H270566   1.504   7.136   7.409
23442WAT      O70567   6.807   5.914   6.020
23442WAT     H170568   6.829   5.841   6.084
23442WAT     H270569   6.708   5.928   6.018
23443WAT      O70570   8.145   9.756   0.190
23443WAT     H170571   8.136   9.838   0.246
23443WAT     H270572   8.149   9.676   0.249
23444WAT      O70573   1.411   0.652   3.606
23444WAT     H170574   1.496   0.601   3.604
23444WAT     H270575   1.388   0.675   3.701
23445WAT      O70576   8.127   6.817   1.861
23445WAT     H170577   8.059   6.891   1.850
23445WAT     H270578   8.100   6.759   1.937
23446WAT      O70579   2.456   3.486   2.720
23446WAT     H170580   2.395   3.436   2.658
23446WAT     H270581   2.429   3.583   2.721
23447WAT      O70582   0.492   9.660   0.078
23447WAT     H170583   0.503   9.660   0.177
23447WAT     H270584   0.436   9.582   0.051
23448WAT      O70585   8.891   3.404   0.725
23448WAT     H170586   8.852   3.364   0.808
23448WAT     H270587   8.915   3.331   0.662
23449WAT      O70588   9.314   9.652   9.233
23449WAT     H170589   9.319   9.662   9.333
23449WAT     H270590   9.321   9.743   9.191
23450WAT      O70591   8.246   4.810   3.022
23450WAT     H170592   8.268   4.759   3.105
23450WAT     H270593   8.281   4.760   2.942
23451WAT      O70594   3.694   3.082   8.293
23451WAT     H170595   3.619   3.044   8.239
23451WAT     H270596   3.673   3.073   8.390
23452WAT      O70597   0.759   0.209   7.121
23452WAT     H170598   0.836   0.238   7.063
23452WAT     H270599   0.790   0.199   7.215
23453WAT      O70600   7.850   7.020   7.414
23453WAT     H170601   7.946   7.044   7.426
23453WAT     H270602   7.816   7.057   7.328
23454WAT      O70603   5.370   2.617   7.688
23454WAT     H170604   5.308   2.684   7.647
23454WAT     H270605   5.364   2.623   7.787
23455WAT      O70606   8.851   5.559   1.102
23455WAT     H170607   8.757   5.564   1.069
23455WAT     H270608   8.914   5.574   1.026
23456WAT      O70609   5.113   7.976   5.368
23456WAT     H170610   5.049   7.912   5.410
23456WAT     H270611   5.064   8.059   5.340
23457WAT      O70612   5.193   2.383   7.617
23457WAT     H170613   5.166   2.474   7.585
23457WAT     H270614   5.224   2.390   7.712
23458WAT      O70615   9.546   5.472   2.545
23458WAT     H170616   9.521   5.376   2.530
23458WAT     H270617   9.595   5.480   2.632
23459WAT      O70618   1.665   3.615   6.811
23459WAT     H170619   1.681   3.706   6.851
23459WAT     H270620   1.636   3.626   6.715
23460WAT      O70621   1.817   5.269   1.679
23460WAT     H170622   1.837   5.340   1.746
23460WAT     H270623   1.848   5.298   1.589
23461WAT      O70624   3.803   8.904   1.549
23461WAT     H170625   3.798   9.001   1.525
23461WAT     H270626   3.734   8.884   1.619
23462WAT      O70627   1.123   9.695   5.563
23462WAT     H170628   1.071   9.768   5.607
23462WAT     H270629   1.182   9.651   5.631
23463WAT      O70630   2.183   0.773   2.063
23463WAT     H170631   2.194   0.778   1.964
23463WAT     H270632   2.190   0.865   2.102
23464WAT      O70633   0.186   6.133   9.818
23464WAT     H170634   0.260   6.200   9.820
23464WAT     H270635   0.224   6.041   9.815
23465WAT      O70636   1.931   4.383   7.934
23465WAT     H170637   1.933   4.395   8.033
23465WAT     H270638   1.841   4.349   7.906
23466WAT      O70639   3.865   5.155   0.145
23466WAT     H170640   3.927   5.107   0.207
23466WAT     H270641   3.771   5.131   0.166
23467WAT      O70642   4.163   5.240   5.277
23467WAT     H170643   4.077   5.201   5.309
23467WAT     H270644   4.157   5.259   5.179
23468WAT      O70645   6.816   8.801   3.590
23468WAT     H170646   6.768   8.841   3.668
23468WAT     H270647   6.760   8.728   3.549
23469WAT      O70648   0.340   0.296   3.211
23469WAT     H170649   0.260   0.324   3.264
23469WAT     H270650   0.400   0.240   3.268
23470WAT      O70651   8.980   8.862   3.045
23470WAT     H170652   8.885   8.847   3.015
23470WAT     H270653   8.989   8.839   3.142
23471WAT      O70654   6.554   2.594   7.171
23471WAT     H170655   6.492   2.538   7.226
23471WAT     H270656   6.501   2.649   7.107
23472WAT      O70657   9.720   1.080   5.096
23472WAT     H170658   9.712   0.995   5.044
23472WAT     H270659   9.636   1.094   5.149
23473WAT      O70660   6.253   4.157   4.159
23473WAT     H170661   6.155   4.135   4.164
23473WAT     H270662   6.306   4.082   4.198
23474WAT      O70663   4.677   8.277   8.711
23474WAT     H170664   4.707   8.349   8.649
23474WAT     H270665   4.577   8.282   8.723
23475WAT      O70666   5.821   4.339   7.181
23475WAT     H170667   5.860   4.353   7.090
23475WAT     H270668   5.883   4.284   7.237
23476WAT      O70669   0.404   7.604   7.656
23476WAT     H170670   0.456   7.519   7.663
23476WAT     H270671   0.467   7.682   7.649
23477WAT      O70672   3.045   8.076   5.585
23477WAT     H170673   2.953   8.077   5.625
23477WAT     H270674   3.112   8.100   5.655
23478WAT      O70675   1.815   7.654   8.735
23478WAT     H170676   1.763   7.647   8.820
23478WAT     H270677   1.816   7.565   8.689
23479WAT      O70678   7.922   3.125   3.540
23479WAT     H170679   7.846   3.190   3.545
23479WAT     H270680   7.894   3.037   3.579
23480WAT      O70681   7.400   9.818   3.811
23480WAT     H170682   7.499   9.803   3.821
23480WAT     H270683   7.384   9.896   3.751
23481WAT      O70684   7.327   2.927   3.483
23481WAT     H170685   7.288   3.019   3.487
23481WAT     H270686   7.422   2.932   3.455
23482WAT      O70687   9.573   1.628   2.596
23482WAT     H170688   9.609   1.542   2.558
23482WAT     H270689   9.648   1.692   2.608
23483WAT      O70690   7.378   2.982   2.057
23483WAT     H170691   7.334   2.912   2.001
23483WAT     H270692   7.430   2.938   2.130
23484WAT      O70693   9.175   4.545   2.019
23484WAT     H170694   9.235   4.510   2.091
23484WAT     H270695   9.175   4.645   2.021
23485WAT      O70696   3.420   1.936   6.664
23485WAT     H170697   3.434   1.891   6.752
23485WAT     H270698   3.323   1.958   6.653
23486WAT      O70699   3.693   8.450   5.309
23486WAT     H170700   3.770   8.512   5.297
23486WAT     H270701   3.726   8.357   5.319
23487WAT      O70702   5.350   6.786   7.294
23487WAT     H170703   5.304   6.709   7.338
23487WAT     H270704   5.308   6.801   7.204
23488WAT      O70705   0.861   8.466   3.071
23488WAT     H170706   0.832   8.375   3.040
23488WAT     H270707   0.942   8.457   3.128
23489WAT      O70708   1.433   0.098   4.864
23489WAT     H170709   1.418   0.103   4.963
23489WAT     H270710   1.474   0.009   4.842
23490WAT      O70711   7.206   7.726   3.275
23490WAT     H170712   7.255   7.798   3.324
23490WAT     H270713   7.138   7.684   3.335
23491WAT      O70714   3.770   2.218   4.100
23491WAT     H170715   3.861   2.179   4.111
23491WAT     H270716   3.735   2.246   4.189
23492WAT      O70717   5.397   1.255   1.630
23492WAT     H170718   5.445   1.261   1.543
23492WAT     H270719   5.460   1.276   1.705
23493WAT      O70720   6.909   7.552   0.594
23493WAT     H170721   6.880   7.457   0.606
23493WAT     H270722   6.835   7.613   0.618
23494WAT      O70723   5.028   6.749   7.222
23494WAT     H170724   5.054   6.673   7.282
23494WAT     H270725   5.002   6.713   7.132
23495WAT      O70726   3.829   3.223   0.179
23495WAT     H170727   3.774   3.208   0.261
23495WAT     H270728   3.876   3.310   0.186
23496WAT      O70729   0.989   4.057   1.193
23496WAT     H170730   1.071   4.042   1.250
23496WAT     H270731   1.015   4.054   1.097
23497WAT      O70732   3.653   4.562   5.096
23497WAT     H170733   3.592   4.627   5.050
23497WAT     H270734   3.732   4.611   5.133
23498WAT      O70735   5.682   8.450   7.734
23498WAT     H170736   5.753   8.491   7.790
23498WAT     H270737   5.597   8.445   7.787
23499WAT      O70738   2.161   9.533   8.919
23499WAT     H170739   2.068   9.515   8.951
23499WAT     H270740   2.167   9.509   8.821
23500WAT      O70741   3.058   8.915   5.191
23500WAT     H170742   2.959   8.925   5.199
23500WAT     H270743   3.103   8.968   5.263
23501WAT      O70744   1.672   8.513   8.749
23501WAT     H170745   1.766   8.494   8.720
23501WAT     H270746   1.621   8.426   8.754
23502WAT      O70747   7.182   4.390   5.365
23502WAT     H170748   7.244   4.344   5.301
23502WAT     H270749   7.235   4.434   5.437
23503WAT      O70750   0.866   9.070   6.219
23503WAT     H170751   0.799   9.143   6.225
23503WAT     H270752   0.856   9.022   6.132
23504WAT      O70753   0.180   5.755   9.223
23504WAT     H170754   0.110   5.815   9.185
23504WAT     H270755   0.196   5.679   9.160
23505WAT      O70756   0.709   6.769   4.237
23505WAT     H170757   0.643   6.736   4.169
23505WAT     H270758   0.662   6.787   4.323
23506WAT      O70759   9.805   7.131   5.580
23506WAT     H170760   9.875   7.167   5.518
23506WAT     H270761   9.804   7.185   5.664
23507WAT      O70762   8.970   9.629   2.360
23507WAT     H170763   9.022   9.603   2.278
23507WAT     H270764   8.993   9.723   2.385
23508WAT      O70765   9.361   5.556   3.625
23508WAT     H170766   9.283   5.598   3.672
23508WAT     H270767   9.328   5.504   3.547
23509WAT      O70768   6.144   6.766   8.913
23509WAT     H170769   6.052   6.726   8.905
23509WAT     H270770   6.162   6.788   9.009
23510WAT      O70771   7.090   2.987   7.202
23510WAT     H170772   7.085   2.890   7.227
23510WAT     H270773   7.186   3.014   7.194
23511WAT      O70774   6.496   1.147   2.263
23511WAT     H170775   6.439   1.181   2.188
23511WAT     H270776   6.509   1.219   2.332
23512WAT      O70777   1.486   7.876   6.329
23512WAT     H170778   1.514   7.957   6.276
23512WAT     H270779   1.538   7.873   6.414
23513WAT      O70780   4.538   3.116   3.575
23513WAT     H170781   4.563   3.187   3.508
23513WAT     H270782   4.620   3.064   3.600
23514WAT      O70783   6.449   5.188   1.054
23514WAT     H170784   6.482   5.159   1.144
23514WAT     H270785   6.510   5.258   1.018
23515WAT      O70786   4.166   8.236   1.576
23515WAT     H170787   4.142   8.300   1.648
23515WAT     H270788   4.246   8.183   1.604
23516WAT      O70789   0.667   1.357   8.633
23516WAT     H170790   0.734   1.426   8.606
23516WAT     H270791   0.577   1.400   8.645
23517WAT      O70792   6.337   9.625   1.569
23517WAT     H170793   6.262   9.559   1.558
23517WAT     H270794   6.318   9.707   1.514
23518WAT      O70795   3.107   2.335   6.625
23518WAT     H170796   3.036   2.269   6.601
23518WAT     H270797   3.197   2.296   6.607
23519WAT      O70798   6.646   3.909   1.503
23519WAT     H170799   6.713   3.836   1.512
23519WAT     H270800   6.628   3.925   1.406
23520WAT      O70801   1.897   0.236   5.441
23520WAT     H170802   1.988   0.200   5.462
23520WAT     H270803   1.856   0.182   5.368
23521WAT      O70804   0.710   2.008   1.004
23521WAT     H170805   0.770   2.086   1.018
23521WAT     H270806   0.621   2.039   0.971
23522WAT      O70807   7.379   2.965   8.775
23522WAT     H170808   7.440   3.037   8.740
23522WAT     H270809   7.316   3.005   8.841
23523WAT      O70810   0.946   8.336   5.659
23523WAT     H170811   0.933   8.257   5.599
23523WAT     H270812   1.044   8.353   5.671
23524WAT      O70813   9.754   5.460   0.523
23524WAT     H170814   9.835   5.418   0.564
23524WAT     H270815   9.689   5.389   0.497
23525WAT      O70816   8.409   5.149   6.824
23525WAT     H170817   8.402   5.169   6.922
23525WAT     H270818   8.475   5.210   6.782
23526WAT      O70819   5.539   8.098   8.966
23526WAT     H170820   5.587   8.111   8.879
23526WAT     H270821   5.592   8.037   9.025
23527WAT      O70822   7.248   5.918   5.292
23527WAT     H170823   7.278   5.825   5.312
23527WAT     H270824   7.215   5.923   5.198
23528WAT      O70825   8.916   9.727   1.721
23528WAT     H170826   8.829   9.718   1.770
23528WAT     H270827   8.912   9.804   1.658
23529WAT      O70828   3.978   5.268   8.421
23529WAT     H170829   4.065   5.294   8.380
23529WAT     H270830   3.981   5.284   8.519
23530WAT      O70831   1.830   6.091   2.752
23530WAT     H170832   1.906   6.063   2.693
23530WAT     H270833   1.781   6.009   2.783
23531WAT      O70834   6.282   0.831   0.073
23531WAT     H170835   6.268   0.930   0.079
23531WAT     H270836   6.277   0.803  -0.023
23532WAT      O70837   8.732   3.360   8.289
23532WAT     H170838   8.649   3.409   8.261
23532WAT     H270839   8.717   3.262   8.279
23533WAT      O70840   3.373   3.811   9.290
23533WAT     H170841   3.292   3.766   9.253
23533WAT     H270842   3.378   3.905   9.257
23534WAT      O70843   3.289   8.991   0.107
23534WAT     H170844   3.205   9.030   0.069
23534WAT     H270845   3.311   9.037   0.193
23535WAT      O70846   7.328   5.675   9.048
23535WAT     H170847   7.400   5.711   8.988
23535WAT     H270848   7.342   5.710   9.141
23536WAT      O70849   5.218   5.358   6.251
23536WAT     H170850   5.137   5.301   6.240
23536WAT     H270851   5.209   5.414   6.333
23537WAT      O70852   2.334   0.387   7.362
23537WAT     H170853   2.237   0.396   7.381
23537WAT     H270854   2.372   0.312   7.416
23538WAT      O70855   9.794   0.421   9.787
23538WAT     H170856   9.824   0.513   9.762
23538WAT     H270857   9.730   0.426   9.864
23539WAT      O70858   5.986   1.602   3.153
23539WAT     H170859   6.042   1.529   3.191
23539WAT     H270860   5.985   1.679   3.217
23540WAT      O70861   5.447   7.811   1.690
23540WAT     H170862   5.348   7.808   1.677
23540WAT     H270863   5.474   7.736   1.751
23541WAT      O70864   4.536   5.881   8.000
23541WAT     H170865   4.572   5.843   7.915
23541WAT     H270866   4.481   5.962   7.980
23542WAT      O70867   8.198   3.806   5.406
23542WAT     H170868   8.291   3.824   5.374
23542WAT     H270869   8.139   3.785   5.328
23543WAT      O70870   6.797   5.888   0.412
23543WAT     H170871   6.780   5.930   0.501
23543WAT     H270872   6.711   5.865   0.368
23544WAT      O70873   2.598   6.471   8.339
23544WAT     H170874   2.562   6.535   8.407
23544WAT     H270875   2.675   6.420   8.378
23545WAT      O70876   5.914   0.554   0.149
23545WAT     H170877   5.920   0.454   0.154
23545WAT     H270878   5.869   0.588   0.232
23546WAT      O70879   3.055   7.051   7.550
23546WAT     H170880   3.092   7.134   7.593
23546WAT     H270881   3.120   6.977   7.561
23547WAT      O70882   8.337   7.951   0.950
23547WAT     H170883   8.369   8.011   1.024
23547WAT     H270884   8.288   7.873   0.989
23548WAT      O70885   9.846   4.672   2.155
23548WAT     H170886   9.925   4.665   2.217
23548WAT     H270887   9.773   4.612   2.188
23549WAT      O70888   9.577   4.704   4.330
23549WAT     H170889   9.517   4.777   4.296
23549WAT     H270890   9.625   4.735   4.412
23550WAT      O70891   8.955   8.759   2.724
23550WAT     H170892   9.029   8.826   2.715
23550WAT     H270893   8.895   8.786   2.801
23551WAT      O70894   0.052   4.256   7.314
23551WAT     H170895   0.058   4.356   7.311
23551WAT     H270896   0.012   4.228   7.401
23552WAT      O70897   4.476   2.494   7.706
23552WAT     H170898   4.495   2.466   7.612
23552WAT     H270899   4.510   2.424   7.769
23553WAT      O70900   6.427   8.938   7.278
23553WAT     H170901   6.449   8.922   7.181
23553WAT     H270902   6.455   8.858   7.331
23554WAT      O70903   1.947   1.407   6.838
23554WAT     H170904   2.037   1.372   6.861
23554WAT     H270905   1.926   1.487   6.894
23555WAT      O70906   8.297   0.385   1.456
23555WAT     H170907   8.323   0.473   1.418
23555WAT     H270908   8.336   0.375   1.548
23556WAT      O70909   0.577   1.439   6.331
23556WAT     H170910   0.530   1.375   6.270
23556WAT     H270911   0.522   1.521   6.343
23557WAT      O70912   2.071   4.407   3.741
23557WAT     H170913   2.092   4.505   3.738
23557WAT     H270914   2.059   4.378   3.836
23558WAT      O70915   4.952   1.732   2.853
23558WAT     H170916   4.876   1.685   2.807
23558WAT     H270917   5.037   1.681   2.839
23559WAT      O70918   6.340   1.888   2.862
23559WAT     H170919   6.321   1.856   2.769
23559WAT     H270920   6.281   1.841   2.927
23560WAT      O70921   0.931   0.234   3.261
23560WAT     H170922   0.956   0.137   3.268
23560WAT     H270923   0.889   0.251   3.173
23561WAT      O70924   7.191   7.797   1.063
23561WAT     H170925   7.188   7.699   1.045
23561WAT     H270926   7.286   7.829   1.065
23562WAT      O70927   8.533   8.675   9.613
23562WAT     H170928   8.450   8.640   9.657
23562WAT     H270929   8.566   8.607   9.548
23563WAT      O70930   7.486   8.666   9.701
23563WAT     H170931   7.413   8.732   9.719
23563WAT     H270932   7.575   8.711   9.712
23564WAT      O70933   5.124   4.133   9.604
23564WAT     H170934   5.064   4.086   9.668
23564WAT     H270935   5.097   4.111   9.511
23565WAT      O70936   4.399   9.444   0.037
23565WAT     H170937   4.346   9.499   0.101
23565WAT     H270938   4.497   9.461   0.053
23566WAT      O70939   4.738   3.620   7.768
23566WAT     H170940   4.777   3.702   7.811
23566WAT     H270941   4.807   3.548   7.766
23567WAT      O70942   8.064   4.872   5.179
23567WAT     H170943   8.024   4.808   5.244
23567WAT     H270944   8.056   4.965   5.214
23568WAT      O70945   8.401   3.712   5.050
23568WAT     H170946   8.461   3.746   4.978
23568WAT     H270947   8.442   3.633   5.093
23569WAT      O70948   0.578   0.703   4.930
23569WAT     H170949   0.599   0.770   4.859
23569WAT     H270950   0.532   0.625   4.889
23570WAT      O70951   4.022   2.327   5.914
23570WAT     H170952   4.079   2.330   5.832
23570WAT     H270953   4.018   2.234   5.949
23571WAT      O70954   7.876   1.479   9.529
23571WAT     H170955   7.936   1.428   9.467
23571WAT     H270956   7.855   1.422   9.608
23572WAT      O70957   1.686   7.329   0.240
23572WAT     H170958   1.661   7.425   0.252
23572WAT     H270959   1.711   7.290   0.329
23573WAT      O70960   1.156   4.940   7.503
23573WAT     H170961   1.093   5.007   7.463
23573WAT     H270962   1.116   4.902   7.586
23574WAT      O70963   3.301   0.299   3.762
23574WAT     H170964   3.391   0.262   3.787
23574WAT     H270965   3.230   0.235   3.792
23575WAT      O70966   6.608   3.607   8.017
23575WAT     H170967   6.634   3.533   7.955
23575WAT     H270968   6.509   3.604   8.033
23576WAT      O70969   3.138   0.794   8.246
23576WAT     H170970   3.236   0.784   8.227
23576WAT     H270971   3.113   0.734   8.322
23577WAT      O70972   9.732   6.489   9.874
23577WAT     H170973   9.721   6.456   9.967
23577WAT     H270974   9.829   6.504   9.855
23578WAT      O70975   4.894   5.068   1.072
23578WAT     H170976   4.806   5.031   1.101
23578WAT     H270977   4.882   5.163   1.042
23579WAT      O70978   6.090   7.154   2.313
23579WAT     H170979   6.111   7.238   2.363
23579WAT     H270980   6.175   7.115   2.276
23580WAT      O70981   6.077   3.739   9.508
23580WAT     H170982   6.100   3.791   9.426
23580WAT     H270983   6.044   3.801   9.579
23581WAT      O70984   2.069   2.386   0.327
23581WAT     H170985   1.987   2.335   0.302
23581WAT     H270986   2.144   2.362   0.264
23582WAT      O70987   1.410   8.466   1.042
23582WAT     H170988   1.435   8.544   1.099
23582WAT     H270989   1.493   8.419   1.011
23583WAT      O70990   7.505   4.181   7.882
23583WAT     H170991   7.566   4.258   7.896
23583WAT     H270992   7.508   4.152   7.786
23584WAT      O70993   6.604   2.751   5.855
23584WAT     H170994   6.673   2.777   5.787
23584WAT     H270995   6.548   2.830   5.878
23585WAT      O70996   9.536   2.543   5.781
23585WAT     H170997   9.563   2.548   5.685
23585WAT     H270998   9.616   2.521   5.836
23586WAT      O70999   4.214   9.375   3.879
23586WAT     H171000   4.130   9.428   3.885
23586WAT     H271001   4.243   9.349   3.972
23587WAT      O71002   7.452   0.506   6.585
23587WAT     H171003   7.435   0.464   6.674
23587WAT     H271004   7.519   0.579   6.594
23588WAT      O71005   4.227   4.919   2.709
23588WAT     H171006   4.242   5.008   2.667
23588WAT     H271007   4.145   4.923   2.766
23589WAT      O71008   0.910   6.816   9.525
23589WAT     H171009   0.932   6.736   9.580
23589WAT     H271010   0.989   6.841   9.469
23590WAT      O71011   5.018   2.601   4.904
23590WAT     H171012   5.078   2.578   4.980
23590WAT     H271013   4.942   2.537   4.900
23591WAT      O71014   1.639   6.103   3.370
23591WAT     H171015   1.556   6.067   3.329
23591WAT     H271016   1.644   6.076   3.466
23592WAT      O71017   9.203   6.753   3.152
23592WAT     H171018   9.136   6.769   3.080
23592WAT     H271019   9.267   6.830   3.156
23593WAT      O71020   9.718   3.287   8.949
23593WAT     H171021   9.722   3.384   8.976
23593WAT     H271022   9.659   3.277   8.869
23594WAT      O71023   4.484   8.469   6.754
23594WAT     H171024   4.534   8.457   6.668
23594WAT     H271025   4.416   8.541   6.743
23595WAT      O71026   2.277   5.328   2.814
23595WAT     H171027   2.276   5.415   2.862
23595WAT     H271028   2.244   5.256   2.876
23596WAT      O71029   0.590   4.045   1.611
23596WAT     H171030   0.625   4.070   1.521
23596WAT     H271031   0.660   4.065   1.680
23597WAT      O71032   8.528   9.443   9.567
23597WAT     H171033   8.452   9.498   9.533
23597WAT     H271034   8.608   9.501   9.579
23598WAT      O71035   9.347   2.887   5.415
23598WAT     H171036   9.270   2.828   5.391
23598WAT     H271037   9.328   2.932   5.502
23599WAT      O71038   5.961   0.978   0.671
23599WAT     H171039   5.944   1.068   0.633
23599WAT     H271040   6.012   0.923   0.605
23600WAT      O71041   1.812   2.857   2.480
23600WAT     H171042   1.806   2.896   2.388
23600WAT     H271043   1.748   2.780   2.488
23601WAT      O71044   0.989   2.854   6.259
23601WAT     H171045   0.976   2.785   6.330
23601WAT     H271046   0.908   2.913   6.255
23602WAT      O71047   8.768   0.706   3.634
23602WAT     H171048   8.764   0.742   3.541
23602WAT     H271049   8.773   0.606   3.631
23603WAT      O71050   1.755   3.878   0.586
23603WAT     H171051   1.744   3.792   0.535
23603WAT     H271052   1.786   3.950   0.524
23604WAT      O71053   2.685   6.584   0.801
23604WAT     H171054   2.607   6.602   0.742
23604WAT     H271055   2.653   6.566   0.894
23605WAT      O71056   0.207   7.302   2.248
23605WAT     H171057   0.298   7.280   2.212
23605WAT     H271058   0.193   7.251   2.334
23606WAT      O71059   8.135   7.854   7.093
23606WAT     H171060   8.071   7.778   7.104
23606WAT     H271061   8.084   7.939   7.080
23607WAT      O71062   2.342   3.196   5.823
23607WAT     H171063   2.306   3.159   5.738
23607WAT     H271064   2.408   3.131   5.862
23608WAT      O71065   2.925   2.740   3.766
23608WAT     H171066   2.882   2.662   3.720
23608WAT     H271067   2.861   2.816   3.768
23609WAT      O71068   1.119   8.562   0.240
23609WAT     H171069   1.043   8.548   0.304
23609WAT     H271070   1.089   8.618   0.163
23610WAT      O71071   6.406   1.857   0.220
23610WAT     H171072   6.412   1.913   0.303
23610WAT     H271073   6.433   1.763   0.241
23611WAT      O71074   5.448   1.164   9.835
23611WAT     H171075   5.476   1.184   9.928
23611WAT     H271076   5.442   1.249   9.782
23612WAT      O71077   8.679   0.146   8.866
23612WAT     H171078   8.594   0.095   8.874
23612WAT     H271079   8.694   0.200   8.950
23613WAT      O71080   4.892   0.746   5.744
23613WAT     H171081   4.904   0.647   5.749
23613WAT     H271082   4.972   0.788   5.701
23614WAT      O71083   3.434   3.468   3.824
23614WAT     H171084   3.433   3.510   3.733
23614WAT     H271085   3.395   3.376   3.819
23615WAT      O71086   2.503   2.952   8.741
23615WAT     H171087   2.463   2.871   8.784
23615WAT     H271088   2.599   2.959   8.765
23616WAT      O71089   1.303   5.683   1.960
23616WAT     H171090   1.321   5.728   1.873
23616WAT     H271091   1.227   5.728   2.007
23617WAT      O71092   6.941   9.561   4.996
23617WAT     H171093   6.986   9.617   5.065
23617WAT     H271094   6.874   9.502   5.040
23618WAT      O71095   8.652   9.066   6.673
23618WAT     H171096   8.572   9.074   6.733
23618WAT     H271097   8.712   8.994   6.708
23619WAT      O71098   8.155   4.691   9.084
23619WAT     H171099   8.166   4.658   8.990
23619WAT     H271100   8.127   4.787   9.083
23620WAT      O71101   2.850   7.138   2.241
23620WAT     H171102   2.872   7.228   2.203
23620WAT     H271103   2.927   7.106   2.297
23621WAT      O71104   4.433   9.439   7.303
23621WAT     H171105   4.341   9.410   7.327
23621WAT     H271106   4.433   9.536   7.279
23622WAT      O71107   1.461   2.799   8.489
23622WAT     H171108   1.494   2.755   8.406
23622WAT     H271109   1.456   2.898   8.474
23623WAT      O71110   1.282   0.898   6.190
23623WAT     H171111   1.290   0.937   6.282
23623WAT     H271112   1.226   0.959   6.133
23624WAT      O71113   2.450   8.083   1.864
23624WAT     H171114   2.467   8.061   1.959
23624WAT     H271115   2.535   8.116   1.821
23625WAT      O71116   3.116   1.747   2.648
23625WAT     H171117   3.115   1.711   2.741
23625WAT     H271118   3.031   1.798   2.632
23626WAT      O71119   7.954   0.813   7.961
23626WAT     H171120   7.913   0.761   7.886
23626WAT     H271121   8.046   0.841   7.935
23627WAT      O71122   6.891   7.950   3.174
23627WAT     H171123   6.915   7.989   3.085
23627WAT     H271124   6.896   7.850   3.169
23628WAT      O71125   6.914   8.173   3.583
23628WAT     H171126   6.927   8.105   3.656
23628WAT     H271127   6.997   8.180   3.529
23629WAT      O71128   3.928   1.021   7.869
23629WAT     H171129   3.966   0.949   7.810
23629WAT     H271130   3.999   1.089   7.889
23630WAT      O71131   0.984   8.833   6.284
23630WAT     H171132   0.945   8.917   6.246
23630WAT     H271133   0.930   8.754   6.257
23631WAT      O71134   9.296   6.227   5.897
23631WAT     H171135   9.310   6.181   5.984
23631WAT     H271136   9.200   6.254   5.889
23632WAT      O71137   6.559   2.106   4.318
23632WAT     H171138   6.552   2.204   4.301
23632WAT     H271139   6.479   2.075   4.368
23633WAT      O71140   4.014   2.512   0.514
23633WAT     H171141   3.942   2.519   0.445
23633WAT     H271142   4.029   2.601   0.556
23634WAT      O71143   7.791   3.050   1.280
23634WAT     H171144   7.708   3.089   1.321
23634WAT     H271145   7.864   3.118   1.281
23635WAT      O71146   8.759   9.583   7.026
23635WAT     H171147   8.769   9.484   7.010
23635WAT     H271148   8.825   9.632   6.969
23636WAT      O71149   5.200   4.586   6.777
23636WAT     H171150   5.249   4.611   6.693
23636WAT     H271151   5.254   4.520   6.829
23637WAT      O71152   5.047   1.293   7.891
23637WAT     H171153   4.954   1.318   7.863
23637WAT     H271154   5.092   1.243   7.817
23638WAT      O71155   9.796   3.808   5.385
23638WAT     H171156   9.859   3.829   5.459
23638WAT     H271157   9.775   3.710   5.385
23639WAT      O71158   9.025   9.115   4.693
23639WAT     H171159   9.009   9.029   4.644
23639WAT     H271160   8.989   9.108   4.786
23640WAT      O71161   0.271   4.020   0.204
23640WAT     H171162   0.346   4.084   0.220
23640WAT     H271163   0.288   3.935   0.253
23641WAT      O71164   3.504   9.068   5.946
23641WAT     H171165   3.564   9.105   5.875
23641WAT     H271166   3.525   9.111   6.033
23642WAT      O71167   4.239   8.903   1.290
23642WAT     H171168   4.335   8.875   1.293
23642WAT     H271169   4.219   8.961   1.369
23643WAT      O71170   8.342   8.856   2.135
23643WAT     H171171   8.273   8.784   2.129
23643WAT     H271172   8.428   8.823   2.094
23644WAT      O71173   1.129   2.420   8.139
23644WAT     H171174   1.203   2.403   8.205
23644WAT     H271175   1.084   2.334   8.116
23645WAT      O71176   8.633   2.677   7.161
23645WAT     H171177   8.538   2.679   7.129
23645WAT     H271178   8.694   2.666   7.082
23646WAT      O71179   0.624   3.542   8.167
23646WAT     H171180   0.586   3.542   8.259
23646WAT     H271181   0.557   3.505   8.103
23647WAT      O71182   4.566   1.522   2.874
23647WAT     H171183   4.474   1.553   2.852
23647WAT     H271184   4.562   1.435   2.923
23648WAT      O71185   2.773   4.921   5.983
23648WAT     H171186   2.843   4.989   5.957
23648WAT     H271187   2.701   4.966   6.035
23649WAT      O71188   3.022   6.596   8.502
23649WAT     H171189   3.070   6.683   8.497
23649WAT     H271190   2.951   6.592   8.432
23650WAT      O71191   7.048   3.442   6.634
23650WAT     H171192   7.029   3.484   6.545
23650WAT     H271193   6.963   3.407   6.673
23651WAT      O71194   7.495   2.530   3.510
23651WAT     H171195   7.486   2.454   3.575
23651WAT     H271196   7.500   2.616   3.560
23652WAT      O71197   9.471   6.477   4.356
23652WAT     H171198   9.562   6.449   4.323
23652WAT     H271199   9.479   6.564   4.404
23653WAT      O71200   3.214   8.047   8.506
23653WAT     H171201   3.304   8.088   8.494
23653WAT     H271202   3.182   8.062   8.599
23654WAT      O71203   7.438   1.917   4.931
23654WAT     H171204   7.516   1.855   4.933
23654WAT     H271205   7.437   1.967   4.844
23655WAT      O71206   4.547   9.222   7.160
23655WAT     H171207   4.526   9.307   7.208
23655WAT     H271208   4.480   9.207   7.087
23656WAT      O71209   7.382   0.720   7.893
23656WAT     H171210   7.385   0.810   7.936
23656WAT     H271211   7.457   0.664   7.927
23657WAT      O71212   4.613   9.694   5.582
23657WAT     H171213   4.584   9.779   5.537
23657WAT     H271214   4.589   9.698   5.679
23658WAT      O71215   4.167   4.366   5.103
23658WAT     H171216   4.129   4.439   5.047
23658WAT     H271217   4.266   4.374   5.106
23659WAT      O71218   4.194   0.234   8.522
23659WAT     H171219   4.202   0.143   8.562
23659WAT     H271220   4.179   0.302   8.594
23660WAT      O71221   7.617   4.779   1.054
23660WAT     H171222   7.542   4.801   0.991
23660WAT     H271223   7.619   4.680   1.070
23661WAT      O71224   7.963   3.068   7.318
23661WAT     H171225   7.903   3.136   7.361
23661WAT     H271226   7.960   2.984   7.372
23662WAT      O71227   5.930   4.899   2.398
23662WAT     H171228   5.998   4.968   2.424
23662WAT     H271229   5.867   4.939   2.331
23663WAT      O71230   9.377   8.731   8.266
23663WAT     H171231   9.468   8.699   8.238
23663WAT     H271232   9.348   8.680   8.347
23664WAT      O71233   8.968   5.695   2.163
23664WAT     H171234   8.995   5.730   2.073
23664WAT     H271235   8.882   5.646   2.156
23665WAT      O71236   0.219   6.981   1.951
23665WAT     H171237   0.280   7.060   1.945
23665WAT     H271238   0.124   7.012   1.949
23666WAT      O71239   4.158   2.718   2.303
23666WAT     H171240   4.254   2.698   2.281
23666WAT     H271241   4.099   2.648   2.262
23667WAT      O71242   0.531   9.412   0.773
23667WAT     H171243   0.530   9.358   0.857
23667WAT     H271244   0.439   9.417   0.735
23668WAT      O71245   7.890   4.440   9.729
23668WAT     H171246   7.954   4.421   9.804
23668WAT     H271247   7.940   4.474   9.650
23669WAT      O71248   0.376   8.113   4.311
23669WAT     H171249   0.324   8.161   4.241
23669WAT     H271250   0.387   8.017   4.285
23670WAT      O71251   3.556   9.309   4.383
23670WAT     H171252   3.631   9.250   4.414
23670WAT     H271253   3.513   9.267   4.303
23671WAT      O71254   3.555   1.303   6.521
23671WAT     H171255   3.555   1.223   6.582
23671WAT     H271256   3.501   1.376   6.562
23672WAT      O71257   7.678   7.220   2.568
23672WAT     H171258   7.724   7.218   2.657
23672WAT     H271259   7.586   7.180   2.578
23673WAT      O71260   0.411   3.625   5.677
23673WAT     H171261   0.415   3.527   5.654
23673WAT     H271262   0.499   3.654   5.714
23674WAT      O71263   4.443   0.711   1.947
23674WAT     H171264   4.501   0.735   2.025
23674WAT     H271265   4.392   0.792   1.918
23675WAT      O71266   3.918   0.549   6.867
23675WAT     H171267   3.953   0.455   6.862
23675WAT     H271268   3.827   0.549   6.908
23676WAT      O71269   9.407   8.754   5.948
23676WAT     H171270   9.404   8.844   5.904
23676WAT     H271271   9.319   8.708   5.937
23677WAT      O71272   1.097   5.435   9.630
23677WAT     H171273   1.168   5.364   9.632
23677WAT     H271274   1.072   5.454   9.536
23678WAT      O71275   8.376   7.721   2.330
23678WAT     H171276   8.304   7.777   2.372
23678WAT     H271277   8.421   7.774   2.257
23679WAT      O71278   8.776   2.723   7.674
23679WAT     H171279   8.787   2.724   7.575
23679WAT     H271280   8.682   2.697   7.697
23680WAT      O71281   6.861   4.191   0.199
23680WAT     H171282   6.864   4.214   0.296
23680WAT     H271283   6.808   4.260   0.150
23681WAT      O71284   8.678   5.190   3.853
23681WAT     H171285   8.597   5.215   3.799
23681WAT     H271286   8.652   5.123   3.923
23682WAT      O71287   1.707   2.919   4.424
23682WAT     H171288   1.683   2.848   4.490
23682WAT     H271289   1.791   2.893   4.377
23683WAT      O71290   5.253   4.556   4.682
23683WAT     H171291   5.220   4.607   4.603
23683WAT     H271292   5.186   4.562   4.757
23684WAT      O71293   3.039   6.194   5.206
23684WAT     H171294   2.993   6.159   5.124
23684WAT     H271295   3.063   6.117   5.265
23685WAT      O71296   3.608   6.028   3.437
23685WAT     H171297   3.617   6.118   3.481
23685WAT     H271298   3.552   6.036   3.355
23686WAT      O71299   1.852   0.932   3.428
23686WAT     H171300   1.835   0.838   3.460
23686WAT     H271301   1.854   0.994   3.506
23687WAT      O71302   0.128   2.486   5.651
23687WAT     H171303   0.194   2.416   5.678
23687WAT     H271304   0.075   2.454   5.573
23688WAT      O71305   0.169   7.091   2.441
23688WAT     H171306   0.232   7.014   2.430
23688WAT     H271307   0.094   7.082   2.375
23689WAT      O71308   3.168   9.497   5.206
23689WAT     H171309   3.193   9.531   5.115
23689WAT     H271310   3.101   9.423   5.196
23690WAT      O71311   5.595   5.471   9.602
23690WAT     H171312   5.549   5.422   9.676
23690WAT     H271313   5.548   5.558   9.586
23691WAT      O71314   2.038   6.820   3.469
23691WAT     H171315   2.083   6.751   3.525
23691WAT     H271316   1.946   6.838   3.505
23692WAT      O71317   3.243   2.580   6.247
23692WAT     H171318   3.169   2.514   6.240
23692WAT     H271319   3.238   2.644   6.170
23693WAT      O71320   3.037   1.294   7.792
23693WAT     H171321   2.991   1.253   7.871
23693WAT     H271322   3.129   1.256   7.783
23694WAT      O71323   2.448   5.456   8.671
23694WAT     H171324   2.383   5.491   8.604
23694WAT     H271325   2.500   5.380   8.631
23695WAT      O71326   7.974   0.101   8.668
23695WAT     H171327   8.022   0.026   8.713
23695WAT     H271328   7.930   0.067   8.584
23696WAT      O71329   3.325   1.101   0.663
23696WAT     H171330   3.416   1.139   0.678
23696WAT     H271331   3.259   1.150   0.719
23697WAT      O71332   3.596   3.626   9.216
23697WAT     H171333   3.534   3.700   9.242
23697WAT     H271334   3.601   3.559   9.289
23698WAT      O71335   7.998   6.614   0.819
23698WAT     H171336   8.065   6.591   0.749
23698WAT     H271337   7.992   6.539   0.886
23699WAT      O71338   3.367   0.647   6.216
23699WAT     H171339   3.267   0.656   6.207
23699WAT     H271340   3.399   0.575   6.154
23700WAT      O71341   9.877   9.090   5.466
23700WAT     H171342   9.942   9.087   5.390
23700WAT     H271343   9.920   9.135   5.544
23701WAT      O71344   7.776   4.985   4.768
23701WAT     H171345   7.818   4.918   4.829
23701WAT     H271346   7.696   5.025   4.812
23702WAT      O71347   7.727   2.836   2.754
23702WAT     H171348   7.686   2.744   2.746
23702WAT     H271349   7.744   2.873   2.662
23703WAT      O71350   8.673   3.739   3.149
23703WAT     H171351   8.640   3.759   3.056
23703WAT     H271352   8.605   3.767   3.216
23704WAT      O71353   5.261   4.936   3.661
23704WAT     H171354   5.242   4.979   3.749
23704WAT     H271355   5.328   4.863   3.673
23705WAT      O71356   3.741   0.932   6.869
23705WAT     H171357   3.841   0.935   6.855
23705WAT     H271358   3.719   0.959   6.962
23706WAT      O71359   8.554   2.838   9.371
23706WAT     H171360   8.643   2.799   9.352
23706WAT     H271361   8.506   2.782   9.438
23707WAT      O71362   0.132   8.314   9.630
23707WAT     H171363   0.172   8.314   9.722
23707WAT     H271364   0.201   8.339   9.563
23708WAT      O71365   5.461   9.216   1.489
23708WAT     H171366   5.545   9.162   1.497
23708WAT     H271367   5.467   9.295   1.550
23709WAT      O71368   1.294   1.399   9.700
23709WAT     H171369   1.216   1.427   9.755
23709WAT     H271370   1.290   1.444   9.611
23710WAT      O71371   0.386   6.795   0.105
23710WAT     H171372   0.446   6.739   0.162
23710WAT     H271373   0.291   6.770   0.121
23711WAT      O71374   8.587   5.548   1.014
23711WAT     H171375   8.588   5.543   0.914
23711WAT     H271376   8.506   5.500   1.049
23712WAT      O71377   1.672   6.417   2.484
23712WAT     H171378   1.744   6.486   2.490
23712WAT     H271379   1.707   6.337   2.435
23713WAT      O71380   1.030   6.468   3.036
23713WAT     H171381   1.013   6.380   3.080
23713WAT     H271382   1.034   6.455   2.937
23714WAT      O71383   7.047   4.779   7.764
23714WAT     H171384   7.025   4.793   7.668
23714WAT     H271385   7.101   4.856   7.798
23715WAT      O71386   8.458   8.790   5.512
23715WAT     H171387   8.449   8.717   5.445
23715WAT     H271388   8.418   8.874   5.475
23716WAT      O71389   9.366   0.851   2.914
23716WAT     H171390   9.275   0.847   2.873
23716WAT     H271391   9.431   0.884   2.845
23717WAT      O71392   1.712   7.048   4.158
23717WAT     H171393   1.649   7.120   4.132
23717WAT     H271394   1.770   7.025   4.080
23718WAT      O71395   9.806   8.243   7.167
23718WAT     H171396   9.770   8.177   7.100
23718WAT     H271397   9.851   8.317   7.118
23719WAT      O71398   5.107   9.740   1.367
23719WAT     H171399   5.059   9.723   1.453
23719WAT     H271400   5.090   9.665   1.303
23720WAT      O71401   6.842   5.095   0.565
23720WAT     H171402   6.916   5.162   0.571
23720WAT     H271403   6.796   5.089   0.654
23721WAT      O71404   9.772   2.835   6.543
23721WAT     H171405   9.722   2.771   6.601
23721WAT     H271406   9.821   2.901   6.600
23722WAT      O71407   6.113   0.328   7.737
23722WAT     H171408   6.181   0.260   7.712
23722WAT     H271409   6.069   0.301   7.823
23723WAT      O71410   3.399   1.359   7.128
23723WAT     H171411   3.444   1.340   7.215
23723WAT     H271412   3.419   1.285   7.063
23724WAT      O71413   3.933   5.628   2.767
23724WAT     H171414   3.932   5.711   2.822
23724WAT     H271415   4.006   5.567   2.799
23725WAT      O71416   2.076   5.815   1.232
23725WAT     H171417   2.065   5.909   1.264
23725WAT     H271418   2.056   5.810   1.134
23726WAT      O71419   3.982   9.081   5.823
23726WAT     H171420   3.885   9.095   5.799
23726WAT     H271421   4.005   9.140   5.901
23727WAT      O71422   2.817   5.802   0.830
23727WAT     H171423   2.819   5.703   0.818
23727WAT     H271424   2.754   5.843   0.764
23728WAT      O71425   2.425   2.604   5.429
23728WAT     H171426   2.507   2.648   5.392
23728WAT     H271427   2.379   2.553   5.356
23729WAT      O71428   2.363   1.552   0.789
23729WAT     H171429   2.286   1.489   0.776
23729WAT     H271430   2.336   1.644   0.761
23730WAT      O71431   9.094   0.063   4.103
23730WAT     H171432   9.170   0.111   4.058
23730WAT     H271433   9.111   0.061   4.201
23731WAT      O71434   5.132   0.765   4.143
23731WAT     H171435   5.181   0.693   4.194
23731WAT     H271436   5.036   0.766   4.171
23732WAT      O71437   8.073   2.742   1.062
23732WAT     H171438   8.076   2.684   1.143
23732WAT     H271439   8.165   2.753   1.025
23733WAT      O71440   9.825   9.581   2.866
23733WAT     H171441   9.920   9.556   2.853
23733WAT     H271442   9.809   9.602   2.963
23734WAT      O71443   7.300   3.112   5.887
23734WAT     H171444   7.380   3.091   5.943
23734WAT     H271445   7.280   3.209   5.892
23735WAT      O71446   8.379   5.054   0.277
23735WAT     H171447   8.435   5.134   0.298
23735WAT     H271448   8.294   5.083   0.233
23736WAT      O71449   5.386   4.608   0.722
23736WAT     H171450   5.463   4.553   0.754
23736WAT     H271451   5.304   4.552   0.719
23737WAT      O71452   1.224   8.206   4.279
23737WAT     H171453   1.196   8.295   4.241
23737WAT     H271454   1.323   8.199   4.277
23738WAT      O71455   1.662   8.327   1.199
23738WAT     H171456   1.747   8.373   1.223
23738WAT     H271457   1.659   8.238   1.244
23739WAT      O71458   4.470   7.441   0.280
23739WAT     H171459   4.536   7.435   0.355
23739WAT     H271460   4.500   7.382   0.205
23740WAT      O71461   3.634   8.043   2.556
23740WAT     H171462   3.672   7.963   2.508
23740WAT     H271463   3.658   8.126   2.505
23741WAT      O71464   1.124   0.023   2.342
23741WAT     H171465   1.062  -0.052   2.323
23741WAT     H271466   1.180   0.042   2.261
23742WAT      O71467   0.747   7.958   7.693
23742WAT     H171468   0.745   7.893   7.768
23742WAT     H271469   0.690   8.037   7.716
23743WAT      O71470   4.426   3.014   9.336
23743WAT     H171471   4.505   2.958   9.312
23743WAT     H271472   4.346   2.954   9.347
23744WAT      O71473   0.688   6.190   6.051
23744WAT     H171474   0.684   6.103   6.002
23744WAT     H271475   0.691   6.265   5.985
23745WAT      O71476   5.677   4.782   4.079
23745WAT     H171477   5.691   4.791   4.178
23745WAT     H271478   5.676   4.873   4.038
23746WAT      O71479   2.464   7.582   4.643
23746WAT     H171480   2.467   7.644   4.721
23746WAT     H271481   2.501   7.628   4.563
23747WAT      O71482   3.523   0.858   9.356
23747WAT     H171483   3.526   0.948   9.399
23747WAT     H271484   3.612   0.839   9.313
23748WAT      O71485   3.918   2.383   8.217
23748WAT     H171486   3.880   2.402   8.126
23748WAT     H271487   3.996   2.444   8.234
23749WAT      O71488   8.591   8.653   5.137
23749WAT     H171489   8.658   8.583   5.116
23749WAT     H271490   8.505   8.610   5.165
23750WAT      O71491   1.926   7.304   4.007
23750WAT     H171492   1.878   7.224   3.969
23750WAT     H271493   2.016   7.276   4.040
23751WAT      O71494   7.450   1.902   9.474
23751WAT     H171495   7.406   1.938   9.556
23751WAT     H271496   7.466   1.977   9.409
23752WAT      O71497   7.331   5.795   4.667
23752WAT     H171498   7.274   5.771   4.745
23752WAT     H271499   7.355   5.892   4.672
23753WAT      O71500   4.243   9.330   0.328
23753WAT     H171501   4.291   9.408   0.368
23753WAT     H271502   4.309   9.267   0.287
23754WAT      O71503   5.964   6.398   1.126
23754WAT     H171504   5.947   6.331   1.198
23754WAT     H271505   5.876   6.436   1.095
23755WAT      O71506   0.537   5.952   3.291
23755WAT     H171507   0.502   5.871   3.339
23755WAT     H271508   0.460   6.001   3.249
23756WAT      O71509   9.721   0.714   8.697
23756WAT     H171510   9.693   0.648   8.626
23756WAT     H271511   9.809   0.685   8.735
23757WAT      O71512   3.943   0.108   0.013
23757WAT     H171513   3.883   0.059  -0.049
23757WAT     H271514   4.015   0.154  -0.039
23758WAT      O71515   7.070   7.243   0.176
23758WAT     H171516   7.029   7.277   0.091
23758WAT     H271517   7.109   7.319   0.227
23759WAT      O71518   4.333   9.322   1.811
23759WAT     H171519   4.410   9.260   1.827
23759WAT     H271520   4.345   9.406   1.865
23760WAT      O71521   2.587   4.342   3.965
23760WAT     H171522   2.592   4.380   3.873
23760WAT     H271523   2.573   4.243   3.960
23761WAT      O71524   5.747   6.159   1.021
23761WAT     H171525   5.660   6.116   0.996
23761WAT     H271526   5.822   6.094   1.005
23762WAT      O71527   3.021   1.621   8.289
23762WAT     H171528   3.003   1.704   8.340
23762WAT     H271529   2.935   1.571   8.274
23763WAT      O71530   0.068   7.356   4.185
23763WAT     H171531   0.153   7.360   4.237
23763WAT     H271532   0.009   7.432   4.212
23764WAT      O71533   2.356   5.835   4.340
23764WAT     H171534   2.409   5.892   4.277
23764WAT     H271535   2.384   5.740   4.331
23765WAT      O71536   7.095   6.972   6.247
23765WAT     H171537   7.037   7.043   6.286
23765WAT     H271538   7.165   6.945   6.313
23766WAT      O71539   2.909   7.795   2.564
23766WAT     H171540   2.915   7.894   2.560
23766WAT     H271541   2.965   7.755   2.492
23767WAT      O71542   0.103   6.907   6.871
23767WAT     H171543   0.089   7.003   6.896
23767WAT     H271544   0.101   6.898   6.771
23768WAT      O71545   9.402   7.357   2.859
23768WAT     H171546   9.324   7.396   2.810
23768WAT     H271547   9.453   7.296   2.798
23769WAT      O71548   3.527   8.270   5.768
23769WAT     H171549   3.520   8.260   5.868
23769WAT     H271550   3.577   8.354   5.747
23770WAT      O71551   8.693   9.579   5.926
23770WAT     H171552   8.732   9.496   5.886
23770WAT     H271553   8.620   9.614   5.868
23771WAT      O71554   7.428   0.430   0.940
23771WAT     H171555   7.427   0.343   0.988
23771WAT     H271556   7.376   0.423   0.855
23772WAT      O71557   3.779   9.070   4.730
23772WAT     H171558   3.680   9.053   4.734
23772WAT     H271559   3.826   9.006   4.790
23773WAT      O71560   4.432   5.807   9.456
23773WAT     H171561   4.386   5.794   9.368
23773WAT     H271562   4.375   5.769   9.529
23774WAT      O71563   0.942   7.034   1.160
23774WAT     H171564   0.928   7.030   1.061
23774WAT     H271565   0.911   7.123   1.194
23775WAT      O71566   4.981   9.775   8.565
23775WAT     H171567   5.030   9.709   8.508
23775WAT     H271568   4.959   9.856   8.510
23776WAT      O71569   6.619   7.573   9.650
23776WAT     H171570   6.620   7.603   9.746
23776WAT     H271571   6.529   7.534   9.629
23777WAT      O71572   3.685   0.715   5.145
23777WAT     H171573   3.660   0.618   5.148
23777WAT     H271574   3.602   0.771   5.151
23778WAT      O71575   0.478   7.880   1.461
23778WAT     H171576   0.537   7.803   1.438
23778WAT     H271577   0.471   7.888   1.561
23779WAT      O71578   5.991   6.188   1.308
23779WAT     H171579   6.086   6.183   1.276
23779WAT     H271580   5.946   6.101   1.290
23780WAT      O71581   2.768   0.892   5.528
23780WAT     H171582   2.803   0.896   5.622
23780WAT     H271583   2.742   0.984   5.498
23781WAT      O71584   1.613   5.541   1.877
23781WAT     H171585   1.695   5.513   1.827
23781WAT     H271586   1.548   5.583   1.814
23782WAT      O71587   1.360   3.011   7.955
23782WAT     H171588   1.451   3.022   7.916
23782WAT     H271589   1.351   3.071   8.035
23783WAT      O71590   7.933   4.520   6.101
23783WAT     H171591   7.922   4.587   6.028
23783WAT     H271592   8.025   4.481   6.097
23784WAT      O71593   1.126   3.966   0.390
23784WAT     H171594   1.062   4.022   0.443
23784WAT     H271595   1.218   3.978   0.426
23785WAT      O71596   1.871   1.339   6.107
23785WAT     H171597   1.777   1.304   6.112
23785WAT     H271598   1.934   1.273   6.149
23786WAT      O71599   8.506   1.154   3.160
23786WAT     H171600   8.605   1.169   3.165
23786WAT     H271601   8.488   1.056   3.146
23787WAT      O71602   7.769   2.283   1.568
23787WAT     H171603   7.774   2.307   1.471
23787WAT     H271604   7.682   2.314   1.605
23788WAT      O71605   8.214   3.675   7.272
23788WAT     H171606   8.228   3.629   7.185
23788WAT     H271607   8.166   3.762   7.257
23789WAT      O71608   5.420   4.814   8.422
23789WAT     H171609   5.383   4.805   8.330
23789WAT     H271610   5.360   4.873   8.476
23790WAT      O71611   1.557   4.368   5.772
23790WAT     H171612   1.491   4.347   5.844
23790WAT     H271613   1.536   4.314   5.690
23791WAT      O71614   5.311   0.516   3.838
23791WAT     H171615   5.223   0.488   3.801
23791WAT     H271616   5.313   0.616   3.848
23792WAT      O71617   0.832   0.951   7.953
23792WAT     H171618   0.914   1.000   7.982
23792WAT     H271619   0.858   0.870   7.901
23793WAT      O71620   8.202   1.272   2.425
23793WAT     H171621   8.294   1.310   2.415
23793WAT     H271622   8.207   1.183   2.470
23794WAT      O71623   3.359   3.448   6.745
23794WAT     H171624   3.430   3.477   6.808
23794WAT     H271625   3.351   3.515   6.671
23795WAT      O71626   8.245   5.638   8.062
23795WAT     H171627   8.149   5.667   8.060
23795WAT     H271628   8.301   5.710   8.103
23796WAT      O71629   2.722   0.609   2.948
23796WAT     H171630   2.712   0.622   2.849
23796WAT     H271631   2.810   0.566   2.968
23797WAT      O71632   6.764   5.823   9.459
23797WAT     H171633   6.798   5.858   9.372
23797WAT     H271634   6.665   5.837   9.464
23798WAT      O71635   1.051   2.910   6.753
23798WAT     H171636   1.028   2.982   6.819
23798WAT     H271637   1.105   2.949   6.679
23799WAT      O71638   4.471   2.894   2.445
23799WAT     H171639   4.537   2.902   2.519
23799WAT     H271640   4.502   2.827   2.378
23800WAT      O71641   8.598   0.877   9.125
23800WAT     H171642   8.511   0.899   9.080
23800WAT     H271643   8.593   0.785   9.165
23801WAT      O71644   8.804   9.635   9.277
23801WAT     H171645   8.863   9.555   9.265
23801WAT     H271646   8.849   9.716   9.239
23802WAT      O71647   5.333   4.632   9.225
23802WAT     H171648   5.406   4.683   9.178
23802WAT     H271649   5.373   4.579   9.300
23803WAT      O71650   0.666   3.269   6.146
23803WAT     H171651   0.642   3.366   6.148
23803WAT     H271652   0.748   3.254   6.202
23804WAT      O71653   3.941   0.225   9.505
23804WAT     H171654   4.010   0.222   9.433
23804WAT     H271655   3.938   0.316   9.546
23805WAT      O71656   3.580   9.818   1.140
23805WAT     H171657   3.670   9.860   1.142
23805WAT     H271658   3.567   9.771   1.053
23806WAT      O71659   8.564   6.515   1.354
23806WAT     H171660   8.655   6.511   1.395
23806WAT     H271661   8.522   6.604   1.373
23807WAT      O71662   6.862   2.693   6.051
23807WAT     H171663   6.929   2.744   6.105
23807WAT     H271664   6.898   2.676   5.959
23808WAT      O71665   6.811   7.226   1.846
23808WAT     H171666   6.795   7.225   1.945
23808WAT     H271667   6.739   7.174   1.801
23809WAT      O71668   4.077   0.349   3.390
23809WAT     H171669   4.159   0.389   3.348
23809WAT     H271670   3.997   0.403   3.364
23810WAT      O71671   6.158   8.879   6.984
23810WAT     H171672   6.090   8.901   7.054
23810WAT     H271673   6.119   8.894   6.893
23811WAT      O71674   3.354   4.804   3.428
23811WAT     H171675   3.282   4.754   3.477
23811WAT     H271676   3.438   4.804   3.482
23812WAT      O71677   3.150   8.793   3.739
23812WAT     H171678   3.086   8.867   3.760
23812WAT     H271679   3.216   8.825   3.671
23813WAT      O71680   6.787   4.919   5.750
23813WAT     H171681   6.839   4.926   5.835
23813WAT     H271682   6.720   4.993   5.746
23814WAT      O71683   6.640   5.281   6.744
23814WAT     H171684   6.654   5.352   6.813
23814WAT     H271685   6.560   5.227   6.768
23815WAT      O71686   3.285   6.937   2.791
23815WAT     H171687   3.361   6.958   2.852
23815WAT     H271688   3.202   6.921   2.845
23816WAT      O71689   8.475   3.489   4.870
23816WAT     H171690   8.439   3.413   4.815
23816WAT     H271691   8.476   3.463   4.966
23817WAT      O71692   3.461   5.493   4.332
23817WAT     H171693   3.544   5.545   4.310
23817WAT     H271694   3.467   5.459   4.426
23818WAT      O71695   3.321   1.841   4.131
23818WAT     H171696   3.369   1.754   4.121
23818WAT     H271697   3.387   1.913   4.153
23819WAT      O71698   7.870   6.396   5.911
23819WAT     H171699   7.778   6.383   5.873
23819WAT     H271700   7.918   6.309   5.915
23820WAT      O71701   3.760   0.508   6.019
23820WAT     H171702   3.809   0.468   5.941
23820WAT     H271703   3.749   0.439   6.091
23821WAT      O71704   9.353   6.097   2.333
23821WAT     H171705   9.371   6.007   2.373
23821WAT     H271706   9.283   6.088   2.262
23822WAT      O71707   9.598   9.150   4.528
23822WAT     H171708   9.574   9.065   4.480
23822WAT     H271709   9.551   9.227   4.485
23823WAT      O71710   7.473   7.838   0.034
23823WAT     H171711   7.552   7.808   0.087
23823WAT     H271712   7.465   7.781  -0.048
23824WAT      O71713   0.227   7.953   0.156
23824WAT     H171714   0.140   8.000   0.175
23824WAT     H271715   0.272   7.930   0.242
23825WAT      O71716   0.523   1.258   2.325
23825WAT     H171717   0.510   1.273   2.423
23825WAT     H271718   0.502   1.342   2.276
23826WAT      O71719   6.735   7.124   2.908
23826WAT     H171720   6.741   7.200   2.972
23826WAT     H271721   6.825   7.106   2.869
23827WAT      O71722   2.586   9.811   0.623
23827WAT     H171723   2.616   9.853   0.709
23827WAT     H271724   2.633   9.853   0.546
23828WAT      O71725   4.483   8.657   5.310
23828WAT     H171726   4.396   8.611   5.292
23828WAT     H271727   4.532   8.670   5.223
23829WAT      O71728   6.148   8.675   0.657
23829WAT     H171729   6.206   8.602   0.621
23829WAT     H271730   6.192   8.717   0.736
23830WAT      O71731   7.532   5.767   7.240
23830WAT     H171732   7.605   5.699   7.227
23830WAT     H271733   7.565   5.857   7.210
23831WAT      O71734   4.595   7.632   9.283
23831WAT     H171735   4.547   7.598   9.364
23831WAT     H271736   4.634   7.722   9.302
23832WAT      O71737   3.517   4.939   3.152
23832WAT     H171738   3.473   4.994   3.223
23832WAT     H271739   3.562   5.000   3.087
23833WAT      O71740   5.971   1.520   2.082
23833WAT     H171741   5.906   1.447   2.102
23833WAT     H271742   5.940   1.605   2.125
23834WAT      O71743   9.145   5.319   4.436
23834WAT     H171744   9.046   5.331   4.435
23834WAT     H271745   9.167   5.229   4.472
23835WAT      O71746   7.719   8.900   2.654
23835WAT     H171747   7.702   8.996   2.633
23835WAT     H271748   7.804   8.871   2.610
23836WAT      O71749   0.588   6.063   4.629
23836WAT     H171750   0.553   6.144   4.675
23836WAT     H271751   0.551   5.981   4.672
23837WAT      O71752   5.150   7.361   2.622
23837WAT     H171753   5.248   7.380   2.623
23837WAT     H271754   5.109   7.387   2.709
23838WAT      O71755   5.257   6.592   9.318
23838WAT     H171756   5.205   6.532   9.256
23838WAT     H271757   5.218   6.586   9.409
23839WAT      O71758   7.888   1.081   8.901
23839WAT     H171759   7.939   1.076   8.815
23839WAT     H271760   7.834   1.165   8.902
23840WAT      O71761   4.803   6.951   5.919
23840WAT     H171762   4.796   6.976   6.015
23840WAT     H271763   4.899   6.950   5.892
23841WAT      O71764   8.916   1.319   1.059
23841WAT     H171765   9.005   1.274   1.063
23841WAT     H271766   8.910   1.388   1.132
23842WAT      O71767   5.664   2.132   8.402
23842WAT     H171768   5.727   2.203   8.432
23842WAT     H271769   5.698   2.043   8.432
23843WAT      O71770   8.035   1.903   7.678
23843WAT     H171771   8.133   1.885   7.687
23843WAT     H271772   7.989   1.879   7.763
23844WAT      O71773   3.555   6.356   8.750
23844WAT     H171774   3.609   6.428   8.794
23844WAT     H271775   3.476   6.396   8.704
23845WAT      O71776   7.802   5.249   8.738
23845WAT     H171777   7.899   5.237   8.759
23845WAT     H271778   7.752   5.267   8.823
23846WAT      O71779   4.644   8.767   3.833
23846WAT     H171780   4.718   8.701   3.816
23846WAT     H271781   4.592   8.781   3.749
23847WAT      O71782   8.755   6.402   8.166
23847WAT     H171783   8.832   6.465   8.170
23847WAT     H271784   8.683   6.441   8.109
23848WAT      O71785   0.469   3.303   0.662
23848WAT     H171786   0.541   3.252   0.709
23848WAT     H271787   0.470   3.398   0.691
23849WAT      O71788   6.962   0.925   7.838
23849WAT     H171789   6.962   0.984   7.757
23849WAT     H271790   7.028   0.851   7.825
23850WAT      O71791   2.821   2.270   7.525
23850WAT     H171792   2.769   2.189   7.500
23850WAT     H271793   2.919   2.251   7.516
23851WAT      O71794   3.121   5.172   2.472
23851WAT     H171795   3.036   5.179   2.525
23851WAT     H271796   3.184   5.110   2.519
23852WAT      O71797   3.896   6.318   3.906
23852WAT     H171798   3.900   6.334   3.807
23852WAT     H271799   3.954   6.240   3.929
23853WAT      O71800   2.098   3.221   6.423
23853WAT     H171801   2.086   3.298   6.485
23853WAT     H271802   2.009   3.189   6.391
23854WAT      O71803   7.068   1.865   0.920
23854WAT     H171804   7.088   1.886   0.824
23854WAT     H271805   7.092   1.770   0.939
23855WAT      O71806   2.600   8.882   0.008
23855WAT     H171807   2.524   8.825   0.038
23855WAT     H271808   2.571   8.978   0.006
23856WAT      O71809   5.757   4.251   2.233
23856WAT     H171810   5.809   4.166   2.223
23856WAT     H271811   5.814   4.328   2.205
23857WAT      O71812   6.506   7.888   3.153
23857WAT     H171813   6.496   7.790   3.135
23857WAT     H271814   6.573   7.901   3.226
23858WAT      O71815   8.950   3.962   4.810
23858WAT     H171816   8.983   3.980   4.717
23858WAT     H271817   8.947   4.048   4.861
23859WAT      O71818   3.023   4.744   8.277
23859WAT     H171819   3.049   4.647   8.282
23859WAT     H271820   3.056   4.783   8.191
23860WAT      O71821   1.406   8.329   4.587
23860WAT     H171822   1.337   8.337   4.515
23860WAT     H271823   1.493   8.364   4.554
23861WAT      O71824   9.178   1.603   9.833
23861WAT     H171825   9.260   1.546   9.834
23861WAT     H271826   9.154   1.628   9.927
23862WAT      O71827   8.801   9.080   3.816
23862WAT     H171828   8.876   9.072   3.881
23862WAT     H271829   8.838   9.094   3.724
23863WAT      O71830   4.711   7.899   7.229
23863WAT     H171831   4.766   7.850   7.162
23863WAT     H271832   4.626   7.930   7.187
23864WAT      O71833   5.743   3.178   0.935
23864WAT     H171834   5.823   3.149   0.989
23864WAT     H271835   5.663   3.125   0.962
23865WAT      O71836   9.525   3.621   2.848
23865WAT     H171837   9.616   3.647   2.816
23865WAT     H271838   9.492   3.689   2.913
23866WAT      O71839   5.882   0.943   4.503
23866WAT     H171840   5.967   0.911   4.463
23866WAT     H271841   5.855   0.882   4.578
23867WAT      O71842   6.976   7.440   8.866
23867WAT     H171843   6.916   7.365   8.838
23867WAT     H271844   6.926   7.527   8.860
23868WAT      O71845   2.600   3.806   2.918
23868WAT     H171846   2.674   3.863   2.881
23868WAT     H271847   2.526   3.800   2.851
23869WAT      O71848   5.264   7.264   3.391
23869WAT     H171849   5.254   7.283   3.293
23869WAT     H271850   5.231   7.342   3.444
23870WAT      O71851   1.594   7.119   4.937
23870WAT     H171852   1.504   7.158   4.958
23870WAT     H271853   1.659   7.194   4.921
23871WAT      O71854   9.599   0.450   4.617
23871WAT     H171855   9.542   0.519   4.661
23871WAT     H271856   9.543   0.371   4.592
23872WAT      O71857   4.362   0.091   2.458
23872WAT     H171858   4.434   0.022   2.467
23872WAT     H271859   4.274   0.046   2.447
23873WAT      O71860   8.425   8.053   3.997
23873WAT     H171861   8.438   8.059   3.899
23873WAT     H271862   8.508   8.018   4.040
23874WAT      O71863   1.075   3.072   0.950
23874WAT     H171864   1.103   3.127   1.029
23874WAT     H271865   1.051   2.980   0.980
23875WAT      O71866   2.963   5.655   7.746
23875WAT     H171867   2.965   5.736   7.688
23875WAT     H271868   3.055   5.615   7.751
23876WAT      O71869   1.358   3.179   2.478
23876WAT     H171870   1.371   3.093   2.528
23876WAT     H271871   1.272   3.176   2.429
23877WAT      O71872   3.688   8.481   3.761
23877WAT     H171873   3.709   8.510   3.854
23877WAT     H271874   3.753   8.523   3.697
23878WAT      O71875   2.191   4.480   4.441
23878WAT     H171876   2.241   4.454   4.525
23878WAT     H271877   2.234   4.435   4.363
23879WAT      O71878   0.193   3.272   8.769
23879WAT     H171879   0.162   3.181   8.796
23879WAT     H271880   0.205   3.276   8.670
23880WAT      O71881   2.759   3.264   4.257
23880WAT     H171882   2.717   3.304   4.175
23880WAT     H271883   2.688   3.246   4.325
23881WAT      O71884   7.800   6.460   3.093
23881WAT     H171885   7.845   6.542   3.128
23881WAT     H271886   7.796   6.391   3.165
23882WAT      O71887   7.429   6.633   3.979
23882WAT     H171888   7.489   6.557   4.004
23882WAT     H271889   7.465   6.718   4.017
23883WAT      O71890   2.545   7.450   1.255
23883WAT     H171891   2.512   7.531   1.304
23883WAT     H271892   2.640   7.432   1.280
23884WAT      O71893   9.491   9.345   6.912
23884WAT     H171894   9.392   9.362   6.910
23884WAT     H271895   9.540   9.429   6.892
23885WAT      O71896   0.322   9.103   2.913
23885WAT     H171897   0.288   9.096   3.007
23885WAT     H271898   0.384   9.181   2.905
23886WAT      O71899   4.012   2.692   6.343
23886WAT     H171900   3.954   2.622   6.301
23886WAT     H271901   4.001   2.778   6.293
23887WAT      O71902   1.571   9.014   9.429
23887WAT     H171903   1.654   8.992   9.481
23887WAT     H271904   1.532   9.100   9.463
23888WAT      O71905   7.021   2.790   5.838
23888WAT     H171906   7.103   2.768   5.891
23888WAT     H271907   7.006   2.889   5.839
23889WAT      O71908   8.707   1.437   0.862
23889WAT     H171909   8.654   1.498   0.922
23889WAT     H271910   8.762   1.375   0.917
23890WAT      O71911   5.181   9.138   2.577
23890WAT     H171912   5.265   9.185   2.551
23890WAT     H271913   5.111   9.154   2.507
23891WAT      O71914   7.437   0.737   8.212
23891WAT     H171915   7.380   0.804   8.259
23891WAT     H271916   7.490   0.783   8.141
23892WAT      O71917   5.679   0.088   6.581
23892WAT     H171918   5.725   0.034   6.511
23892WAT     H271919   5.676   0.184   6.552
23893WAT      O71920   7.039   9.233   4.334
23893WAT     H171921   6.970   9.276   4.391
23893WAT     H271922   6.998   9.159   4.281
23894WAT      O71923   2.659   0.186   2.453
23894WAT     H171924   2.743   0.240   2.442
23894WAT     H271925   2.668   0.101   2.401
23895WAT      O71926   8.924   2.873   2.918
23895WAT     H171927   8.937   2.930   3.000
23895WAT     H271928   8.957   2.780   2.937
23896WAT      O71929   3.031   1.314   2.398
23896WAT     H171930   3.028   1.406   2.436
23896WAT     H271931   3.058   1.319   2.301
23897WAT      O71932   0.400   2.157   4.761
23897WAT     H171933   0.301   2.170   4.768
23897WAT     H271934   0.436   2.126   4.849
23898WAT      O71935   8.044   5.278   3.342
23898WAT     H171936   8.024   5.356   3.283
23898WAT     H271937   8.136   5.244   3.323
23899WAT      O71938   4.164   7.798   2.311
23899WAT     H171939   4.261   7.805   2.289
23899WAT     H271940   4.117   7.882   2.282
23900WAT      O71941   0.744   0.795   4.488
23900WAT     H171942   0.719   0.718   4.546
23900WAT     H271943   0.777   0.761   4.400
23901WAT      O71944   9.260   6.750   7.351
23901WAT     H171945   9.319   6.830   7.362
23901WAT     H271946   9.231   6.718   7.442
23902WAT      O71947   5.933   4.615   9.418
23902WAT     H171948   5.932   4.642   9.515
23902WAT     H271949   5.854   4.557   9.399
23903WAT      O71950   7.376   5.459   1.914
23903WAT     H171951   7.345   5.554   1.926
23903WAT     H271952   7.458   5.444   1.969
23904WAT      O71953   6.095   4.828   9.581
23904WAT     H171954   6.059   4.908   9.534
23904WAT     H271955   6.174   4.793   9.531
23905WAT      O71956   4.812   8.792   6.030
23905WAT     H171957   4.866   8.726   5.979
23905WAT     H271958   4.715   8.768   6.023
23906WAT      O71959   6.140   4.140   9.140
23906WAT     H171960   6.153   4.235   9.170
23906WAT     H271961   6.229   4.101   9.115
23907WAT      O71962   0.675   2.536   7.611
23907WAT     H171963   0.639   2.607   7.671
23907WAT     H271964   0.605   2.509   7.545
23908WAT      O71965   3.354   1.337   3.151
23908WAT     H171966   3.395   1.344   3.061
23908WAT     H271967   3.318   1.427   3.178
23909WAT      O71968   5.861   5.315   8.591
23909WAT     H171969   5.829   5.385   8.655
23909WAT     H271970   5.898   5.359   8.509
23910WAT      O71971   0.938   2.717   6.606
23910WAT     H171972   0.984   2.791   6.656
23910WAT     H271973   0.850   2.696   6.649
23911WAT      O71974   2.269   0.531   0.795
23911WAT     H171975   2.180   0.493   0.821
23911WAT     H271976   2.255   0.619   0.748
23912WAT      O71977   7.680   5.645   0.443
23912WAT     H171978   7.741   5.601   0.509
23912WAT     H271979   7.718   5.734   0.416
23913WAT      O71980   0.751   4.674   0.159
23913WAT     H171981   0.782   4.592   0.111
23913WAT     H271982   0.658   4.659   0.194
23914WAT      O71983   6.658   0.305   5.312
23914WAT     H171984   6.597   0.343   5.381
23914WAT     H271985   6.703   0.380   5.263
23915WAT      O71986   5.608   3.519   8.326
23915WAT     H171987   5.598   3.435   8.273
23915WAT     H271988   5.526   3.534   8.381
23916WAT      O71989   7.998   4.198   9.558
23916WAT     H171990   7.906   4.165   9.538
23916WAT     H271991   8.065   4.143   9.508
23917WAT      O71992   5.326   9.091   5.696
23917WAT     H171993   5.393   9.137   5.755
23917WAT     H271994   5.272   9.160   5.647
23918WAT      O71995   4.810   1.666   7.273
23918WAT     H171996   4.866   1.733   7.225
23918WAT     H271997   4.863   1.581   7.284
23919WAT      O71998   5.032   1.546   8.663
23919WAT     H171999   5.119   1.580   8.626
23919WAT     H272000   4.996   1.611   8.730
23920WAT      O72001   4.223   9.725   5.771
23920WAT     H172002   4.197   9.821   5.758
23920WAT     H272003   4.208   9.674   5.686
23921WAT      O72004   8.877   3.225   5.892
23921WAT     H172005   8.950   3.201   5.830
23921WAT     H272006   8.814   3.148   5.902
23922WAT      O72007   0.008   3.552   6.083
23922WAT     H172008  -0.005   3.613   6.161
23922WAT     H272009   0.066   3.475   6.109
23923WAT      O72010   3.344   6.667   8.884
23923WAT     H172011   3.398   6.716   8.954
23923WAT     H272012   3.396   6.665   8.798
23924WAT      O72013   6.375   2.406   2.855
23924WAT     H172014   6.343   2.478   2.793
23924WAT     H272015   6.457   2.437   2.903
23925WAT      O72016   5.102   4.726   1.605
23925WAT     H172017   5.104   4.733   1.505
23925WAT     H272018   5.100   4.817   1.645
23926WAT      O72019   4.136   6.233   6.234
23926WAT     H172020   4.052   6.229   6.179
23926WAT     H272021   4.166   6.329   6.243
23927WAT      O72022   9.363   9.043   3.826
23927WAT     H172023   9.453   9.007   3.801
23927WAT     H272024   9.342   9.124   3.771
23928WAT      O72025   8.935   7.318   6.961
23928WAT     H172026   8.901   7.409   6.986
23928WAT     H272027   8.870   7.274   6.900
23929WAT      O72028   0.310   9.824   0.781
23929WAT     H172029   0.392   9.771   0.801
23929WAT     H272030   0.253   9.775   0.716
23930WAT      O72031   7.413   3.825   4.319
23930WAT     H172032   7.395   3.921   4.298
23930WAT     H272033   7.331   3.782   4.357
23931WAT      O72034   3.842   2.018   9.654
23931WAT     H172035   3.815   1.926   9.626
23931WAT     H272036   3.941   2.029   9.646
23932WAT      O72037   9.375   1.996   9.116
23932WAT     H172038   9.360   2.090   9.086
23932WAT     H272039   9.296   1.940   9.090
23933WAT      O72040   9.706   3.971   8.903
23933WAT     H172041   9.613   3.945   8.928
23933WAT     H272042   9.768   3.949   8.977
23934WAT      O72043   6.583   6.959   7.236
23934WAT     H172044   6.484   6.961   7.254
23934WAT     H272045   6.607   7.032   7.172
23935WAT      O72046   6.614   8.440   2.856
23935WAT     H172047   6.649   8.352   2.888
23935WAT     H272048   6.539   8.470   2.915
23936WAT      O72049   5.364   6.459   7.041
23936WAT     H172050   5.286   6.468   7.103
23936WAT     H272051   5.418   6.543   7.044
23937WAT      O72052   6.590   9.800   0.448
23937WAT     H172053   6.566   9.891   0.482
23937WAT     H272054   6.569   9.794   0.351
23938WAT      O72055   6.865   8.746   0.474
23938WAT     H172056   6.825   8.654   0.465
23938WAT     H272057   6.847   8.781   0.566
23939WAT      O72058   6.530   1.011   7.673
23939WAT     H172059   6.465   1.084   7.693
23939WAT     H272060   6.481   0.936   7.628
23940WAT      O72061   8.077   6.816   1.226
23940WAT     H172062   8.116   6.901   1.262
23940WAT     H272063   7.985   6.833   1.192
23941WAT      O72064   0.652   8.355   8.796
23941WAT     H172065   0.685   8.401   8.878
23941WAT     H272066   0.625   8.262   8.819
23942WAT      O72067   5.569   1.639   4.570
23942WAT     H172068   5.608   1.548   4.586
23942WAT     H272069   5.529   1.674   4.654
23943WAT      O72070   1.133   2.067   2.547
23943WAT     H172071   1.076   2.044   2.626
23943WAT     H272072   1.081   2.127   2.486
23944WAT      O72073   6.833   2.801   9.618
23944WAT     H172074   6.826   2.701   9.624
23944WAT     H272075   6.903   2.834   9.681
23945WAT      O72076   6.098   3.511   6.854
23945WAT     H172077   6.091   3.411   6.849
23945WAT     H272078   6.183   3.536   6.900
23946WAT      O72079   0.318   2.297   3.050
23946WAT     H172080   0.379   2.372   3.075
23946WAT     H272081   0.223   2.326   3.062
23947WAT      O72082   5.469   2.760   1.327
23947WAT     H172083   5.479   2.718   1.237
23947WAT     H272084   5.510   2.852   1.326
23948WAT      O72085   4.195   3.461   3.257
23948WAT     H172086   4.099   3.433   3.258
23948WAT     H272087   4.246   3.406   3.191
23949WAT      O72088   2.738   4.799   1.034
23949WAT     H172089   2.744   4.853   0.950
23949WAT     H272090   2.802   4.836   1.102
23950WAT      O72091   3.511   6.120   0.250
23950WAT     H172092   3.585   6.065   0.213
23950WAT     H272093   3.516   6.119   0.350
23951WAT      O72094   1.092   5.514   3.792
23951WAT     H172095   1.039   5.509   3.877
23951WAT     H272096   1.107   5.422   3.757
23952WAT      O72097   2.743   9.474   1.164
23952WAT     H172098   2.736   9.573   1.170
23952WAT     H272099   2.737   9.446   1.068
23953WAT      O72100   3.807   9.793   1.351
23953WAT     H172101   3.890   9.743   1.376
23953WAT     H272102   3.824   9.844   1.266
23954WAT      O72103   7.114   9.198   8.527
23954WAT     H172104   7.143   9.194   8.623
23954WAT     H272105   7.114   9.294   8.497
23955WAT      O72106   4.723   6.750   2.532
23955WAT     H172107   4.666   6.809   2.589
23955WAT     H272108   4.674   6.665   2.513
23956WAT      O72109   6.353   8.970   6.158
23956WAT     H172110   6.304   8.999   6.076
23956WAT     H272111   6.288   8.954   6.232
23957WAT      O72112   2.400   7.251   6.353
23957WAT     H172113   2.397   7.236   6.255
23957WAT     H272114   2.392   7.163   6.401
23958WAT      O72115   0.652   6.173   1.791
23958WAT     H172116   0.565   6.129   1.772
23958WAT     H272117   0.644   6.272   1.774
23959WAT      O72118   9.174   2.120   3.259
23959WAT     H172119   9.186   2.177   3.177
23959WAT     H272120   9.193   2.025   3.236
23960WAT      O72121   4.561   3.781   6.296
23960WAT     H172122   4.525   3.803   6.206
23960WAT     H272123   4.655   3.749   6.288
23961WAT      O72124   4.494   7.749   4.768
23961WAT     H172125   4.411   7.761   4.823
23961WAT     H272126   4.468   7.726   4.674
23962WAT      O72127   9.430   2.532   3.117
23962WAT     H172128   9.488   2.514   3.037
23962WAT     H272129   9.391   2.624   3.111
23963WAT      O72130   8.728   3.791   8.315
23963WAT     H172131   8.721   3.783   8.414
23963WAT     H272132   8.659   3.856   8.281
23964WAT      O72133   7.656   1.441   3.188
23964WAT     H172134   7.612   1.531   3.187
23964WAT     H272135   7.591   1.372   3.219
23965WAT      O72136   8.610   5.496   9.862
23965WAT     H172137   8.510   5.506   9.863
23965WAT     H272138   8.648   5.546   9.785
23966WAT      O72139   0.296   1.765   9.408
23966WAT     H172140   0.278   1.860   9.380
23966WAT     H272141   0.393   1.755   9.431
23967WAT      O72142   1.901   2.226   3.050
23967WAT     H172143   1.887   2.181   3.138
23967WAT     H272144   1.990   2.200   3.012
23968WAT      O72145   0.337   3.819   9.594
23968WAT     H172146   0.312   3.909   9.560
23968WAT     H272147   0.320   3.750   9.523
23969WAT      O72148   3.729   0.531   3.034
23969WAT     H172149   3.638   0.490   3.036
23969WAT     H272150   3.766   0.525   2.942
23970WAT      O72151   8.619   0.597   1.934
23970WAT     H172152   8.568   0.675   1.898
23970WAT     H272153   8.711   0.626   1.961
23971WAT      O72154   8.560   2.743   8.876
23971WAT     H172155   8.548   2.687   8.794
23971WAT     H272156   8.553   2.686   8.957
23972WAT      O72157   2.697   5.362   1.039
23972WAT     H172158   2.657   5.425   1.106
23972WAT     H272159   2.743   5.288   1.088
23973WAT      O72160   3.967   9.732   7.687
23973WAT     H172161   3.923   9.650   7.652
23973WAT     H272162   3.991   9.792   7.611
23974WAT      O72163   1.658   1.923   7.708
23974WAT     H172164   1.722   1.846   7.711
23974WAT     H272165   1.684   1.991   7.777
23975WAT      O72166   4.474   5.335   9.520
23975WAT     H172167   4.438   5.242   9.512
23975WAT     H272168   4.422   5.385   9.588
23976WAT      O72169   4.853   1.696   3.960
23976WAT     H172170   4.879   1.792   3.959
23976WAT     H272171   4.756   1.686   3.938
23977WAT      O72172   2.827   5.991   6.065
23977WAT     H172173   2.871   6.000   6.154
23977WAT     H272174   2.849   6.069   6.007
23978WAT      O72175   2.224   6.878   4.766
23978WAT     H172176   2.266   6.793   4.733
23978WAT     H272177   2.251   6.954   4.706
23979WAT      O72178   9.213   8.087   6.624
23979WAT     H172179   9.216   8.185   6.609
23979WAT     H272180   9.119   8.057   6.638
23980WAT      O72181   0.899   2.928   2.710
23980WAT     H172182   0.816   2.956   2.661
23980WAT     H272183   0.878   2.850   2.770
23981WAT      O72184   8.642   4.510   9.020
23981WAT     H172185   8.604   4.448   9.089
23981WAT     H272186   8.710   4.569   9.063
23982WAT      O72187   3.417   0.676   1.969
23982WAT     H172188   3.509   0.691   1.932
23982WAT     H272189   3.424   0.648   2.065
23983WAT      O72190   1.279   3.382   6.610
23983WAT     H172191   1.186   3.370   6.574
23983WAT     H272192   1.310   3.475   6.591
23984WAT      O72193   2.254   2.082   2.569
23984WAT     H172194   2.259   1.999   2.626
23984WAT     H272195   2.190   2.147   2.610
23985WAT      O72196   9.411   8.654   1.529
23985WAT     H172197   9.361   8.699   1.603
23985WAT     H272198   9.507   8.680   1.533
23986WAT      O72199   9.655   3.287   6.511
23986WAT     H172200   9.662   3.382   6.481
23986WAT     H272201   9.693   3.278   6.602
23987WAT      O72202   9.076   7.874   4.693
23987WAT     H172203   9.096   7.808   4.621
23987WAT     H272204   9.098   7.834   4.782
23988WAT      O72205   8.800   7.962   6.436
23988WAT     H172206   8.789   7.915   6.349
23988WAT     H272207   8.712   7.970   6.482
23989WAT      O72208   6.224   7.355   9.053
23989WAT     H172209   6.290   7.335   9.126
23989WAT     H272210   6.131   7.340   9.086
23990WAT      O72211   3.851   3.748   4.401
23990WAT     H172212   3.931   3.777   4.454
23990WAT     H272213   3.776   3.726   4.463
23991WAT      O72214   7.134   7.807   5.066
23991WAT     H172215   7.188   7.724   5.072
23991WAT     H272216   7.160   7.870   5.139
23992WAT      O72217   3.120   4.240   1.095
23992WAT     H172218   3.039   4.286   1.058
23992WAT     H272219   3.122   4.145   1.063
23993WAT      O72220   0.092   5.497   7.121
23993WAT     H172221   0.073   5.587   7.082
23993WAT     H272222   0.189   5.475   7.109
23994WAT      O72223   3.723   1.731   2.924
23994WAT     H172224   3.814   1.703   2.956
23994WAT     H272225   3.704   1.685   2.837
23995WAT      O72226   1.369   0.493   7.522
23995WAT     H172227   1.357   0.531   7.614
23995WAT     H272228   1.375   0.393   7.528
23996WAT      O72229   9.317   1.724   3.382
23996WAT     H172230   9.413   1.749   3.366
23996WAT     H272231   9.312   1.657   3.456
23997WAT      O72232   4.234   9.566   5.161
23997WAT     H172233   4.272   9.626   5.091
23997WAT     H272234   4.210   9.478   5.120
23998WAT      O72235   1.183   7.078   4.387
23998WAT     H172236   1.096   7.121   4.361
23998WAT     H272237   1.223   7.033   4.307
23999WAT      O72238   9.751   6.718   4.166
23999WAT     H172239   9.830   6.699   4.225
23999WAT     H272240   9.718   6.633   4.126
24000WAT      O72241   4.576   1.589   6.623
24000WAT     H172242   4.630   1.558   6.545
24000WAT     H272243   4.484   1.613   6.591
24001WAT      O72244   9.685   6.866   3.755
24001WAT     H172245   9.599   6.899   3.792
24001WAT     H272246   9.667   6.811   3.673
24002WAT      O72247   0.612   6.323   7.163
24002WAT     H172248   0.639   6.379   7.085
24002WAT     H272249   0.683   6.328   7.233
24003WAT      O72250   7.433   9.503   7.308
24003WAT     H172251   7.429   9.450   7.223
24003WAT     H272252   7.442   9.600   7.286
24004WAT      O72253   3.946   9.774   4.323
24004WAT     H172254   3.956   9.678   4.297
24004WAT     H272255   4.034   9.821   4.314
24005WAT      O72256   6.334   4.760   2.643
24005WAT     H172257   6.289   4.716   2.565
24005WAT     H272258   6.282   4.740   2.727
24006WAT      O72259   7.506   0.066   4.699
24006WAT     H172260   7.533   0.045   4.793
24006WAT     H272261   7.587   0.096   4.647
24007WAT      O72262   8.476   1.293   3.830
24007WAT     H172263   8.497   1.224   3.761
24007WAT     H272264   8.503   1.383   3.797
24008WAT      O72265   7.503   0.990   9.294
24008WAT     H172266   7.601   0.975   9.308
24008WAT     H272267   7.457   0.993   9.382
24009WAT      O72268   0.514   0.405   0.949
24009WAT     H172269   0.516   0.309   0.923
24009WAT     H272270   0.547   0.415   1.043
24010WAT      O72271   0.135   3.679   3.368
24010WAT     H172272   0.040   3.651   3.387
24010WAT     H272273   0.153   3.671   3.270
24011WAT      O72274   9.049   0.693   2.973
24011WAT     H172275   8.949   0.691   2.974
24011WAT     H272276   9.081   0.735   2.887
24012WAT      O72277   2.444   0.287   9.038
24012WAT     H172278   2.503   0.328   8.968
24012WAT     H272279   2.500   0.252   9.113
24013WAT      O72280   8.788   0.949   0.120
24013WAT     H172281   8.711   1.010   0.140
24013WAT     H272282   8.754   0.864   0.081
24014WAT      O72283   3.406   1.007   8.346
24014WAT     H172284   3.397   1.088   8.288
24014WAT     H272285   3.420   0.926   8.288
24015WAT      O72286   2.686   3.136   3.233
24015WAT     H172287   2.605   3.099   3.279
24015WAT     H272288   2.701   3.230   3.261
24016WAT      O72289   4.134   5.692   9.496
24016WAT     H172290   4.065   5.756   9.530
24016WAT     H272291   4.097   5.599   9.501
24017WAT      O72292   7.314   0.003   7.358
24017WAT     H172293   7.386   0.044   7.301
24017WAT     H272294   7.292   0.066   7.433
24018WAT      O72295   2.352   5.947   2.067
24018WAT     H172296   2.349   6.034   2.116
24018WAT     H272297   2.279   5.944   1.999
24019WAT      O72298   1.465   1.212   9.761
24019WAT     H172299   1.405   1.285   9.728
24019WAT     H272300   1.554   1.219   9.716
24020WAT      O72301   6.607   7.630   4.222
24020WAT     H172302   6.539   7.693   4.184
24020WAT     H272303   6.696   7.649   4.180
24021WAT      O72304   3.870   8.050   0.726
24021WAT     H172305   3.793   8.056   0.790
24021WAT     H272306   3.837   8.016   0.638
24022WAT      O72307   3.484   7.919   4.068
24022WAT     H172308   3.482   7.958   3.975
24022WAT     H272309   3.577   7.926   4.104
24023WAT      O72310   5.105   6.089   3.821
24023WAT     H172311   5.048   6.168   3.799
24023WAT     H272312   5.056   6.005   3.797
24024WAT      O72313   7.079   0.464   8.106
24024WAT     H172314   7.111   0.430   8.018
24024WAT     H272315   7.010   0.535   8.091
24025WAT      O72316   6.909   5.203   4.322
24025WAT     H172317   6.900   5.298   4.352
24025WAT     H272318   6.823   5.155   4.337
24026WAT      O72319   7.385   6.709   1.926
24026WAT     H172320   7.418   6.617   1.944
24026WAT     H272321   7.306   6.705   1.864
24027WAT      O72322   3.380   8.911   8.090
24027WAT     H172323   3.331   8.940   8.173
24027WAT     H272324   3.314   8.883   8.021
24028WAT      O72325   8.118   1.476   2.161
24028WAT     H172326   8.111   1.387   2.207
24028WAT     H272327   8.030   1.523   2.169
24029WAT      O72328   4.672   7.554   8.747
24029WAT     H172329   4.740   7.619   8.714
24029WAT     H272330   4.580   7.588   8.727
24030WAT      O72331   5.232   8.252   1.195
24030WAT     H172332   5.197   8.215   1.109
24030WAT     H272333   5.156   8.293   1.246
24031WAT      O72334   8.688   6.890   2.594
24031WAT     H172335   8.627   6.811   2.599
24031WAT     H272336   8.783   6.859   2.593
24032WAT      O72337   4.279   0.568   0.569
24032WAT     H172338   4.211   0.641   0.569
24032WAT     H272339   4.358   0.596   0.514
24033WAT      O72340   1.137   7.492   7.887
24033WAT     H172341   1.201   7.519   7.960
24033WAT     H272342   1.085   7.412   7.917
24034WAT      O72343   6.002   2.823   4.224
24034WAT     H172344   6.058   2.747   4.191
24034WAT     H272345   5.907   2.792   4.235
24035WAT      O72346   7.614   2.107   4.175
24035WAT     H172347   7.617   2.020   4.125
24035WAT     H272348   7.642   2.093   4.269
24036WAT      O72349   9.423   2.605   8.560
24036WAT     H172350   9.512   2.598   8.606
24036WAT     H272351   9.350   2.592   8.627
24037WAT      O72352   4.985   5.288   2.950
24037WAT     H172353   4.956   5.277   2.855
24037WAT     H272354   4.912   5.258   3.011
24038WAT      O72355   8.259   2.078   0.441
24038WAT     H172356   8.289   2.157   0.388
24038WAT     H272357   8.206   2.108   0.521
24039WAT      O72358   5.236   3.753   0.287
24039WAT     H172359   5.300   3.677   0.282
24039WAT     H272360   5.263   3.815   0.361
24040WAT      O72361   1.666   1.386   0.018
24040WAT     H172362   1.605   1.312   0.047
24040WAT     H272363   1.684   1.379  -0.079
24041WAT      O72364   7.351   2.235   2.652
24041WAT     H172365   7.432   2.214   2.597
24041WAT     H272366   7.268   2.215   2.599
24042WAT      O72367   6.641   8.591   2.400
24042WAT     H172368   6.604   8.534   2.474
24042WAT     H272369   6.670   8.679   2.438
24043WAT      O72370   5.943   7.539   7.441
24043WAT     H172371   5.997   7.622   7.455
24043WAT     H272372   5.939   7.487   7.526
24044WAT      O72373   1.440   1.614   4.097
24044WAT     H172374   1.365   1.640   4.036
24044WAT     H272375   1.488   1.696   4.127
24045WAT      O72376   1.842   2.407   5.191
24045WAT     H172377   1.815   2.388   5.286
24045WAT     H272378   1.834   2.506   5.174
24046WAT      O72379   4.391   7.603   8.607
24046WAT     H172380   4.366   7.699   8.621
24046WAT     H272381   4.354   7.571   8.520
24047WAT      O72382   7.534   0.844   3.911
24047WAT     H172383   7.629   0.814   3.901
24047WAT     H272384   7.527   0.908   3.987
24048WAT      O72385   2.223   4.416   0.764
24048WAT     H172386   2.175   4.472   0.697
24048WAT     H272387   2.160   4.391   0.838
24049WAT      O72388   8.192   8.881   7.691
24049WAT     H172389   8.111   8.878   7.750
24049WAT     H272390   8.244   8.964   7.709
24050WAT      O72391   9.436   8.012   6.799
24050WAT     H172392   9.420   8.036   6.895
24050WAT     H272393   9.355   8.033   6.745
24051WAT      O72394   6.098   9.105   7.727
24051WAT     H172395   6.054   9.191   7.752
24051WAT     H272396   6.197   9.119   7.724
24052WAT      O72397   3.230   7.568   4.763
24052WAT     H172398   3.211   7.553   4.666
24052WAT     H272399   3.218   7.665   4.784
24053WAT      O72400   1.490   1.310   2.945
24053WAT     H172401   1.589   1.323   2.950
24053WAT     H272402   1.459   1.256   3.024
24054WAT      O72403   1.704   9.796   2.484
24054WAT     H172404   1.714   9.873   2.547
24054WAT     H272405   1.645   9.726   2.526
24055WAT      O72406   7.344   3.775   6.238
24055WAT     H172407   7.399   3.848   6.197
24055WAT     H272408   7.357   3.774   6.337
24056WAT      O72409   3.062   0.645   4.911
24056WAT     H172410   3.085   0.568   4.852
24056WAT     H272411   3.014   0.714   4.858
24057WAT      O72412   8.741   2.112   7.120
24057WAT     H172413   8.741   2.210   7.099
24057WAT     H272414   8.808   2.093   7.192
24058WAT      O72415   2.010   0.591   0.244
24058WAT     H172416   2.042   0.498   0.232
24058WAT     H272417   2.049   0.650   0.173
24059WAT      O72418   6.438   6.111   9.781
24059WAT     H172419   6.500   6.163   9.722
24059WAT     H272420   6.477   6.021   9.799
24060WAT      O72421   4.799   2.747   1.817
24060WAT     H172422   4.739   2.782   1.745
24060WAT     H272423   4.855   2.672   1.782
24061WAT      O72424   3.686   5.656   1.772
24061WAT     H172425   3.762   5.674   1.710
24061WAT     H272426   3.660   5.560   1.767
24062WAT      O72427   4.155   8.561   7.521
24062WAT     H172428   4.145   8.651   7.479
24062WAT     H272429   4.183   8.571   7.616
24063WAT      O72430   9.167   2.754   1.060
24063WAT     H172431   9.165   2.734   1.158
24063WAT     H272432   9.134   2.674   1.010
24064WAT      O72433   3.852   0.124   1.093
24064WAT     H172434   3.846   0.059   1.017
24064WAT     H272435   3.946   0.127   1.126
24065WAT      O72436   7.010   5.874   6.729
24065WAT     H172437   7.034   5.845   6.637
24065WAT     H272438   7.026   5.973   6.739
24066WAT      O72439   8.159   5.329   5.560
24066WAT     H172440   8.140   5.234   5.535
24066WAT     H272441   8.230   5.331   5.630
24067WAT      O72442   1.351   5.246   0.606
24067WAT     H172443   1.430   5.280   0.657
24067WAT     H272444   1.269   5.251   0.663
24068WAT      O72445   9.179   2.907   3.631
24068WAT     H172446   9.190   2.882   3.535
24068WAT     H272447   9.176   3.007   3.639
24069WAT      O72448   1.041   3.582   0.145
24069WAT     H172449   0.956   3.632   0.130
24069WAT     H272450   1.080   3.556   0.057
24070WAT      O72451   7.178   5.317   8.695
24070WAT     H172452   7.253   5.250   8.692
24070WAT     H272453   7.157   5.346   8.601
24071WAT      O72454   9.717   2.453   9.652
24071WAT     H172455   9.725   2.550   9.630
24071WAT     H272456   9.805   2.418   9.682
24072WAT      O72457   7.026   4.832   2.486
24072WAT     H172458   7.040   4.901   2.557
24072WAT     H272459   7.086   4.754   2.503
24073WAT      O72460   8.741   1.802   5.059
24073WAT     H172461   8.727   1.881   4.999
24073WAT     H272462   8.788   1.831   5.142
24074WAT      O72463   0.529   2.727   1.139
24074WAT     H172464   0.460   2.663   1.173
24074WAT     H272465   0.578   2.686   1.062
24075WAT      O72466   7.740   0.688   0.099
24075WAT     H172467   7.685   0.712   0.178
24075WAT     H272468   7.757   0.770   0.044
24076WAT      O72469   7.167   9.149   6.937
24076WAT     H172470   7.234   9.074   6.937
24076WAT     H272471   7.155   9.182   7.031
24077WAT      O72472   6.307   4.474   9.735
24077WAT     H172473   6.403   4.464   9.708
24077WAT     H272474   6.253   4.403   9.692
24078WAT      O72475   3.695   3.759   3.186
24078WAT     H172476   3.658   3.702   3.113
24078WAT     H272477   3.684   3.713   3.274
24079WAT      O72478   4.877   2.015   2.165
24079WAT     H172479   4.820   1.964   2.101
24079WAT     H272480   4.893   2.108   2.131
24080WAT      O72481   6.724   9.640   8.045
24080WAT     H172482   6.640   9.585   8.041
24080WAT     H272483   6.802   9.580   8.062
24081WAT      O72484   1.661   1.717   4.983
24081WAT     H172485   1.674   1.622   5.011
24081WAT     H272486   1.663   1.723   4.883
24082WAT      O72487   4.978   7.910   0.810
24082WAT     H172488   5.024   7.849   0.746
24082WAT     H272489   4.912   7.966   0.760
24083WAT      O72490   2.205   4.238   7.203
24083WAT     H172491   2.194   4.334   7.177
24083WAT     H272492   2.147   4.181   7.145
24084WAT      O72493   6.686   1.835   1.418
24084WAT     H172494   6.587   1.837   1.429
24084WAT     H272495   6.730   1.833   1.508
24085WAT      O72496   9.241   5.724   6.970
24085WAT     H172497   9.251   5.798   6.903
24085WAT     H272498   9.329   5.707   7.014
24086WAT      O72499   0.475   4.813   5.345
24086WAT     H172500   0.544   4.879   5.378
24086WAT     H272501   0.422   4.855   5.271
24087WAT      O72502   9.377   9.148   9.365
24087WAT     H172503   9.347   9.158   9.460
24087WAT     H272504   9.472   9.119   9.363
24088WAT      O72505   1.541   2.164   1.088
24088WAT     H172506   1.586   2.253   1.101
24088WAT     H272507   1.564   2.128   0.998
24089WAT      O72508   3.390   5.596   9.807
24089WAT     H172509   3.420   5.691   9.816
24089WAT     H272510   3.425   5.558   9.721
24090WAT      O72511   5.733   4.462   5.457
24090WAT     H172512   5.825   4.453   5.494
24090WAT     H272513   5.713   4.385   5.397
24091WAT      O72514   9.228   2.250   4.999
24091WAT     H172515   9.246   2.325   5.063
24091WAT     H272516   9.178   2.285   4.920
24092WAT      O72517   4.565   1.007   4.500
24092WAT     H172518   4.656   0.969   4.514
24092WAT     H272519   4.571   1.091   4.447
24093WAT      O72520   6.214   7.417   5.889
24093WAT     H172521   6.251   7.481   5.956
24093WAT     H272522   6.277   7.340   5.876
24094WAT      O72523   3.217   8.687   0.642
24094WAT     H172524   3.249   8.724   0.729
24094WAT     H272525   3.270   8.727   0.567
24095WAT      O72526   4.912   3.316   2.398
24095WAT     H172527   4.868   3.405   2.384
24095WAT     H272528   4.970   3.320   2.480
24096WAT      O72529   1.908   6.612   1.216
24096WAT     H172530   1.981   6.588   1.279
24096WAT     H272531   1.879   6.706   1.232
24097WAT      O72532   5.291   4.578   2.965
24097WAT     H172533   5.329   4.635   2.892
24097WAT     H272534   5.272   4.634   3.045
24098WAT      O72535   9.147   8.571   3.892
24098WAT     H172536   9.141   8.472   3.904
24098WAT     H272537   9.209   8.592   3.816
24099WAT      O72538   4.842   5.530   8.056
24099WAT     H172539   4.790   5.448   8.031
24099WAT     H272540   4.938   5.506   8.072
24100WAT      O72541   8.067   9.483   3.638
24100WAT     H172542   8.166   9.476   3.626
24100WAT     H272543   8.022   9.412   3.584
24101WAT      O72544   8.128   4.818   9.416
24101WAT     H172545   8.193   4.742   9.420
24101WAT     H272546   8.037   4.785   9.442
24102WAT      O72547   4.025   0.923   6.842
24102WAT     H172548   4.072   0.859   6.903
24102WAT     H272549   4.084   0.945   6.764
24103WAT      O72550   7.357   8.356   2.401
24103WAT     H172551   7.403   8.432   2.356
24103WAT     H272552   7.258   8.363   2.385
24104WAT      O72553   1.875   3.685   3.231
24104WAT     H172554   1.917   3.709   3.319
24104WAT     H272555   1.943   3.691   3.158
24105WAT      O72556   4.991   1.206   0.132
24105WAT     H172557   4.960   1.112   0.152
24105WAT     H272558   5.001   1.256   0.218
24106WAT      O72559   4.521   7.153   9.274
24106WAT     H172560   4.584   7.085   9.311
24106WAT     H272561   4.472   7.197   9.349
24107WAT      O72562   1.130   3.057   1.517
24107WAT     H172563   1.183   3.010   1.446
24107WAT     H272564   1.188   3.125   1.561
24108WAT      O72565   1.950   3.474   9.294
24108WAT     H172566   1.851   3.482   9.304
24108WAT     H272567   1.992   3.565   9.297
24109WAT      O72568   7.039   9.764   1.114
24109WAT     H172569   7.044   9.700   1.037
24109WAT     H272570   7.129   9.803   1.132
24110WAT      O72571   5.451   1.127   5.781
24110WAT     H172572   5.367   1.073   5.779
24110WAT     H272573   5.506   1.099   5.860
24111WAT      O72574   4.687   7.719   1.482
24111WAT     H172575   4.669   7.685   1.390
24111WAT     H272576   4.732   7.647   1.536
24112WAT      O72577   6.493   4.306   0.895
24112WAT     H172578   6.592   4.295   0.908
24112WAT     H272579   6.452   4.340   0.980
24113WAT      O72580   8.315   4.144   6.444
24113WAT     H172581   8.388   4.100   6.496
24113WAT     H272582   8.289   4.229   6.489
24114WAT      O72583   3.619   5.398   1.762
24114WAT     H172584   3.519   5.400   1.771
24114WAT     H272585   3.657   5.326   1.819
24115WAT      O72586   5.709   6.545   1.883
24115WAT     H172587   5.746   6.463   1.926
24115WAT     H272588   5.749   6.626   1.926
24116WAT      O72589   5.528   2.844   9.034
24116WAT     H172590   5.507   2.942   9.032
24116WAT     H272591   5.606   2.827   9.093
24117WAT      O72592   3.069   5.325   0.378
24117WAT     H172593   3.015   5.389   0.323
24117WAT     H272594   3.089   5.243   0.324
24118WAT      O72595   8.679   8.947   2.579
24118WAT     H172596   8.622   8.931   2.498
24118WAT     H272597   8.653   8.883   2.651
24119WAT      O72598   3.154   2.096   3.227
24119WAT     H172599   3.228   2.149   3.267
24119WAT     H272600   3.170   1.999   3.242
24120WAT      O72601   8.354   5.545   9.824
24120WAT     H172602   8.352   5.472   9.755
24120WAT     H272603   8.265   5.551   9.868
24121WAT      O72604   0.412   0.462   2.216
24121WAT     H172605   0.465   0.472   2.300
24121WAT     H272606   0.454   0.516   2.143
24122WAT      O72607   0.621   5.613   5.896
24122WAT     H172608   0.533   5.594   5.940
24122WAT     H272609   0.628   5.558   5.813
24123WAT      O72610   0.868   7.253   1.294
24123WAT     H172611   0.850   7.351   1.280
24123WAT     H272612   0.923   7.242   1.377
24124WAT      O72613   9.056   8.884   4.963
24124WAT     H172614   9.134   8.822   4.970
24124WAT     H272615   9.005   8.865   4.878
24125WAT      O72616   6.110   5.763   4.349
24125WAT     H172617   6.112   5.803   4.440
24125WAT     H272618   6.020   5.776   4.308
24126WAT      O72619   1.962   5.489   2.897
24126WAT     H172620   2.023   5.443   2.961
24126WAT     H272621   2.003   5.576   2.869
24127WAT      O72622   1.999   6.104   2.040
24127WAT     H172623   2.070   6.174   2.045
24127WAT     H272624   1.923   6.138   1.984
24128WAT      O72625   7.459   4.933   8.770
24128WAT     H172626   7.435   5.004   8.836
24128WAT     H272627   7.475   4.975   8.680
24129WAT      O72628   6.884   1.055   2.781
24129WAT     H172629   6.964   0.996   2.787
24129WAT     H272630   6.808   1.004   2.740
24130WAT      O72631   7.875   5.782   8.581
24130WAT     H172632   7.925   5.742   8.657
24130WAT     H272633   7.779   5.755   8.586
24131WAT      O72634   5.407   5.888   2.500
24131WAT     H172635   5.499   5.925   2.486
24131WAT     H272636   5.411   5.788   2.490
24132WAT      O72637   6.062   3.112   4.612
24132WAT     H172638   6.081   3.201   4.653
24132WAT     H272639   5.985   3.069   4.660
24133WAT      O72640   5.192   8.712   4.091
24133WAT     H172641   5.192   8.693   3.993
24133WAT     H272642   5.257   8.650   4.136
24134WAT      O72643   8.557   8.040   0.353
24134WAT     H172644   8.480   7.978   0.367
24134WAT     H272645   8.641   7.997   0.384
24135WAT      O72646   2.170   7.624   7.637
24135WAT     H172647   2.235   7.687   7.594
24135WAT     H272648   2.123   7.572   7.566
24136WAT      O72649   7.397   5.841   3.185
24136WAT     H172650   7.323   5.843   3.118
24136WAT     H272651   7.485   5.831   3.138
24137WAT      O72652   9.552   5.280   0.476
24137WAT     H172653   9.500   5.364   0.459
24137WAT     H272654   9.497   5.201   0.447
24138WAT      O72655   5.467   0.639   7.625
24138WAT     H172656   5.531   0.702   7.581
24138WAT     H272657   5.501   0.546   7.617
24139WAT      O72658   0.801   8.187   0.375
24139WAT     H172659   0.745   8.149   0.301
24139WAT     H272660   0.896   8.156   0.364
24140WAT      O72661   6.997   0.440   7.226
24140WAT     H172662   6.915   0.392   7.195
24140WAT     H272663   6.978   0.538   7.233
24141WAT      O72664   6.511   5.317   5.777
24141WAT     H172665   6.517   5.416   5.784
24141WAT     H272666   6.537   5.276   5.865
24142WAT      O72667   4.449   5.611   3.832
24142WAT     H172668   4.503   5.557   3.767
24142WAT     H272669   4.487   5.703   3.840
24143WAT      O72670   8.244   9.111   0.068
24143WAT     H172671   8.258   9.028   0.013
24143WAT     H272672   8.270   9.191   0.013
24144WAT      O72673   4.138   7.826   6.829
24144WAT     H172674   4.205   7.760   6.797
24144WAT     H272675   4.157   7.850   6.924
24145WAT      O72676   8.327   0.898   9.007
24145WAT     H172677   8.316   0.815   8.952
24145WAT     H272678   8.263   0.968   8.974
24146WAT      O72679   1.086   0.729   3.625
24146WAT     H172680   1.150   0.762   3.556
24146WAT     H272681   1.032   0.654   3.587
24147WAT      O72682  -0.005   4.261   0.163
24147WAT     H172683   0.052   4.191   0.118
24147WAT     H272684   0.046   4.302   0.238
24148WAT      O72685   7.962   3.121   6.238
24148WAT     H172686   7.929   3.113   6.144
24148WAT     H272687   7.904   3.184   6.288
24149WAT      O72688   5.249   7.290   0.632
24149WAT     H172689   5.155   7.289   0.598
24149WAT     H272690   5.279   7.196   0.649
24150WAT      O72691   6.864   5.243   7.113
24150WAT     H172692   6.924   5.199   7.045
24150WAT     H272693   6.852   5.340   7.089
24151WAT      O72694   6.730   3.030   6.042
24151WAT     H172695   6.736   2.940   6.086
24151WAT     H272696   6.654   3.031   5.977
24152WAT      O72697   4.712   0.631   4.040
24152WAT     H172698   4.650   0.553   4.051
24152WAT     H272699   4.659   0.714   4.027
24153WAT      O72700   2.859   0.925   8.787
24153WAT     H172701   2.936   0.866   8.765
24153WAT     H272702   2.822   0.965   8.704
24154WAT      O72703   2.969   8.615   5.906
24154WAT     H172704   2.998   8.710   5.898
24154WAT     H272705   2.975   8.586   6.001
24155WAT      O72706   3.524   0.304   7.278
24155WAT     H172707   3.593   0.239   7.246
24155WAT     H272708   3.480   0.347   7.200
24156WAT      O72709   8.382   9.414   8.440
24156WAT     H172710   8.352   9.453   8.353
24156WAT     H272711   8.478   9.435   8.455
24157WAT      O72712   3.498   6.876   1.711
24157WAT     H172713   3.420   6.887   1.773
24157WAT     H272714   3.473   6.909   1.620
24158WAT      O72715   2.606   4.910   8.663
24158WAT     H172716   2.646   4.972   8.595
24158WAT     H272717   2.676   4.845   8.694
24159WAT      O72718   7.531   8.613   4.435
24159WAT     H172719   7.625   8.591   4.461
24159WAT     H272720   7.471   8.602   4.514
24160WAT      O72721   8.699   7.052   0.071
24160WAT     H172722   8.599   7.057   0.064
24160WAT     H272723   8.724   6.990   0.144
24161WAT      O72724   5.783   9.276   9.856
24161WAT     H172725   5.847   9.348   9.882
24161WAT     H272726   5.830   9.188   9.857
24162WAT      O72727   1.149   1.375   0.584
24162WAT     H172728   1.195   1.299   0.631
24162WAT     H272729   1.181   1.379   0.489
24163WAT      O72730   5.525   4.357   1.326
24163WAT     H172731   5.458   4.296   1.368
24163WAT     H272732   5.559   4.421   1.395
24164WAT      O72733   5.626   5.548   0.648
24164WAT     H172734   5.659   5.545   0.554
24164WAT     H272735   5.549   5.485   0.658
24165WAT      O72736   8.267   1.183   0.377
24165WAT     H172737   8.249   1.112   0.445
24165WAT     H272738   8.190   1.248   0.375
24166WAT      O72739   7.556   1.511   2.648
24166WAT     H172740   7.464   1.475   2.634
24166WAT     H272741   7.590   1.550   2.562
24167WAT      O72742   8.514   3.826   0.333
24167WAT     H172743   8.444   3.880   0.287
24167WAT     H272744   8.575   3.887   0.384
24168WAT      O72745   5.457   0.896   1.984
24168WAT     H172746   5.402   0.961   2.037
24168WAT     H272747   5.421   0.804   1.996
24169WAT      O72748   6.045   7.631   5.900
24169WAT     H172749   6.004   7.635   5.991
24169WAT     H272750   6.108   7.554   5.895
24170WAT      O72751   6.165   8.255   5.048
24170WAT     H172752   6.072   8.293   5.046
24170WAT     H272753   6.219   8.304   5.117
24171WAT      O72754   3.448   4.099   2.210
24171WAT     H172755   3.405   4.167   2.151
24171WAT     H272756   3.519   4.050   2.158
24172WAT      O72757   7.841   6.949   3.833
24172WAT     H172758   7.790   7.025   3.792
24172WAT     H272759   7.802   6.863   3.801
24173WAT      O72760   3.882   1.901   2.184
24173WAT     H172761   3.843   1.814   2.153
24173WAT     H272762   3.945   1.884   2.260
24174WAT      O72763   4.021   6.235   9.471
24174WAT     H172764   3.985   6.177   9.545
24174WAT     H272765   3.962   6.227   9.391
24175WAT      O72766   0.054   4.927   0.213
24175WAT     H172767   0.011   4.996   0.154
24175WAT     H272768   0.004   4.841   0.204
24176WAT      O72769   9.381   3.045   2.997
24176WAT     H172770   9.469   3.031   2.952
24176WAT     H272771   9.333   3.121   2.952
24177WAT      O72772   6.573   0.239   1.528
24177WAT     H172773   6.562   0.208   1.434
24177WAT     H272774   6.670   0.254   1.548
24178WAT      O72775   9.319   8.043   5.777
24178WAT     H172776   9.240   8.098   5.804
24178WAT     H272777   9.290   7.947   5.767
24179WAT      O72778   2.128   3.619   1.299
24179WAT     H172779   2.157   3.615   1.394
24179WAT     H272780   2.079   3.705   1.283
24180WAT      O72781   7.350   3.265   4.452
24180WAT     H172782   7.265   3.318   4.463
24180WAT     H272783   7.363   3.244   4.355
24181WAT      O72784   1.014   1.852   9.173
24181WAT     H172785   0.984   1.942   9.140
24181WAT     H272786   1.112   1.841   9.154
24182WAT      O72787   3.903   9.395   4.960
24182WAT     H172788   3.981   9.349   4.917
24182WAT     H272789   3.918   9.494   4.961
24183WAT      O72790   9.027   3.182   3.395
24183WAT     H172791   9.037   3.083   3.389
24183WAT     H272792   9.110   3.226   3.364
24184WAT      O72793   5.242   8.089   5.114
24184WAT     H172794   5.187   8.046   5.185
24184WAT     H272795   5.325   8.128   5.155
24185WAT      O72796   4.208   7.051   7.923
24185WAT     H172797   4.154   7.016   8.000
24185WAT     H272798   4.303   7.021   7.933
24186WAT      O72799   2.457   7.192   5.837
24186WAT     H172800   2.544   7.233   5.810
24186WAT     H272801   2.429   7.124   5.769
24187WAT      O72802   3.554   1.357   9.245
24187WAT     H172803   3.541   1.436   9.305
24187WAT     H272804   3.602   1.385   9.162
24188WAT      O72805   8.483   3.897   1.282
24188WAT     H172806   8.554   3.827   1.273
24188WAT     H272807   8.517   3.984   1.246
24189WAT      O72808   6.914   8.807   4.203
24189WAT     H172809   6.838   8.758   4.161
24189WAT     H272810   6.921   8.899   4.163
24190WAT      O72811   2.307   6.290   1.739
24190WAT     H172812   2.348   6.380   1.752
24190WAT     H272813   2.278   6.279   1.644
24191WAT      O72814   0.679   4.316   2.062
24191WAT     H172815   0.628   4.237   2.029
24191WAT     H272816   0.677   4.389   1.994
24192WAT      O72817   1.410   8.723   9.171
24192WAT     H172818   1.313   8.702   9.184
24192WAT     H272819   1.448   8.662   9.102
24193WAT      O72820   5.480   4.990   6.839
24193WAT     H172821   5.415   4.953   6.772
24193WAT     H272822   5.501   5.085   6.815
24194WAT      O72823   3.098   7.367   8.481
24194WAT     H172824   3.170   7.410   8.535
24194WAT     H272825   3.130   7.278   8.448
24195WAT      O72826   5.754   1.887   8.503
24195WAT     H172827   5.824   1.835   8.551
24195WAT     H272828   5.668   1.835   8.502
24196WAT      O72829   4.514   3.484   7.831
24196WAT     H172830   4.498   3.400   7.780
24196WAT     H272831   4.588   3.535   7.788
24197WAT      O72832   3.329   4.636   7.407
24197WAT     H172833   3.256   4.568   7.415
24197WAT     H272834   3.383   4.617   7.325
24198WAT      O72835   0.216   4.260   6.911
24198WAT     H172836   0.241   4.356   6.910
24198WAT     H272837   0.234   4.221   7.001
24199WAT      O72838   7.557   3.189   3.294
24199WAT     H172839   7.559   3.092   3.318
24199WAT     H272840   7.651   3.222   3.283
24200WAT      O72841   9.591   8.030   2.142
24200WAT     H172842   9.536   7.965   2.090
24200WAT     H272843   9.556   8.122   2.129
24201WAT      O72844   4.598   7.438   2.261
24201WAT     H172845   4.557   7.482   2.341
24201WAT     H272846   4.675   7.382   2.289
24202WAT      O72847   4.585   4.333   7.499
24202WAT     H172848   4.513   4.398   7.477
24202WAT     H272849   4.582   4.257   7.433
24203WAT      O72850   1.175   5.215   7.202
24203WAT     H172851   1.243   5.142   7.214
24203WAT     H272852   1.094   5.194   7.257
24204WAT      O72853   5.004   7.621   7.744
24204WAT     H172854   4.979   7.655   7.654
24204WAT     H272855   5.076   7.552   7.734
24205WAT      O72856   6.029   0.170   7.180
24205WAT     H172857   5.967   0.202   7.109
24205WAT     H272858   6.115   0.221   7.174
24206WAT      O72859   4.848   0.050   9.202
24206WAT     H172860   4.850  -0.025   9.268
24206WAT     H272861   4.938   0.092   9.196
24207WAT      O72862   0.571   6.218   0.816
24207WAT     H172863   0.663   6.215   0.778
24207WAT     H272864   0.504   6.223   0.741
24208WAT      O72865   2.353   6.532   5.888
24208WAT     H172866   2.422   6.561   5.954
24208WAT     H272867   2.346   6.432   5.889
24209WAT      O72868   7.328   3.015   2.383
24209WAT     H172869   7.295   2.965   2.303
24209WAT     H272870   7.280   3.102   2.389
24210WAT      O72871   5.593   2.118   7.150
24210WAT     H172872   5.622   2.041   7.093
24210WAT     H272873   5.604   2.094   7.246
24211WAT      O72874   8.204   8.394   5.879
24211WAT     H172875   8.197   8.448   5.963
24211WAT     H272876   8.131   8.421   5.816
24212WAT      O72877   0.146   9.046   3.118
24212WAT     H172878   0.150   9.062   3.216
24212WAT     H272879   0.101   8.959   3.099
24213WAT      O72880   0.691   8.229   6.203
24213WAT     H172881   0.790   8.216   6.203
24213WAT     H272882   0.651   8.183   6.124
24214WAT      O72883   6.082   3.367   0.962
24214WAT     H172884   5.988   3.399   0.960
24214WAT     H272885   6.084   3.267   0.954
24215WAT      O72886   9.714   1.538   0.022
24215WAT     H172887   9.714   1.456  -0.036
24215WAT     H272888   9.716   1.510   0.118
24216WAT      O72889   5.826   8.338   5.711
24216WAT     H172890   5.908   8.348   5.767
24216WAT     H272891   5.803   8.241   5.702
24217WAT      O72892   0.978   5.786   8.076
24217WAT     H172893   0.939   5.771   8.167
24217WAT     H272894   1.077   5.795   8.082
24218WAT      O72895   9.836   0.668   7.834
24218WAT     H172896   9.911   0.627   7.886
24218WAT     H272897   9.786   0.732   7.892
24219WAT      O72898   8.625   6.920   8.566
24219WAT     H172899   8.642   6.962   8.477
24219WAT     H272900   8.713   6.896   8.608
24220WAT      O72901   0.766   4.944   0.998
24220WAT     H172902   0.795   5.010   0.928
24220WAT     H272903   0.749   4.855   0.954
24221WAT      O72904   7.551   2.084   7.502
24221WAT     H172905   7.485   2.049   7.569
24221WAT     H272906   7.608   2.154   7.544
24222WAT      O72907   1.282   7.562   2.443
24222WAT     H172908   1.281   7.642   2.503
24222WAT     H272909   1.230   7.488   2.486
24223WAT      O72910   6.734   4.112   4.136
24223WAT     H172911   6.679   4.181   4.183
24223WAT     H272912   6.788   4.155   4.064
24224WAT      O72913   4.227   4.118   2.631
24224WAT     H172914   4.219   4.155   2.724
24224WAT     H272915   4.142   4.070   2.607
24225WAT      O72916   3.405   9.299   7.513
24225WAT     H172917   3.360   9.218   7.475
24225WAT     H272918   3.344   9.378   7.505
24226WAT      O72919   7.647   9.489   4.733
24226WAT     H172920   7.667   9.547   4.655
24226WAT     H272921   7.576   9.422   4.709
24227WAT      O72922   6.498   3.593   3.988
24227WAT     H172923   6.452   3.672   3.948
24227WAT     H272924   6.534   3.535   3.914
24228WAT      O72925   9.852   3.972   2.012
24228WAT     H172926   9.934   4.029   2.019
24228WAT     H272927   9.850   3.928   1.922
24229WAT      O72928   3.203   4.386   7.091
24229WAT     H172929   3.180   4.412   6.997
24229WAT     H272930   3.301   4.400   7.107
24230WAT      O72931   1.898   0.557   7.042
24230WAT     H172932   1.998   0.556   7.042
24230WAT     H272933   1.865   0.648   7.067
24231WAT      O72934   2.262   2.094   7.289
24231WAT     H172935   2.184   2.121   7.346
24231WAT     H272936   2.346   2.134   7.326
24232WAT      O72937   5.310   8.560   4.890
24232WAT     H172938   5.381   8.501   4.927
24232WAT     H272939   5.352   8.636   4.839
24233WAT      O72940   7.685   5.000   6.049
24233WAT     H172941   7.675   5.089   6.003
24233WAT     H272942   7.723   5.014   6.140
24234WAT      O72943   1.986   8.023   8.722
24234WAT     H172944   2.030   7.934   8.711
24234WAT     H272945   2.033   8.091   8.667
24235WAT      O72946   1.928   9.267   4.376
24235WAT     H172947   1.909   9.184   4.428
24235WAT     H272948   1.861   9.278   4.303
24236WAT      O72949   1.817   9.719   4.814
24236WAT     H172950   1.840   9.710   4.911
24236WAT     H272951   1.881   9.783   4.770
24237WAT      O72952   5.992   8.931   2.536
24237WAT     H172953   6.036   8.878   2.609
24237WAT     H272954   6.062   8.964   2.473
24238WAT      O72955   1.134   3.723   8.230
24238WAT     H172956   1.137   3.821   8.246
24238WAT     H272957   1.224   3.683   8.250
24239WAT      O72958   6.034   8.197   9.174
24239WAT     H172959   6.123   8.160   9.200
24239WAT     H272960   5.964   8.164   9.236
24240WAT      O72961   7.881   3.880   0.510
24240WAT     H172962   7.866   3.867   0.412
24240WAT     H272963   7.867   3.976   0.533
24241WAT      O72964   0.885   1.794   7.938
24241WAT     H172965   0.849   1.730   8.006
24241WAT     H272966   0.959   1.847   7.979
24242WAT      O72967   7.212   1.029   3.151
24242WAT     H172968   7.210   1.120   3.110
24242WAT     H272969   7.185   1.035   3.247
24243WAT      O72970   0.089   0.989   2.787
24243WAT     H172971   0.142   0.905   2.778
24243WAT     H272972   0.043   0.991   2.876
24244WAT      O72973   0.409   0.207   7.950
24244WAT     H172974   0.465   0.287   7.970
24244WAT     H272975   0.314   0.225   7.977
24245WAT      O72976   9.731   5.624   6.435
24245WAT     H172977   9.759   5.716   6.462
24245WAT     H272978   9.749   5.560   6.511
24246WAT      O72979   2.936   1.767   5.487
24246WAT     H172980   3.021   1.791   5.533
24246WAT     H272981   2.875   1.720   5.550
24247WAT      O72982   0.978   2.060   9.871
24247WAT     H172983   1.054   2.125   9.874
24247WAT     H272984   1.010   1.972   9.835
24248WAT      O72985   8.326   2.675   9.190
24248WAT     H172986   8.366   2.767   9.184
24248WAT     H272987   8.381   2.612   9.135
24249WAT      O72988   3.934   6.220   8.788
24249WAT     H172989   3.879   6.179   8.861
24249WAT     H272990   3.874   6.243   8.711
24250WAT      O72991   4.639   3.520   8.928
24250WAT     H172992   4.609   3.611   8.955
24250WAT     H272993   4.580   3.487   8.854
24251WAT      O72994   4.971   6.314   3.720
24251WAT     H172995   4.955   6.409   3.747
24251WAT     H272996   4.895   6.282   3.665
24252WAT      O72997   4.249   3.130   5.931
24252WAT     H172998   4.239   3.107   5.835
24252WAT     H272999   4.346   3.144   5.952
24253WAT      O73000   2.069   9.136   6.809
24253WAT     H173001   1.980   9.140   6.855
24253WAT     H273002   2.077   9.050   6.758
24254WAT      O73003   9.592   9.819   0.098
24254WAT     H173004   9.609   9.723   0.121
24254WAT     H273005   9.661   9.850   0.033
24255WAT      O73006   3.704   5.010   0.472
24255WAT     H173007   3.753   4.937   0.424
24255WAT     H273008   3.713   4.997   0.571
24256WAT      O73009   9.164   3.981   5.049
24256WAT     H173010   9.081   4.037   5.052
24256WAT     H273011   9.224   4.014   4.976
24257WAT      O73012   6.914   5.105   7.618
24257WAT     H173013   6.926   5.119   7.519
24257WAT     H273014   6.851   5.029   7.633
24258WAT      O73015   7.479   3.044   5.652
24258WAT     H173016   7.419   3.056   5.730
24258WAT     H273017   7.531   2.959   5.663
24259WAT      O73018   9.765   8.596   4.837
24259WAT     H173019   9.793   8.692   4.843
24259WAT     H273020   9.742   8.574   4.742
24260WAT      O73021   0.946   1.998   3.122
24260WAT     H173022   1.035   1.997   3.167
24260WAT     H273023   0.903   2.087   3.133
24261WAT      O73024   3.605   6.797   0.467
24261WAT     H173025   3.506   6.794   0.455
24261WAT     H273026   3.645   6.853   0.395
24262WAT      O73027   1.568   3.396   6.911
24262WAT     H173028   1.590   3.494   6.907
24262WAT     H273029   1.469   3.385   6.919
24263WAT      O73030   6.751   1.289   4.989
24263WAT     H173031   6.662   1.269   4.948
24263WAT     H273032   6.822   1.241   4.939
24264WAT      O73033   1.728   1.840   2.633
24264WAT     H173034   1.722   1.740   2.633
24264WAT     H273035   1.657   1.876   2.694
24265WAT      O73036   5.653   4.210   7.815
24265WAT     H173037   5.720   4.160   7.760
24265WAT     H273038   5.684   4.305   7.826
24266WAT      O73039   4.079   4.679   6.486
24266WAT     H173040   4.141   4.670   6.564
24266WAT     H273041   4.132   4.681   6.401
24267WAT      O73042   0.184   1.509   1.311
24267WAT     H173043   0.226   1.419   1.315
24267WAT     H273044   0.247   1.577   1.349
24268WAT      O73045   5.212   0.024   5.573
24268WAT     H173046   5.206  -0.038   5.650
24268WAT     H273047   5.141   0.001   5.506
24269WAT      O73048   8.961   0.872   9.310
24269WAT     H173049   8.916   0.962   9.316
24269WAT     H273050   9.016   0.857   9.392
24270WAT      O73051   3.525   4.974   6.195
24270WAT     H173052   3.499   4.887   6.238
24270WAT     H273053   3.622   4.992   6.213
24271WAT      O73054   4.705   6.332   9.730
24271WAT     H173055   4.607   6.349   9.716
24271WAT     H273056   4.722   6.234   9.735
24272WAT      O73057   1.487   0.065   7.762
24272WAT     H173058   1.528   0.130   7.698
24272WAT     H273059   1.406   0.024   7.720
24273WAT      O73060   5.115   7.272   6.127
24273WAT     H173061   5.208   7.268   6.090
24273WAT     H273062   5.088   7.181   6.158
24274WAT      O73063   9.141   8.585   0.971
24274WAT     H173064   9.050   8.546   0.989
24274WAT     H273065   9.139   8.683   0.991
24275WAT      O73066   7.900   7.706   7.884
24275WAT     H173067   7.845   7.628   7.852
24275WAT     H273068   7.933   7.687   7.977
24276WAT      O73069   8.611   1.580   2.037
24276WAT     H173070   8.676   1.544   1.970
24276WAT     H273071   8.523   1.533   2.028
24277WAT      O73072   7.164   8.759   8.611
24277WAT     H173073   7.172   8.824   8.536
24277WAT     H273074   7.080   8.706   8.601
24278WAT      O73075   2.645   5.730   2.486
24278WAT     H173076   2.726   5.694   2.440
24278WAT     H273077   2.649   5.708   2.583
24279WAT      O73078   1.685   4.363   2.181
24279WAT     H173079   1.600   4.328   2.221
24279WAT     H273080   1.719   4.297   2.114
24280WAT      O73081   4.218   3.528   6.045
24280WAT     H173082   4.289   3.530   6.116
24280WAT     H273083   4.167   3.442   6.050
24281WAT      O73084   1.800   6.191   1.880
24281WAT     H173085   1.729   6.258   1.904
24281WAT     H273086   1.769   6.135   1.804
24282WAT      O73087   0.938   9.167   5.232
24282WAT     H173088   0.967   9.201   5.321
24282WAT     H273089   0.869   9.229   5.193
24283WAT      O73090   6.030   4.720   3.341
24283WAT     H173091   5.970   4.659   3.289
24283WAT     H273092   6.125   4.700   3.319
24284WAT      O73093   3.756   7.575   3.043
24284WAT     H173094   3.699   7.501   3.006
24284WAT     H273095   3.737   7.585   3.141
24285WAT      O73096   5.755   5.863   8.518
24285WAT     H173097   5.704   5.862   8.604
24285WAT     H273098   5.692   5.861   8.441
24286WAT      O73099   3.189   9.277   7.169
24286WAT     H173100   3.126   9.341   7.215
24286WAT     H273101   3.281   9.288   7.206
24287WAT      O73102   7.534   0.312   7.956
24287WAT     H173103   7.513   0.281   8.048
24287WAT     H273104   7.557   0.409   7.958
24288WAT      O73105   5.904   9.729   1.498
24288WAT     H173106   5.828   9.676   1.462
24288WAT     H273107   5.943   9.787   1.426
24289WAT      O73108   3.331   4.571   2.043
24289WAT     H173109   3.332   4.653   1.986
24289WAT     H273110   3.423   4.534   2.050
24290WAT      O73111   1.110   4.574   7.534
24290WAT     H173112   1.079   4.511   7.605
24290WAT     H273113   1.038   4.640   7.513
24291WAT      O73114   3.206   5.857   9.831
24291WAT     H173115   3.209   5.840   9.929
24291WAT     H273116   3.154   5.784   9.786
24292WAT      O73117   0.204   3.409   3.231
24292WAT     H173118   0.276   3.357   3.185
24292WAT     H273119   0.115   3.379   3.198
24293WAT      O73120   6.379   8.350   0.590
24293WAT     H173121   6.380   8.360   0.491
24293WAT     H273122   6.422   8.263   0.615
24294WAT      O73123   9.587   0.046   9.300
24294WAT     H173124   9.508   0.107   9.293
24294WAT     H273125   9.629   0.035   9.210
24295WAT      O73126   4.883   7.296   8.212
24295WAT     H173127   4.792   7.329   8.236
24295WAT     H273128   4.942   7.373   8.189
24296WAT      O73129   2.597   4.346   6.133
24296WAT     H173130   2.520   4.298   6.090
24296WAT     H273131   2.570   4.376   6.225
24297WAT      O73132   4.706   8.325   6.025
24297WAT     H173133   4.756   8.361   6.105
24297WAT     H273134   4.688   8.399   5.961
24298WAT      O73135   0.194   3.520   7.528
24298WAT     H173136   0.284   3.519   7.572
24298WAT     H273137   0.195   3.583   7.450
24299WAT      O73138   1.313   3.916   6.752
24299WAT     H173139   1.233   3.924   6.811
24299WAT     H273140   1.349   3.823   6.756
24300WAT      O73141   2.887   2.495   5.254
24300WAT     H173142   2.825   2.532   5.184
24300WAT     H273143   2.970   2.551   5.257
24301WAT      O73144   9.782   3.880   9.465
24301WAT     H173145   9.838   3.948   9.418
24301WAT     H273146   9.803   3.789   9.431
24302WAT      O73147   0.049   2.471   2.677
24302WAT     H173148   0.110   2.546   2.704
24302WAT     H273149  -0.029   2.467   2.739
24303WAT      O73150   0.141   1.135   8.673
24303WAT     H173151   0.215   1.097   8.729
24303WAT     H273152   0.087   1.060   8.634
24304WAT      O73153   5.447   6.534   8.730
24304WAT     H173154   5.530   6.508   8.683
24304WAT     H273155   5.406   6.453   8.773
24305WAT      O73156   1.505   5.940   5.447
24305WAT     H173157   1.503   5.890   5.360
24305WAT     H273158   1.567   5.894   5.510
24306WAT      O73159   6.461   0.396   5.779
24306WAT     H173160   6.390   0.363   5.841
24306WAT     H273161   6.549   0.354   5.803
24307WAT      O73162   4.961   4.574   2.003
24307WAT     H173163   5.056   4.602   1.987
24307WAT     H273164   4.951   4.545   2.098
24308WAT      O73165   5.469   1.543   3.218
24308WAT     H173166   5.453   1.564   3.315
24308WAT     H273167   5.521   1.618   3.176
24309WAT      O73168   3.880   5.323   2.161
24309WAT     H173169   3.889   5.375   2.076
24309WAT     H273170   3.850   5.384   2.234
24310WAT      O73171   6.540   8.834   0.192
24310WAT     H173172   6.466   8.844   0.125
24310WAT     H273173   6.596   8.917   0.193
24311WAT      O73174   9.623   1.519   1.485
24311WAT     H173175   9.588   1.572   1.562
24311WAT     H273176   9.723   1.522   1.485
24312WAT      O73177   2.985   9.397   1.297
24312WAT     H173178   2.966   9.393   1.396
24312WAT     H273179   2.924   9.465   1.255
24313WAT      O73180   3.809   1.841   4.237
24313WAT     H173181   3.899   1.802   4.220
24313WAT     H273182   3.772   1.878   4.152
24314WAT      O73183   9.421   6.698   5.091
24314WAT     H173184   9.433   6.756   5.171
24314WAT     H273185   9.452   6.605   5.112
24315WAT      O73186   5.804   2.724   8.769
24315WAT     H173187   5.705   2.734   8.760
24315WAT     H273188   5.842   2.805   8.813
24316WAT      O73189   6.921   6.746   5.294
24316WAT     H173190   6.840   6.796   5.263
24316WAT     H273191   7.001   6.804   5.284
24317WAT      O73192   3.560   3.100   2.294
24317WAT     H173193   3.552   3.002   2.310
24317WAT     H273194   3.619   3.116   2.214
24318WAT      O73195   6.122   1.371   4.264
24318WAT     H173196   6.178   1.298   4.303
24318WAT     H273197   6.178   1.428   4.204
24319WAT      O73198   3.499   0.951   2.259
24319WAT     H173199   3.422   1.014   2.247
24319WAT     H273200   3.465   0.857   2.261
24320WAT      O73201   8.207   3.162   2.414
24320WAT     H173202   8.266   3.090   2.449
24320WAT     H273203   8.214   3.242   2.473
24321WAT      O73204   7.599   6.403   4.040
24321WAT     H173205   7.697   6.385   4.030
24321WAT     H273206   7.549   6.316   4.045
24322WAT      O73207   2.158   3.417   1.839
24322WAT     H173208   2.149   3.351   1.914
24322WAT     H273209   2.227   3.485   1.862
24323WAT      O73210   1.670   8.594   0.795
24323WAT     H173211   1.617   8.520   0.835
24323WAT     H273212   1.663   8.590   0.695
24324WAT      O73213   8.450   2.114   9.233
24324WAT     H173214   8.403   2.078   9.314
24324WAT     H273215   8.507   2.042   9.193
24325WAT      O73216   0.918   7.436   3.357
24325WAT     H173217   0.920   7.408   3.261
24325WAT     H273218   0.853   7.511   3.369
24326WAT      O73219   1.073   7.371   7.225
24326WAT     H173220   1.105   7.449   7.279
24326WAT     H273221   1.129   7.364   7.142
24327WAT      O73222   6.667   4.241   5.693
24327WAT     H173223   6.725   4.212   5.769
24327WAT     H273224   6.592   4.175   5.681
24328WAT      O73225   4.887   7.838   4.398
24328WAT     H173226   4.977   7.860   4.434
24328WAT     H273227   4.892   7.828   4.299
24329WAT      O73228   4.533   4.464   2.056
24329WAT     H173229   4.522   4.563   2.054
24329WAT     H273230   4.514   4.430   2.148
24330WAT      O73231   5.406   2.223   8.517
24330WAT     H173232   5.492   2.191   8.478
24330WAT     H273233   5.363   2.288   8.454
24331WAT      O73234   3.063   6.894   7.215
24331WAT     H173235   3.056   6.821   7.283
24331WAT     H273236   3.056   6.854   7.123
24332WAT      O73237   2.092   8.040   6.361
24332WAT     H173238   2.020   8.101   6.394
24332WAT     H273239   2.146   8.008   6.438
24333WAT      O73240   2.787   1.639   4.982
24333WAT     H173241   2.822   1.643   5.076
24333WAT     H273242   2.713   1.705   4.972
24334WAT      O73243   8.481   2.575   4.655
24334WAT     H173244   8.542   2.648   4.684
24334WAT     H273245   8.529   2.487   4.660
24335WAT      O73246   4.760   0.776   4.820
24335WAT     H173247   4.667   0.741   4.830
24335WAT     H273248   4.820   0.702   4.789
24336WAT      O73249   1.197   0.762   3.129
24336WAT     H173250   1.236   0.820   3.057
24336WAT     H273251   1.264   0.751   3.203
24337WAT      O73252   1.221   8.044   8.744
24337WAT     H173253   1.252   8.022   8.837
24337WAT     H273254   1.176   7.964   8.704
24338WAT      O73255   0.765   8.043   6.468
24338WAT     H173256   0.687   8.094   6.431
24338WAT     H273257   0.732   7.960   6.513
24339WAT      O73258   0.833   1.080   4.442
24339WAT     H173259   0.740   1.089   4.477
24339WAT     H273260   0.859   0.983   4.441
24340WAT      O73261   2.600   9.607   7.068
24340WAT     H173262   2.643   9.686   7.026
24340WAT     H273263   2.514   9.634   7.111
24341WAT      O73264   8.760   4.159   8.594
24341WAT     H173265   8.827   4.150   8.521
24341WAT     H273266   8.807   4.177   8.681
24342WAT      O73267   2.398   0.989   8.184
24342WAT     H173268   2.443   0.904   8.156
24342WAT     H273269   2.380   1.045   8.103
24343WAT      O73270   6.628   1.360   3.727
24343WAT     H173271   6.671   1.369   3.817
24343WAT     H273272   6.699   1.343   3.658
24344WAT      O73273   8.307   5.402   5.253
24344WAT     H173274   8.368   5.427   5.328
24344WAT     H273275   8.316   5.467   5.178
24345WAT      O73276   1.720   2.660   0.745
24345WAT     H173277   1.637   2.630   0.699
24345WAT     H273278   1.704   2.665   0.843
24346WAT      O73279   1.450   6.467   2.824
24346WAT     H173280   1.483   6.374   2.837
24346WAT     H273281   1.440   6.485   2.726
24347WAT      O73282   1.708   0.707   2.896
24347WAT     H173283   1.782   0.662   2.946
24347WAT     H273284   1.707   0.676   2.801
24348WAT      O73285   7.168   5.370   6.807
24348WAT     H173286   7.110   5.452   6.805
24348WAT     H273287   7.249   5.386   6.751
24349WAT      O73288   7.108   0.437   2.910
24349WAT     H173289   7.190   0.494   2.911
24349WAT     H273290   7.124   0.355   2.856
24350WAT      O73291   8.997   5.756   9.346
24350WAT     H173292   8.966   5.823   9.279
24350WAT     H273293   9.095   5.741   9.336
24351WAT      O73294   0.386   9.402   0.265
24351WAT     H173295   0.464   9.342   0.249
24351WAT     H273296   0.314   9.382   0.198
24352WAT      O73297   6.162   6.819   0.347
24352WAT     H173298   6.117   6.896   0.301
24352WAT     H273299   6.124   6.733   0.313
24353WAT      O73300   7.194   7.950   7.132
24353WAT     H173301   7.140   8.009   7.072
24353WAT     H273302   7.136   7.912   7.204
24354WAT      O73303   2.760   3.186   7.421
24354WAT     H173304   2.740   3.089   7.437
24354WAT     H273305   2.851   3.208   7.457
24355WAT      O73306   7.118   2.428   2.455
24355WAT     H173307   7.137   2.332   2.438
24355WAT     H273308   7.141   2.482   2.374
24356WAT      O73309   9.479   0.207   4.586
24356WAT     H173310   9.394   0.201   4.639
24356WAT     H273311   9.535   0.127   4.605
24357WAT      O73312   5.302   5.779   7.091
24357WAT     H173313   5.320   5.785   7.189
24357WAT     H273314   5.292   5.683   7.064
24358WAT      O73315   6.175   3.897   4.658
24358WAT     H173316   6.204   3.979   4.608
24358WAT     H273317   6.190   3.817   4.601
24359WAT      O73318   4.790   8.997   7.172
24359WAT     H173319   4.817   8.995   7.268
24359WAT     H273320   4.829   9.077   7.128
24360WAT      O73321   7.627   5.407   4.994
24360WAT     H173322   7.702   5.400   4.929
24360WAT     H273323   7.655   5.368   5.082
24361WAT      O73324   1.025   4.892   3.180
24361WAT     H173325   0.936   4.934   3.201
24361WAT     H273326   1.054   4.837   3.258
24362WAT      O73327   8.487   5.711   7.345
24362WAT     H173328   8.530   5.620   7.344
24362WAT     H273329   8.516   5.760   7.428
24363WAT      O73330   6.960   3.861   5.339
24363WAT     H173331   7.027   3.898   5.275
24363WAT     H273332   6.931   3.934   5.402
24364WAT      O73333   8.770   4.106   3.312
24364WAT     H173334   8.740   4.199   3.335
24364WAT     H273335   8.796   4.058   3.395
24365WAT      O73336   8.331   4.853   5.077
24365WAT     H173337   8.237   4.871   5.107
24365WAT     H273338   8.367   4.773   5.125
24366WAT      O73339   1.081   1.296   8.406
24366WAT     H173340   1.105   1.373   8.466
24366WAT     H273341   1.068   1.329   8.313
24367WAT      O73342   4.602   0.626   9.567
24367WAT     H173343   4.588   0.689   9.491
24367WAT     H273344   4.700   0.619   9.587
24368WAT      O73345   2.995   3.278   9.334
24368WAT     H173346   2.924   3.311   9.272
24368WAT     H273347   3.070   3.344   9.337
24369WAT      O73348   2.435   4.630   9.563
24369WAT     H173349   2.503   4.689   9.606
24369WAT     H273350   2.357   4.686   9.533
24370WAT      O73351   7.446   9.745   3.364
24370WAT     H173352   7.409   9.693   3.287
24370WAT     H273353   7.376   9.808   3.399
24371WAT      O73354   3.364   1.150   1.774
24371WAT     H173355   3.334   1.059   1.803
24371WAT     H273356   3.319   1.219   1.830
24372WAT      O73357   9.152   8.439   1.425
24372WAT     H173358   9.132   8.413   1.331
24372WAT     H273359   9.218   8.374   1.464
24373WAT      O73360   4.019   3.852   9.183
24373WAT     H173361   4.000   3.942   9.143
24373WAT     H273362   3.952   3.833   9.255
24374WAT      O73363   9.301   0.755   7.634
24374WAT     H173364   9.348   0.729   7.718
24374WAT     H273365   9.363   0.804   7.574
24375WAT      O73366   6.898   9.256   6.353
24375WAT     H173367   6.843   9.203   6.289
24375WAT     H273368   6.922   9.199   6.432
24376WAT      O73369   4.142   5.570   6.024
24376WAT     H173370   4.151   5.588   6.122
24376WAT     H273371   4.179   5.648   5.972
24377WAT      O73372   8.154   4.954   0.946
24377WAT     H173373   8.245   4.992   0.930
24377WAT     H273374   8.092   5.027   0.973
24378WAT      O73375   1.465   4.106   7.199
24378WAT     H173376   1.552   4.065   7.171
24378WAT     H273377   1.446   4.083   7.295
24379WAT      O73378   8.415   1.724   8.893
24379WAT     H173379   8.339   1.659   8.901
24379WAT     H273380   8.464   1.707   8.808
24380WAT      O73381   0.678   3.134   0.749
24380WAT     H173382   0.704   3.182   0.833
24380WAT     H273383   0.759   3.090   0.710
24381WAT      O73384   7.320   7.792   3.554
24381WAT     H173385   7.388   7.747   3.611
24381WAT     H273386   7.365   7.833   3.475
24382WAT      O73387   2.038   7.766   9.347
24382WAT     H173388   2.136   7.781   9.359
24382WAT     H273389   2.015   7.770   9.250
24383WAT      O73390   6.704   3.840   3.517
24383WAT     H173391   6.795   3.861   3.481
24383WAT     H273392   6.659   3.774   3.458
24384WAT      O73393   7.499   6.255   6.948
24384WAT     H173394   7.583   6.285   6.904
24384WAT     H273395   7.516   6.169   6.997
24385WAT      O73396   7.781   4.809   7.262
24385WAT     H173397   7.878   4.789   7.274
24385WAT     H273398   7.767   4.908   7.262
24386WAT      O73399   7.775   3.877   9.796
24386WAT     H173400   7.831   3.797   9.818
24386WAT     H273401   7.687   3.848   9.760
24387WAT      O73402   7.525   0.320   2.865
24387WAT     H173403   7.531   0.347   2.961
24387WAT     H273404   7.555   0.396   2.808
24388WAT      O73405   4.630   9.603   9.555
24388WAT     H173406   4.553   9.623   9.616
24388WAT     H273407   4.646   9.504   9.554
24389WAT      O73408   0.259   6.839   6.504
24389WAT     H173409   0.271   6.918   6.564
24389WAT     H273410   0.220   6.763   6.556
24390WAT      O73411   9.764   6.278   3.947
24390WAT     H173412   9.799   6.198   3.996
24390WAT     H273413   9.716   6.248   3.864
24391WAT      O73414   3.546   6.991   4.461
24391WAT     H173415   3.587   7.082   4.474
24391WAT     H273416   3.616   6.921   4.474
24392WAT      O73417   5.704   1.535   1.940
24392WAT     H173418   5.726   1.628   1.969
24392WAT     H273419   5.719   1.472   2.017
24393WAT      O73420   0.459   5.332   3.970
24393WAT     H173421   0.359   5.339   3.963
24393WAT     H273422   0.496   5.308   3.880
24394WAT      O73423   0.398   0.528   9.005
24394WAT     H173424   0.421   0.499   8.912
24394WAT     H273425   0.456   0.477   9.070
24395WAT      O73426   0.822   2.839   7.579
24395WAT     H173427   0.890   2.772   7.549
24395WAT     H273428   0.861   2.931   7.573
24396WAT      O73429   5.551   5.033   8.736
24396WAT     H173430   5.548   4.941   8.777
24396WAT     H273431   5.646   5.061   8.724
24397WAT      O73432   8.819   0.429   3.650
24397WAT     H173433   8.873   0.370   3.710
24397WAT     H273434   8.747   0.375   3.606
24398WAT      O73435   0.509   5.423   4.446
24398WAT     H173436   0.522   5.512   4.488
24398WAT     H273437   0.581   5.361   4.477
24399WAT      O73438   7.913   7.141   4.504
24399WAT     H173439   7.864   7.228   4.492
24399WAT     H273440   8.011   7.158   4.502
24400WAT      O73441   2.965   7.531   7.242
24400WAT     H173442   3.010   7.470   7.177
24400WAT     H273443   2.873   7.497   7.262
24401WAT      O73444   9.444   6.316   4.926
24401WAT     H173445   9.517   6.274   4.872
24401WAT     H273446   9.421   6.405   4.887
24402WAT      O73447   3.781   7.715   6.371
24402WAT     H173448   3.716   7.658   6.421
24402WAT     H273449   3.870   7.710   6.415
24403WAT      O73450   8.236   6.910   6.732
24403WAT     H173451   8.157   6.971   6.732
24403WAT     H273452   8.223   6.838   6.801
24404WAT      O73453   4.655   5.028   5.130
24404WAT     H173454   4.671   4.931   5.146
24404WAT     H273455   4.569   5.040   5.081
24405WAT      O73456   0.294   1.054   8.936
24405WAT     H173457   0.209   1.001   8.940
24405WAT     H273458   0.372   0.991   8.934
24406WAT      O73459   3.335   7.720   9.112
24406WAT     H173460   3.305   7.768   9.029
24406WAT     H273461   3.348   7.786   9.186
24407WAT      O73462   2.291   1.018   4.572
24407WAT     H173463   2.297   0.948   4.643
24407WAT     H273464   2.199   1.055   4.569
24408WAT      O73465   2.244   7.587   3.535
24408WAT     H173466   2.177   7.654   3.565
24408WAT     H273467   2.335   7.629   3.536
24409WAT      O73468   5.920   4.373   5.653
24409WAT     H173469   5.927   4.384   5.752
24409WAT     H273470   5.886   4.282   5.631
24410WAT      O73471   2.997   4.300   3.912
24410WAT     H173472   2.964   4.351   3.833
24410WAT     H273473   3.097   4.297   3.910
24411WAT      O73474   0.489   0.245   3.600
24411WAT     H173475   0.584   0.269   3.584
24411WAT     H273476   0.456   0.188   3.524
24412WAT      O73477   2.343   0.217   1.707
24412WAT     H173478   2.352   0.140   1.770
24412WAT     H273479   2.357   0.303   1.755
24413WAT      O73480   9.200   8.339   4.801
24413WAT     H173481   9.246   8.415   4.754
24413WAT     H273482   9.219   8.254   4.752
24414WAT      O73483   8.256   2.436   8.753
24414WAT     H173484   8.218   2.459   8.843
24414WAT     H273485   8.220   2.347   8.724
24415WAT      O73486   7.461   2.496   1.101
24415WAT     H173487   7.464   2.406   1.057
24415WAT     H273488   7.367   2.520   1.122
24416WAT      O73489   9.421   3.419   3.913
24416WAT     H173490   9.511   3.463   3.908
24416WAT     H273491   9.429   3.333   3.963
24417WAT      O73492   4.377   8.809   2.951
24417WAT     H173493   4.298   8.750   2.966
24417WAT     H273494   4.389   8.824   2.852
24418WAT      O73495   6.571   2.718   5.366
24418WAT     H173496   6.661   2.688   5.396
24418WAT     H273497   6.567   2.716   5.266
24419WAT      O73498   8.532   8.355   4.947
24419WAT     H173499   8.536   8.306   4.860
24419WAT     H273500   8.453   8.323   4.999
24420WAT      O73501   5.693   7.900   6.750
24420WAT     H173502   5.774   7.885   6.807
24420WAT     H273503   5.662   7.994   6.759
24421WAT      O73504   6.733   9.242   9.819
24421WAT     H173505   6.737   9.155   9.869
24421WAT     H273506   6.645   9.250   9.773
24422WAT      O73507   7.104   8.292   2.647
24422WAT     H173508   7.153   8.340   2.720
24422WAT     H273509   7.063   8.357   2.584
24423WAT      O73510   0.198   3.911   7.754
24423WAT     H173511   0.107   3.871   7.763
24423WAT     H273512   0.258   3.875   7.825
24424WAT      O73513   0.778   3.180   1.028
24424WAT     H173514   0.870   3.190   0.990
24424WAT     H273515   0.754   3.083   1.031
24425WAT      O73516   5.916   1.706   0.498
24425WAT     H173517   6.002   1.702   0.549
24425WAT     H273518   5.912   1.629   0.435
24426WAT      O73519   1.083   2.687   7.176
24426WAT     H173520   1.009   2.620   7.182
24426WAT     H273521   1.048   2.778   7.199
24427WAT      O73522   2.581   8.336   0.141
24427WAT     H173523   2.494   8.365   0.101
24427WAT     H273524   2.629   8.276   0.077
24428WAT      O73525   3.426   6.385   5.894
24428WAT     H173526   3.338   6.410   5.853
24428WAT     H273527   3.476   6.326   5.830
24429WAT      O73528   7.966   8.088   9.030
24429WAT     H173529   7.912   8.163   9.069
24429WAT     H273530   7.968   8.097   8.931
24430WAT      O73531   2.527   3.738   5.081
24430WAT     H173532   2.509   3.658   5.023
24430WAT     H273533   2.619   3.733   5.118
24431WAT      O73534   8.317   2.555   5.825
24431WAT     H173535   8.331   2.462   5.860
24431WAT     H273536   8.388   2.615   5.863
24432WAT      O73537   6.637   5.281   5.129
24432WAT     H173538   6.630   5.208   5.198
24432WAT     H273539   6.613   5.244   5.039
24433WAT      O73540   0.092   5.400   3.237
24433WAT     H173541   0.105   5.499   3.240
24433WAT     H273542   0.101   5.362   3.329
24434WAT      O73543   3.417   6.409   0.442
24434WAT     H173544   3.515   6.389   0.439
24434WAT     H273545   3.387   6.443   0.353
24435WAT      O73546   0.861   6.275   7.262
24435WAT     H173547   0.942   6.241   7.214
24435WAT     H273548   0.835   6.211   7.334
24436WAT      O73549   7.828   8.442   0.029
24436WAT     H173550   7.797   8.368   0.089
24436WAT     H273551   7.794   8.425  -0.064
24437WAT      O73552   1.821   7.941   4.439
24437WAT     H173553   1.785   8.021   4.392
24437WAT     H273554   1.746   7.880   4.463
24438WAT      O73555   4.605   3.075   7.605
24438WAT     H173556   4.591   2.976   7.610
24438WAT     H273557   4.697   3.097   7.635
24439WAT      O73558   0.932   6.126   8.404
24439WAT     H173559   0.850   6.145   8.350
24439WAT     H273560   0.914   6.053   8.469
24440WAT      O73561   4.580   6.601   3.548
24440WAT     H173562   4.482   6.616   3.534
24440WAT     H273563   4.618   6.554   3.468
24441WAT      O73564   6.812   4.058   7.138
24441WAT     H173565   6.910   4.079   7.140
24441WAT     H273566   6.798   3.965   7.171
24442WAT      O73567   4.732   6.520   7.622
24442WAT     H173568   4.698   6.603   7.577
24442WAT     H273569   4.654   6.468   7.658
24443WAT      O73570   8.469   6.915   3.541
24443WAT     H173571   8.475   7.007   3.503
24443WAT     H273572   8.436   6.920   3.636
24444WAT      O73573   9.506   9.732   2.599
24444WAT     H173574   9.539   9.745   2.692
24444WAT     H273575   9.413   9.696   2.601
24445WAT      O73576   0.289   3.038   8.443
24445WAT     H173577   0.320   3.065   8.535
24445WAT     H273578   0.244   3.116   8.399
24446WAT      O73579   1.187   0.373   8.339
24446WAT     H173580   1.160   0.278   8.351
24446WAT     H273581   1.182   0.397   8.242
24447WAT      O73582   1.550   2.770   9.445
24447WAT     H173583   1.511   2.793   9.534
24447WAT     H273584   1.624   2.834   9.424
24448WAT      O73585   3.133   4.115   1.908
24448WAT     H173586   3.174   4.029   1.940
24448WAT     H273587   3.039   4.121   1.942
24449WAT      O73588   7.180   6.786   4.872
24449WAT     H173589   7.117   6.715   4.841
24449WAT     H273590   7.139   6.876   4.859
24450WAT      O73591   4.039   6.090   8.172
24450WAT     H173592   4.089   6.115   8.255
24450WAT     H273593   4.066   5.998   8.143
24451WAT      O73594   2.786   4.719   6.557
24451WAT     H173595   2.744   4.635   6.592
24451WAT     H273596   2.715   4.780   6.522
24452WAT      O73597   0.261   8.297   4.137
24452WAT     H173598   0.175   8.315   4.091
24452WAT     H273599   0.327   8.260   4.071
24453WAT      O73600   3.989   5.000   0.764
24453WAT     H173601   4.028   4.910   0.744
24453WAT     H273602   3.892   5.000   0.740
24454WAT      O73603   7.463   1.498   6.139
24454WAT     H173604   7.491   1.436   6.066
24454WAT     H273605   7.543   1.548   6.173
24455WAT      O73606   2.752   7.219   4.170
24455WAT     H173607   2.680   7.246   4.107
24455WAT     H273608   2.754   7.282   4.248
24456WAT      O73609   5.143   4.397   8.199
24456WAT     H173610   5.233   4.435   8.177
24456WAT     H273611   5.153   4.301   8.224
24457WAT      O73612   7.217   4.639   2.531
24457WAT     H173613   7.205   4.582   2.450
24457WAT     H273614   7.312   4.632   2.562
24458WAT      O73615   5.651   4.290   6.506
24458WAT     H173616   5.634   4.388   6.517
24458WAT     H273617   5.585   4.238   6.561
24459WAT      O73618   8.361   5.187   6.473
24459WAT     H173619   8.431   5.119   6.496
24459WAT     H273620   8.271   5.152   6.497
24460WAT      O73621   9.060   3.396   9.629
24460WAT     H173622   8.985   3.454   9.598
24460WAT     H273623   9.128   3.389   9.557
24461WAT      O73624   2.649   6.909   4.869
24461WAT     H173625   2.716   6.983   4.871
24461WAT     H273626   2.578   6.931   4.802
24462WAT      O73627   5.442   0.731   5.556
24462WAT     H173628   5.406   0.802   5.495
24462WAT     H273629   5.516   0.769   5.611
24463WAT      O73630   0.314   9.765   3.111
24463WAT     H173631   0.241   9.750   3.044
24463WAT     H273632   0.307   9.857   3.149
24464WAT      O73633   3.846   1.385   9.808
24464WAT     H173634   3.840   1.353   9.903
24464WAT     H273635   3.909   1.327   9.757
24465WAT      O73636   8.999   6.856   3.006
24465WAT     H173637   8.947   6.772   2.991
24465WAT     H273638   8.940   6.922   3.053
24466WAT      O73639   1.743   8.025   7.789
24466WAT     H173640   1.698   8.105   7.749
24466WAT     H273641   1.684   7.986   7.860
24467WAT      O73642   0.713   4.417   2.318
24467WAT     H173643   0.650   4.365   2.376
24467WAT     H273644   0.707   4.384   2.224
24468WAT      O73645   1.310   0.418   6.268
24468WAT     H173646   1.234   0.364   6.232
24468WAT     H273647   1.275   0.502   6.310
24469WAT      O73648   5.270   5.163   0.909
24469WAT     H173649   5.362   5.201   0.906
24469WAT     H273650   5.271   5.071   0.869
24470WAT      O73651   7.040   3.991   6.772
24470WAT     H173652   7.079   3.973   6.682
24470WAT     H273653   6.966   4.058   6.763
24471WAT      O73654   8.427   9.590   1.659
24471WAT     H173655   8.509   9.535   1.644
24471WAT     H273656   8.370   9.545   1.727
24472WAT      O73657   6.621   9.765   6.627
24472WAT     H173658   6.638   9.854   6.583
24472WAT     H273659   6.532   9.767   6.672
24473WAT      O73660   2.095   2.511   0.039
24473WAT     H173661   2.040   2.579   0.088
24473WAT     H273662   2.071   2.419   0.071
24474WAT      O73663   2.497   9.765   2.625
24474WAT     H173664   2.451   9.789   2.540
24474WAT     H273665   2.573   9.702   2.606
24475WAT      O73666   0.637   3.989   0.063
24475WAT     H173667   0.688   4.017  -0.018
24475WAT     H273668   0.696   3.932   0.121
24476WAT      O73669   8.047   2.168   7.803
24476WAT     H173670   7.958   2.180   7.846
24476WAT     H273671   8.047   2.083   7.750
24477WAT      O73672   7.808   7.246   4.154
24477WAT     H173673   7.745   7.170   4.134
24477WAT     H273674   7.886   7.242   4.092
24478WAT      O73675   1.260   7.481   8.978
24478WAT     H173676   1.229   7.448   8.889
24478WAT     H273677   1.206   7.561   9.005
24479WAT      O73678   7.081   3.340   0.828
24479WAT     H173679   7.076   3.437   0.852
24479WAT     H273680   7.067   3.329   0.729
24480WAT      O73681   8.975   5.440   2.560
24480WAT     H173682   9.013   5.459   2.469
24480WAT     H273683   8.973   5.341   2.575
24481WAT      O73684   3.413   4.431   6.853
24481WAT     H173685   3.414   4.531   6.846
24481WAT     H273686   3.401   4.391   6.762
24482WAT      O73687   6.259   5.200   5.117
24482WAT     H173688   6.206   5.118   5.133
24482WAT     H273689   6.306   5.194   5.029
24483WAT      O73690   5.517   7.416   3.125
24483WAT     H173691   5.574   7.392   3.204
24483WAT     H273692   5.573   7.462   3.056
24484WAT      O73693   1.886   6.291   2.927
24484WAT     H173694   1.839   6.271   3.013
24484WAT     H273695   1.863   6.222   2.859
24485WAT      O73696   7.587   7.279   9.582
24485WAT     H173697   7.651   7.354   9.563
24485WAT     H273698   7.610   7.201   9.523
24486WAT      O73699   2.206   9.814   3.927
24486WAT     H173700   2.258   9.743   3.974
24486WAT     H273701   2.118   9.776   3.897
24487WAT      O73702   4.169   7.048   5.245
24487WAT     H173703   4.088   7.101   5.220
24487WAT     H273704   4.190   6.984   5.172
24488WAT      O73705   7.651   0.439   4.727
24488WAT     H173706   7.644   0.539   4.737
24488WAT     H273707   7.661   0.397   4.817
24489WAT      O73708   9.690   1.474   5.270
24489WAT     H173709   9.757   1.406   5.240
24489WAT     H273710   9.686   1.476   5.370
24490WAT      O73711   3.644   4.006   2.517
24490WAT     H173712   3.702   3.941   2.467
24490WAT     H273713   3.699   4.085   2.544
24491WAT      O73714   0.744   9.221   2.170
24491WAT     H173715   0.779   9.258   2.084
24491WAT     H273716   0.750   9.121   2.168
24492WAT      O73717   4.318   1.954   8.267
24492WAT     H173718   4.391   1.945   8.199
24492WAT     H273719   4.229   1.942   8.223
24493WAT      O73720   7.151   3.220   8.106
24493WAT     H173721   7.091   3.242   8.030
24493WAT     H273722   7.104   3.238   8.192
24494WAT      O73723   0.279   6.137   9.431
24494WAT     H173724   0.209   6.194   9.474
24494WAT     H273725   0.276   6.045   9.470
24495WAT      O73726   6.778   0.603   0.575
24495WAT     H173727   6.751   0.507   0.560
24495WAT     H273728   6.702   0.652   0.617
24496WAT      O73729   7.106   3.331   6.171
24496WAT     H173730   7.022   3.320   6.224
24496WAT     H273731   7.156   3.245   6.171
24497WAT      O73732   0.463   6.998   2.653
24497WAT     H173733   0.418   6.957   2.575
24497WAT     H273734   0.543   6.943   2.678
24498WAT      O73735   1.124   0.819   1.814
24498WAT     H173736   1.155   0.782   1.726
24498WAT     H273737   1.024   0.822   1.815
24499WAT      O73738   5.840   0.928   6.263
24499WAT     H173739   5.778   0.884   6.328
24499WAT     H273740   5.811   1.023   6.249
24500WAT      O73741   5.319   3.377   2.317
24500WAT     H173742   5.339   3.279   2.312
24500WAT     H273743   5.282   3.399   2.408
24501WAT      O73744   3.722   3.756   9.023
24501WAT     H173745   3.806   3.716   8.987
24501WAT     H273746   3.691   3.703   9.102
24502WAT      O73747   3.296   6.788   0.196
24502WAT     H173748   3.305   6.878   0.153
24502WAT     H273749   3.199   6.761   0.197
24503WAT      O73750   9.242   4.084   9.439
24503WAT     H173751   9.333   4.063   9.404
24503WAT     H273752   9.232   4.047   9.531
24504WAT      O73753   5.313   7.068   0.780
24504WAT     H173754   5.387   7.088   0.845
24504WAT     H273755   5.263   6.987   0.809
24505WAT      O73756   5.636   1.769   1.093
24505WAT     H173757   5.721   1.769   1.041
24505WAT     H273758   5.618   1.860   1.129
24506WAT      O73759   0.405   2.048   3.017
24506WAT     H173760   0.377   1.979   3.084
24506WAT     H273761   0.356   2.133   3.036
24507WAT      O73762   7.356   7.707   5.704
24507WAT     H173763   7.447   7.732   5.737
24507WAT     H273764   7.288   7.726   5.776
24508WAT      O73765   3.717   0.897   3.286
24508WAT     H173766   3.620   0.872   3.283
24508WAT     H273767   3.752   0.903   3.192
24509WAT      O73768   2.084   6.159   6.059
24509WAT     H173769   2.013   6.132   5.994
24509WAT     H273770   2.097   6.087   6.127
24510WAT      O73771   1.946   3.852   6.295
24510WAT     H173772   1.868   3.800   6.259
24510WAT     H273773   2.020   3.853   6.228
24511WAT      O73774   3.555   6.469   1.983
24511WAT     H173775   3.602   6.503   2.064
24511WAT     H273776   3.598   6.384   1.953
24512WAT      O73777   5.177   8.605   5.661
24512WAT     H173778   5.103   8.550   5.623
24512WAT     H273779   5.249   8.615   5.593
24513WAT      O73780   1.951   4.626   1.429
24513WAT     H173781   1.955   4.695   1.357
24513WAT     H273782   1.857   4.596   1.442
24514WAT      O73783   4.626   9.608   6.582
24514WAT     H173784   4.635   9.665   6.663
24514WAT     H273785   4.616   9.667   6.501
24515WAT      O73786   2.920   6.950   4.501
24515WAT     H173787   2.970   7.007   4.566
24515WAT     H273788   2.825   6.981   4.495
24516WAT      O73789   8.023   3.344   5.007
24516WAT     H173790   7.936   3.385   4.979
24516WAT     H273791   8.097   3.384   4.954
24517WAT      O73792   0.432   0.469   4.894
24517WAT     H173793   0.461   0.396   4.956
24517WAT     H273794   0.357   0.437   4.836
24518WAT      O73795   8.164   3.858   9.201
24518WAT     H173796   8.262   3.866   9.219
24518WAT     H273797   8.149   3.850   9.103
24519WAT      O73798   0.440   3.851   1.905
24519WAT     H173799   0.455   3.841   1.807
24519WAT     H273800   0.363   3.794   1.933
24520WAT      O73801   1.622   4.594   7.975
24520WAT     H173802   1.685   4.653   8.025
24520WAT     H273803   1.671   4.552   7.898
24521WAT      O73804   0.876   3.652   8.061
24521WAT     H173805   0.945   3.696   8.119
24521WAT     H273806   0.794   3.632   8.115
24522WAT      O73807   6.062   6.891   7.929
24522WAT     H173808   6.111   6.826   7.871
24522WAT     H273809   5.987   6.844   7.976
24523WAT      O73810   5.574   8.658   0.982
24523WAT     H173811   5.591   8.731   1.049
24523WAT     H273812   5.662   8.625   0.946
24524WAT      O73813   8.919   4.095   5.043
24524WAT     H173814   8.904   4.150   5.125
24524WAT     H273815   8.832   4.085   4.994
24525WAT      O73816   4.350   0.139   2.024
24525WAT     H173817   4.325   0.044   2.040
24525WAT     H273818   4.269   0.197   2.031
24526WAT      O73819   2.977   3.758   4.886
24526WAT     H173820   3.028   3.741   4.802
24526WAT     H273821   2.978   3.676   4.943
24527WAT      O73822   8.799   6.862   9.799
24527WAT     H173823   8.760   6.942   9.844
24527WAT     H273824   8.742   6.782   9.816
24528WAT      O73825   4.835   4.453   2.698
24528WAT     H173826   4.923   4.486   2.731
24528WAT     H273827   4.823   4.358   2.724
24529WAT      O73828   2.076   8.108   5.759
24529WAT     H173829   2.100   8.145   5.848
24529WAT     H273830   2.043   8.013   5.769
24530WAT      O73831   8.604   8.934   1.671
24530WAT     H173832   8.567   8.857   1.724
24530WAT     H273833   8.686   8.903   1.622
24531WAT      O73834   7.769   2.005   9.175
24531WAT     H173835   7.798   1.933   9.239
24531WAT     H273836   7.750   2.089   9.227
24532WAT      O73837   3.569   0.540   6.777
24532WAT     H173838   3.643   0.564   6.715
24532WAT     H273839   3.607   0.513   6.865
24533WAT      O73840   7.622   9.025   6.938
24533WAT     H173841   7.720   9.039   6.925
24533WAT     H273842   7.599   9.044   7.034
24534WAT      O73843   7.791   7.688   8.887
24534WAT     H173844   7.870   7.697   8.827
24534WAT     H273845   7.791   7.762   8.954
24535WAT      O73846   5.250   8.658   2.342
24535WAT     H173847   5.192   8.733   2.376
24535WAT     H273848   5.346   8.684   2.348
24536WAT      O73849   6.461   9.832   6.007
24536WAT     H173850   6.463   9.779   5.923
24536WAT     H273851   6.398   9.909   5.997
24537WAT      O73852   3.156   6.355   0.929
24537WAT     H173853   3.113   6.369   1.018
24537WAT     H273854   3.231   6.420   0.918
24538WAT      O73855   6.768   5.771   4.038
24538WAT     H173856   6.679   5.727   4.050
24538WAT     H273857   6.840   5.711   4.073
24539WAT      O73858   8.213   8.529   4.099
24539WAT     H173859   8.210   8.476   4.183
24539WAT     H273860   8.171   8.618   4.114
24540WAT      O73861   9.494   3.410   1.569
24540WAT     H173862   9.402   3.413   1.609
24540WAT     H273863   9.560   3.442   1.637
24541WAT      O73864   1.233   2.099   2.911
24541WAT     H173865   1.248   2.069   3.006
24541WAT     H273866   1.199   2.021   2.857
24542WAT      O73867   0.490   1.730   7.645
24542WAT     H173868   0.511   1.715   7.741
24542WAT     H273869   0.391   1.742   7.634
24543WAT      O73870   8.729   5.409   4.032
24543WAT     H173871   8.711   5.492   3.979
24543WAT     H273872   8.721   5.329   3.974
24544WAT      O73873   9.578   2.151   7.272
24544WAT     H173874   9.654   2.171   7.210
24544WAT     H273875   9.611   2.153   7.367
24545WAT      O73876   4.570   0.154   8.216
24545WAT     H173877   4.655   0.155   8.270
24545WAT     H273878   4.492   0.165   8.277
24546WAT      O73879   9.038   6.733   1.803
24546WAT     H173880   9.121   6.677   1.810
24546WAT     H273881   8.970   6.700   1.868
24547WAT      O73882   8.522   3.533   8.475
24547WAT     H173883   8.594   3.545   8.544
24547WAT     H273884   8.472   3.449   8.493
24548WAT      O73885   1.057   2.238   9.004
24548WAT     H173886   0.992   2.249   9.079
24548WAT     H273887   1.111   2.322   8.995
24549WAT      O73888   8.485   1.940   4.368
24549WAT     H173889   8.515   1.845   4.377
24549WAT     H273890   8.417   1.947   4.295
24550WAT      O73891   5.104   4.646   7.626
24550WAT     H173892   5.064   4.557   7.645
24550WAT     H273893   5.175   4.667   7.695
24551WAT      O73894   8.128   4.419   2.224
24551WAT     H173895   8.053   4.471   2.266
24551WAT     H273896   8.109   4.407   2.126
24552WAT      O73897   2.756   1.999   3.636
24552WAT     H173898   2.757   2.070   3.565
24552WAT     H273899   2.776   1.910   3.595
24553WAT      O73900   7.849   1.487   4.376
24553WAT     H173901   7.821   1.392   4.384
24553WAT     H273902   7.904   1.512   4.456
24554WAT      O73903   1.207   0.134   8.050
24554WAT     H173904   1.305   0.145   8.062
24554WAT     H273905   1.176   0.051   8.096
24555WAT      O73906   5.844   0.717   1.850
24555WAT     H173907   5.803   0.688   1.764
24555WAT     H273908   5.919   0.655   1.874
24556WAT      O73909   5.745   8.427   6.201
24556WAT     H173910   5.694   8.496   6.251
24556WAT     H273911   5.684   8.378   6.139
24557WAT      O73912   4.385   7.295   7.949
24557WAT     H173913   4.318   7.313   8.022
24557WAT     H273914   4.448   7.223   7.979
24558WAT      O73915   8.830   0.021   2.012
24558WAT     H173916   8.780  -0.040   1.951
24558WAT     H273917   8.855   0.104   1.962
24559WAT      O73918   9.701   5.071   5.490
24559WAT     H173919   9.676   5.007   5.563
24559WAT     H273920   9.756   5.024   5.421
24560WAT      O73921   8.952   1.916   2.384
24560WAT     H173922   9.032   1.859   2.404
24560WAT     H273923   8.869   1.869   2.413
24561WAT      O73924   1.859   9.660   9.854
24561WAT     H173925   1.934   9.644   9.919
24561WAT     H273926   1.825   9.753   9.863
24562WAT      O73927   1.195   8.019   4.097
24562WAT     H173928   1.160   7.951   4.163
24562WAT     H273929   1.227   8.100   4.147
24563WAT      O73930   0.803   8.451   5.866
24563WAT     H173931   0.860   8.416   5.792
24563WAT     H273932   0.859   8.505   5.928
24564WAT      O73933   1.841   4.565   8.523
24564WAT     H173934   1.852   4.598   8.617
24564WAT     H273935   1.749   4.527   8.512
24565WAT      O73936   7.440   2.074   9.267
24565WAT     H173937   7.436   2.172   9.289
24565WAT     H273938   7.471   2.062   9.173
24566WAT      O73939   4.089   2.490   6.131
24566WAT     H173940   4.101   2.436   6.048
24566WAT     H273941   4.143   2.450   6.205
24567WAT      O73942   9.556   2.251   9.566
24567WAT     H173943   9.609   2.169   9.545
24567WAT     H273944   9.617   2.326   9.590
24568WAT      O73945   1.208   0.543   5.844
24568WAT     H173946   1.249   0.589   5.923
24568WAT     H273947   1.158   0.462   5.876
24569WAT      O73948   9.039   2.412   6.391
24569WAT     H173949   9.124   2.365   6.366
24569WAT     H273950   9.060   2.493   6.447
24570WAT      O73951   7.746   7.627   6.887
24570WAT     H173952   7.719   7.539   6.849
24570WAT     H273953   7.840   7.648   6.860
24571WAT      O73954   8.881   9.490   1.033
24571WAT     H173955   8.852   9.422   0.965
24571WAT     H273956   8.949   9.551   0.993
24572WAT      O73957   8.085   8.332   3.930
24572WAT     H173958   8.155   8.392   3.969
24572WAT     H273959   8.072   8.253   3.989
24573WAT      O73960   2.729   2.800   7.991
24573WAT     H173961   2.684   2.877   8.035
24573WAT     H273962   2.662   2.745   7.942
24574WAT      O73963   4.660   6.351   2.949
24574WAT     H173964   4.612   6.266   2.967
24574WAT     H273965   4.603   6.428   2.978
24575WAT      O73966   4.202   5.805   9.263
24575WAT     H173967   4.188   5.748   9.344
24575WAT     H273968   4.194   5.748   9.181
24576WAT      O73969   6.300   7.457   5.088
24576WAT     H173970   6.376   7.391   5.093
24576WAT     H273971   6.217   7.415   5.125
24577WAT      O73972   1.732   2.668   4.175
24577WAT     H173973   1.792   2.626   4.243
24577WAT     H273974   1.705   2.599   4.108
24578WAT      O73975   1.983   2.270   4.238
24578WAT     H173976   1.980   2.182   4.189
24578WAT     H273977   2.076   2.285   4.273
24579WAT      O73978   5.557   0.186   8.400
24579WAT     H173979   5.648   0.226   8.391
24579WAT     H273980   5.527   0.152   8.311
24580WAT      O73981   2.811   1.313   4.010
24580WAT     H173982   2.797   1.391   4.071
24580WAT     H273983   2.813   1.228   4.063
24581WAT      O73984   8.905   3.392   7.291
24581WAT     H173985   8.958   3.430   7.215
24581WAT     H273986   8.962   3.387   7.373
24582WAT      O73987   0.559   2.686   5.085
24582WAT     H173988   0.516   2.653   5.001
24582WAT     H273989   0.612   2.769   5.065
24583WAT      O73990   6.388   4.730   6.553
24583WAT     H173991   6.333   4.805   6.515
24583WAT     H273992   6.386   4.653   6.490
24584WAT      O73993   8.705   3.550   7.358
24584WAT     H173994   8.792   3.501   7.357
24584WAT     H273995   8.719   3.643   7.392
24585WAT      O73996   1.782   6.500   2.787
24585WAT     H173997   1.705   6.453   2.744
24585WAT     H273998   1.849   6.432   2.820
24586WAT      O73999   6.284   0.330   9.556
24586WAT     H174000   6.373   0.289   9.571
24586WAT     H274001   6.296   0.417   9.507
24587WAT      O74002   5.714   5.684   6.351
24587WAT     H174003   5.618   5.657   6.350
24587WAT     H274004   5.771   5.606   6.377
24588WAT      O74005   3.263   0.558   1.775
24588WAT     H174006   3.332   0.604   1.831
24588WAT     H274007   3.195   0.516   1.835
24589WAT      O74008   5.473   8.949   2.729
24589WAT     H174009   5.533   9.008   2.783
24589WAT     H274010   5.506   8.944   2.635
24590WAT      O74011   7.601   1.455   0.202
24590WAT     H174012   7.512   1.486   0.167
24590WAT     H274013   7.587   1.383   0.269
24591WAT      O74014   8.663   7.773   0.218
24591WAT     H174015   8.576   7.727   0.240
24591WAT     H274016   8.651   7.825   0.133
24592WAT      O74017   9.173   3.863   3.437
24592WAT     H174018   9.135   3.774   3.462
24592WAT     H274019   9.201   3.912   3.519
24593WAT      O74020   3.358   4.497   9.111
24593WAT     H174021   3.294   4.441   9.058
24593WAT     H274022   3.313   4.529   9.195
24594WAT      O74023   9.696   3.119   3.169
24594WAT     H174024   9.678   3.068   3.086
24594WAT     H274025   9.618   3.112   3.231
24595WAT      O74026   2.317   0.074   8.864
24595WAT     H174027   2.355   0.135   8.933
24595WAT     H274028   2.388   0.051   8.798
24596WAT      O74029   3.199   6.412   4.066
24596WAT     H174030   3.241   6.425   3.976
24596WAT     H274031   3.195   6.499   4.114
24597WAT      O74032   4.425   1.403   6.927
24597WAT     H174033   4.518   1.409   6.963
24597WAT     H274034   4.420   1.329   6.859
24598WAT      O74035   2.668  -0.005   7.274
24598WAT     H174036   2.576   0.016   7.243
24598WAT     H274037   2.727   0.075   7.262
24599WAT      O74038   2.524   2.264   3.659
24599WAT     H174039   2.440   2.225   3.621
24599WAT     H274040   2.539   2.228   3.751
24600WAT      O74041   7.123   4.398   5.019
24600WAT     H174042   7.206   4.349   4.991
24600WAT     H274043   7.121   4.487   4.974
24601WAT      O74044   5.690   1.894   7.060
24601WAT     H174045   5.785   1.878   7.035
24601WAT     H274046   5.670   1.847   7.146
24602WAT      O74047   1.215   2.099   6.531
24602WAT     H174048   1.250   2.178   6.481
24602WAT     H274049   1.278   2.075   6.605
24603WAT      O74050   1.211   7.808   2.516
24603WAT     H174051   1.225   7.892   2.570
24603WAT     H274052   1.219   7.829   2.419
24604WAT      O74053   6.900   3.740   0.553
24604WAT     H174054   6.931   3.707   0.642
24604WAT     H274055   6.978   3.753   0.492
24605WAT      O74056   0.261   3.182   3.406
24605WAT     H174057   0.176   3.133   3.392
24605WAT     H274058   0.256   3.272   3.364
24606WAT      O74059   7.824   7.303   3.052
24606WAT     H174060   7.786   7.248   3.127
24606WAT     H274061   7.795   7.398   3.062
24607WAT      O74062   9.150   5.227   7.151
24607WAT     H174063   9.129   5.316   7.109
24607WAT     H274064   9.088   5.211   7.228
24608WAT      O74065   6.231   1.565   6.766
24608WAT     H174066   6.141   1.571   6.724
24608WAT     H274067   6.280   1.652   6.752
24609WAT      O74068   3.930   4.075   9.801
24609WAT     H174069   3.836   4.043   9.805
24609WAT     H274070   3.965   4.063   9.707
24610WAT      O74071   5.111   9.175   9.074
24610WAT     H174072   5.168   9.163   9.156
24610WAT     H274073   5.124   9.267   9.038
24611WAT      O74074   3.419   1.585   4.091
24611WAT     H174075   3.489   1.583   4.019
24611WAT     H274076   3.343   1.527   4.064
24612WAT      O74077   5.454   0.012   2.283
24612WAT     H174078   5.367  -0.022   2.248
24612WAT     H274079   5.440   0.054   2.373
24613WAT      O74080   3.943   3.585   8.973
24613WAT     H174081   4.017   3.619   9.031
24613WAT     H274082   3.981   3.542   8.891
24614WAT      O74083   9.198   6.245   0.544
24614WAT     H174084   9.293   6.218   0.531
24614WAT     H274085   9.189   6.294   0.631
24615WAT      O74086   6.335   5.055   7.410
24615WAT     H174087   6.333   5.065   7.509
24615WAT     H274088   6.429   5.037   7.380
24616WAT      O74089   5.965   0.657   8.374
24616WAT     H174090   5.983   0.750   8.341
24616WAT     H274091   5.975   0.593   8.299
24617WAT      O74092   4.217   3.696   9.602
24617WAT     H174093   4.127   3.666   9.635
24617WAT     H274094   4.252   3.630   9.536
24618WAT      O74095   0.238   9.406   9.290
24618WAT     H174096   0.138   9.405   9.290
24618WAT     H274097   0.271   9.462   9.214
24619WAT      O74098   7.504   3.227   6.339
24619WAT     H174099   7.504   3.306   6.400
24619WAT     H274100   7.454   3.152   6.382
24620WAT      O74101   8.653   1.936   1.496
24620WAT     H174102   8.699   1.858   1.453
24620WAT     H274103   8.664   2.017   1.439
24621WAT      O74104   4.061   5.427   1.189
24621WAT     H174105   3.984   5.426   1.254
24621WAT     H274106   4.034   5.476   1.107
24622WAT      O74107   8.363   5.636   5.800
24622WAT     H174108   8.431   5.681   5.858
24622WAT     H274109   8.343   5.693   5.721
24623WAT      O74110   2.563   9.222   0.486
24623WAT     H174111   2.469   9.252   0.467
24623WAT     H274112   2.596   9.167   0.409
24624WAT      O74113   4.220   5.974   1.188
24624WAT     H174114   4.288   6.031   1.234
24624WAT     H274115   4.252   5.879   1.189
24625WAT      O74116   7.013   6.188   3.800
24625WAT     H174117   7.022   6.212   3.703
24625WAT     H274118   6.921   6.154   3.817
24626WAT      O74119   8.487   2.559   6.919
24626WAT     H174120   8.452   2.614   6.843
24626WAT     H274121   8.562   2.501   6.887
24627WAT      O74122   8.480   4.688   6.111
24627WAT     H174123   8.485   4.693   6.211
24627WAT     H274124   8.549   4.624   6.077
24628WAT      O74125   5.076   2.585   4.602
24628WAT     H174126   5.039   2.573   4.694
24628WAT     H274127   5.025   2.657   4.555
24629WAT      O74128   8.533   0.057   2.708
24629WAT     H174129   8.521  -0.003   2.629
24629WAT     H274130   8.556   0.002   2.788
24630WAT      O74131   0.461   3.797   0.062
24630WAT     H174132   0.416   3.798   0.151
24630WAT     H274133   0.523   3.875   0.055
24631WAT      O74134   4.812   0.823   1.406
24631WAT     H174135   4.808   0.918   1.378
24631WAT     H274136   4.807   0.764   1.326
24632WAT      O74137   5.702   6.408   1.402
24632WAT     H174138   5.658   6.365   1.481
24632WAT     H274139   5.678   6.505   1.400
24633WAT      O74140   6.561   3.946   4.029
24633WAT     H174141   6.594   3.904   3.944
24633WAT     H274142   6.633   4.002   4.069
24634WAT      O74143   0.278   5.045   7.441
24634WAT     H174144   0.369   5.006   7.429
24634WAT     H274145   0.285   5.132   7.490
24635WAT      O74146   4.579   3.074   1.001
24635WAT     H174147   4.616   3.025   0.922
24635WAT     H274148   4.522   3.150   0.970
24636WAT      O74149   2.179   9.277   6.276
24636WAT     H174150   2.176   9.366   6.321
24636WAT     H274151   2.133   9.209   6.332
24637WAT      O74152   0.855   0.273   0.786
24637WAT     H174153   0.840   0.253   0.690
24637WAT     H274154   0.822   0.197   0.842
24638WAT      O74155   9.536   7.218   4.011
24638WAT     H174156   9.532   7.134   3.956
24638WAT     H274157   9.547   7.296   3.950
24639WAT      O74158   5.211   1.026   6.749
24639WAT     H174159   5.141   1.083   6.706
24639WAT     H274160   5.183   0.930   6.744
24640WAT      O74161   4.731   8.188   2.955
24640WAT     H174162   4.787   8.117   2.912
24640WAT     H274163   4.635   8.174   2.930
24641WAT      O74164   7.340   4.434   1.777
24641WAT     H174165   7.401   4.411   1.852
24641WAT     H274166   7.361   4.377   1.698
24642WAT      O74167   7.543   9.299   1.079
24642WAT     H174168   7.461   9.243   1.068
24642WAT     H274169   7.518   9.389   1.114
24643WAT      O74170   2.548   7.644   2.759
24643WAT     H174171   2.479   7.582   2.721
24643WAT     H274172   2.551   7.728   2.705
24644WAT      O74173   8.529   9.344   5.100
24644WAT     H174174   8.599   9.336   5.029
24644WAT     H274175   8.439   9.331   5.058
24645WAT      O74176   3.159   3.922   6.011
24645WAT     H174177   3.158   3.822   6.001
24645WAT     H274178   3.244   3.949   6.056
24646WAT      O74179   6.182   8.869   5.100
24646WAT     H174180   6.091   8.880   5.059
24646WAT     H274181   6.252   8.891   5.032
24647WAT      O74182   0.775   5.516   1.133
24647WAT     H174183   0.769   5.502   1.232
24647WAT     H274184   0.799   5.611   1.114
24648WAT      O74185   2.794   8.912   4.145
24648WAT     H174186   2.700   8.886   4.125
24648WAT     H274187   2.817   8.887   4.239
24649WAT      O74188   6.320   7.970   6.868
24649WAT     H174189   6.331   7.939   6.962
24649WAT     H274190   6.407   8.008   6.835
24650WAT      O74191   7.398   3.788   5.131
24650WAT     H174192   7.315   3.791   5.076
24650WAT     H274193   7.377   3.756   5.223
24651WAT      O74194   8.727   0.646   9.857
24651WAT     H174195   8.759   0.623   9.765
24651WAT     H274196   8.806   0.657   9.918
24652WAT      O74197   6.905   4.674   8.811
24652WAT     H174198   6.962   4.594   8.791
24652WAT     H274199   6.962   4.756   8.814
24653WAT      O74200   5.588   3.681   9.033
24653WAT     H174201   5.532   3.622   8.974
24653WAT     H274202   5.680   3.690   8.994
24654WAT      O74203   1.786   2.655   0.459
24654WAT     H174204   1.749   2.657   0.552
24654WAT     H274205   1.717   2.690   0.395
24655WAT      O74206   3.590   2.912   2.635
24655WAT     H174207   3.687   2.936   2.632
24655WAT     H274208   3.580   2.815   2.658
24656WAT      O74209   1.883   4.429   8.206
24656WAT     H174210   1.841   4.518   8.190
24656WAT     H274211   1.949   4.436   8.281
24657WAT      O74212   2.670   1.335   5.745
24657WAT     H174213   2.657   1.380   5.833
24657WAT     H274214   2.633   1.242   5.749
24658WAT      O74215   0.680   6.709   5.701
24658WAT     H174216   0.656   6.800   5.667
24658WAT     H274217   0.683   6.645   5.624
24659WAT      O74218   2.100   5.578   4.326
24659WAT     H174219   2.086   5.588   4.425
24659WAT     H274220   2.068   5.660   4.279
24660WAT      O74221   6.874   0.100   9.470
24660WAT     H174222   6.893   0.198   9.477
24660WAT     H274223   6.778   0.084   9.494
24661WAT      O74224   8.966   7.534   8.931
24661WAT     H174225   9.050   7.562   8.884
24661WAT     H274226   8.887   7.552   8.872
24662WAT      O74227   2.769   4.420   4.744
24662WAT     H174228   2.838   4.460   4.805
24662WAT     H274229   2.686   4.400   4.796
24663WAT      O74230   6.560   2.749   0.949
24663WAT     H174231   6.528   2.803   1.028
24663WAT     H274232   6.531   2.654   0.960
24664WAT      O74233   0.250   5.862   9.859
24664WAT     H174234   0.300   5.811   9.789
24664WAT     H274235   0.161   5.818   9.875
24665WAT      O74236   8.369   2.060   3.802
24665WAT     H174237   8.468   2.058   3.798
24665WAT     H274238   8.337   2.155   3.804
24666WAT      O74239   7.327   6.816   3.485
24666WAT     H174240   7.414   6.788   3.525
24666WAT     H274241   7.330   6.913   3.463
24667WAT      O74242   7.193   3.046   8.944
24667WAT     H174243   7.162   2.951   8.935
24667WAT     H274244   7.203   3.068   9.041
24668WAT      O74245   3.781   1.686   9.307
24668WAT     H174246   3.713   1.678   9.234
24668WAT     H274247   3.737   1.711   9.392
24669WAT      O74248   3.878   2.687   3.074
24669WAT     H174249   3.919   2.609   3.027
24669WAT     H274250   3.947   2.733   3.130
24670WAT      O74251   3.331   5.367   0.966
24670WAT     H174252   3.260   5.409   0.910
24670WAT     H274253   3.315   5.268   0.972
24671WAT      O74254   2.714   4.125   5.367
24671WAT     H174255   2.645   4.124   5.439
24671WAT     H274256   2.696   4.201   5.305
24672WAT      O74257   8.351   1.715   1.859
24672WAT     H174258   8.431   1.729   1.801
24672WAT     H274259   8.355   1.777   1.938
24673WAT      O74260   9.221   6.907   1.179
24673WAT     H174261   9.285   6.831   1.184
24673WAT     H274262   9.216   6.952   1.268
24674WAT      O74263   3.365   8.170   1.575
24674WAT     H174264   3.271   8.152   1.605
24674WAT     H274265   3.425   8.176   1.655
24675WAT      O74266   9.309   9.469   2.270
24675WAT     H174267   9.381   9.446   2.203
24675WAT     H274268   9.305   9.568   2.281
24676WAT      O74269   9.829   4.226   7.552
24676WAT     H174270   9.749   4.178   7.516
24676WAT     H274271   9.871   4.171   7.625
24677WAT      O74272   7.675   1.618   8.103
24677WAT     H174273   7.672   1.650   8.008
24677WAT     H274274   7.680   1.697   8.164
24678WAT      O74275   5.269   3.838   6.254
24678WAT     H174276   5.235   3.750   6.218
24678WAT     H274277   5.192   3.896   6.278
24679WAT      O74278   7.617   0.702   4.746
24679WAT     H174279   7.598   0.744   4.835
24679WAT     H274280   7.701   0.740   4.708
24680WAT      O74281   5.909   3.905   6.656
24680WAT     H174282   5.826   3.919   6.603
24680WAT     H274283   5.924   3.984   6.716
24681WAT      O74284   8.022   5.735   8.783
24681WAT     H174285   8.074   5.819   8.796
24681WAT     H274286   7.984   5.705   8.871
24682WAT      O74287   3.310   8.575   1.355
24682WAT     H174288   3.383   8.557   1.422
24682WAT     H274289   3.225   8.596   1.403
24683WAT      O74290   4.881   4.191   1.762
24683WAT     H174291   4.833   4.265   1.809
24683WAT     H274292   4.964   4.227   1.719
24684WAT      O74293   6.855   9.658   6.084
24684WAT     H174294   6.945   9.674   6.126
24684WAT     H274295   6.791   9.626   6.154
24685WAT      O74296   9.183   6.385   8.267
24685WAT     H174297   9.188   6.293   8.228
24685WAT     H274298   9.217   6.383   8.361
24686WAT      O74299   9.816   3.353   5.714
24686WAT     H174300   9.848   3.442   5.682
24686WAT     H274301   9.718   3.359   5.737
24687WAT      O74302   1.839   7.113   4.543
24687WAT     H174303   1.797   7.188   4.493
24687WAT     H274304   1.933   7.137   4.566
24688WAT      O74305   4.087   2.002   5.648
24688WAT     H174306   4.119   1.929   5.588
24688WAT     H274307   3.987   2.002   5.651
24689WAT      O74308   7.947   4.339   6.812
24689WAT     H174309   7.947   4.287   6.726
24689WAT     H274310   7.859   4.385   6.823
24690WAT      O74311   5.465   2.318   5.634
24690WAT     H174312   5.564   2.319   5.616
24690WAT     H274313   5.421   2.251   5.574
24691WAT      O74314   9.389   8.209   2.614
24691WAT     H174315   9.308   8.188   2.560
24691WAT     H274316   9.456   8.135   2.604
24692WAT      O74317   2.965   8.494   7.925
24692WAT     H174318   2.945   8.508   7.828
24692WAT     H274319   2.943   8.399   7.950
24693WAT      O74320   9.115   4.106   2.499
24693WAT     H174321   9.094   4.145   2.589
24693WAT     H274322   9.187   4.160   2.455
24694WAT      O74323   0.907   7.473   9.250
24694WAT     H174324   0.975   7.399   9.241
24694WAT     H274325   0.818   7.440   9.219
24695WAT      O74326   0.274   7.692   6.917
24695WAT     H174327   0.206   7.762   6.941
24695WAT     H274328   0.289   7.633   6.997
24696WAT      O74329   1.998   8.835   2.952
24696WAT     H174330   2.092   8.818   2.982
24696WAT     H274331   1.998   8.895   2.872
24697WAT      O74332   5.742   1.446   5.427
24697WAT     H174333   5.753   1.467   5.524
24697WAT     H274334   5.808   1.376   5.400
24698WAT      O74335   8.850   2.760   3.528
24698WAT     H174336   8.810   2.675   3.494
24698WAT     H274337   8.894   2.809   3.452
24699WAT      O74338   0.017   0.933   3.048
24699WAT     H174339  -0.021   0.855   3.000
24699WAT     H274340  -0.048   0.965   3.118
24700WAT      O74341   5.411   6.806   1.114
24700WAT     H174342   5.502   6.802   1.156
24700WAT     H274343   5.374   6.713   1.108
24701WAT      O74344   3.261   2.314   4.097
24701WAT     H174345   3.351   2.347   4.123
24701WAT     H274346   3.268   2.260   4.013
24702WAT      O74347   1.073   8.192   2.099
24702WAT     H174348   1.018   8.214   2.179
24702WAT     H274349   1.142   8.264   2.085
24703WAT      O74350   3.867   2.512   3.560
24703WAT     H174351   3.810   2.594   3.568
24703WAT     H274352   3.848   2.467   3.473
24704WAT      O74353   9.813   1.783   7.887
24704WAT     H174354   9.861   1.723   7.951
24704WAT     H274355   9.715   1.764   7.890
24705WAT      O74356   3.597   4.243   7.243
24705WAT     H174357   3.601   4.321   7.180
24705WAT     H274358   3.503   4.210   7.250
24706WAT      O74359   0.511   5.019   1.035
24706WAT     H174360   0.607   4.991   1.044
24706WAT     H274361   0.468   5.017   1.126
24707WAT      O74362   7.057   2.841   9.779
24707WAT     H174363   7.120   2.765   9.793
24707WAT     H274364   7.109   2.925   9.764
24708WAT      O74365   4.857   6.434   4.894
24708WAT     H174366   4.838   6.508   4.958
24708WAT     H274367   4.806   6.449   4.810
24709WAT      O74368   0.600   0.009   7.510
24709WAT     H174369   0.607   0.095   7.460
24709WAT     H274370   0.583   0.027   7.607
24710WAT      O74371   2.029   0.317   0.248
24710WAT     H174372   1.965   0.263   0.304
24710WAT     H274373   2.065   0.260   0.175
24711WAT      O74374   6.501   5.317   0.694
24711WAT     H174375   6.508   5.228   0.650
24711WAT     H274376   6.426   5.369   0.653
24712WAT      O74377   5.364   0.109   9.622
24712WAT     H174378   5.337   0.071   9.710
24712WAT     H274379   5.440   0.055   9.585
24713WAT      O74380   5.104   7.298   3.952
24713WAT     H174381   5.117   7.378   4.010
24713WAT     H274382   5.188   7.281   3.899
24714WAT      O74383   2.338   6.472   6.752
24714WAT     H174384   2.298   6.551   6.704
24714WAT     H274385   2.438   6.477   6.744
24715WAT      O74386   5.773   7.789   0.017
24715WAT     H174387   5.741   7.759  -0.072
24715WAT     H274388   5.815   7.880   0.009
24716WAT      O74389   7.197   4.348   0.341
24716WAT     H174390   7.166   4.352   0.246
24716WAT     H274391   7.225   4.255   0.363
24717WAT      O74392   6.689   5.420   5.526
24717WAT     H174393   6.600   5.432   5.483
24717WAT     H274394   6.687   5.460   5.618
24718WAT      O74395   9.480   2.525   1.253
24718WAT     H174396   9.414   2.487   1.188
24718WAT     H274397   9.563   2.552   1.205
24719WAT      O74398   8.673   8.152   4.161
24719WAT     H174399   8.631   8.132   4.250
24719WAT     H274400   8.758   8.204   4.176
24720WAT      O74401   6.760   1.461   8.762
24720WAT     H174402   6.681   1.436   8.705
24720WAT     H274403   6.739   1.543   8.814
24721WAT      O74404   8.293   9.006   1.367
24721WAT     H174405   8.243   9.076   1.316
24721WAT     H274406   8.389   9.033   1.373
24722WAT      O74407   5.973   9.567   0.916
24722WAT     H174408   5.916   9.507   0.971
24722WAT     H274409   5.923   9.652   0.896
24723WAT      O74410   9.400   6.637   3.869
24723WAT     H174411   9.434   6.703   3.936
24723WAT     H274412   9.373   6.685   3.786
24724WAT      O74413   0.010   9.516   3.869
24724WAT     H174414   0.029   9.612   3.890
24724WAT     H274415   0.089   9.477   3.822
24725WAT      O74416   6.503   6.744   9.686
24725WAT     H174417   6.447   6.791   9.755
24725WAT     H274418   6.549   6.812   9.629
24726WAT      O74419   4.689   8.716   3.253
24726WAT     H174420   4.598   8.696   3.290
24726WAT     H274421   4.719   8.641   3.195
24727WAT      O74422   5.337   8.781   4.750
24727WAT     H174423   5.297   8.830   4.672
24727WAT     H274424   5.369   8.847   4.817
24728WAT      O74425   7.877   8.112   4.381
24728WAT     H174426   7.794   8.132   4.432
24728WAT     H274427   7.898   8.190   4.321
24729WAT      O74428   2.790   6.896   6.556
24729WAT     H174429   2.781   6.992   6.529
24729WAT     H274430   2.700   6.854   6.561
24730WAT      O74431   5.436   6.448   8.268
24730WAT     H174432   5.377   6.385   8.218
24730WAT     H274433   5.477   6.401   8.346
24731WAT      O74434   7.926   1.797   2.709
24731WAT     H174435   7.936   1.706   2.749
24731WAT     H274436   7.843   1.799   2.653
24732WAT      O74437   6.739   6.288   6.288
24732WAT     H174438   6.791   6.217   6.336
24732WAT     H274439   6.777   6.378   6.309
24733WAT      O74440   7.302   4.509   3.613
24733WAT     H174441   7.261   4.448   3.681
24733WAT     H274442   7.241   4.518   3.535
24734WAT      O74443   9.543   9.088   6.784
24734WAT     H174444   9.566   9.101   6.688
24734WAT     H274445   9.537   9.177   6.829
24735WAT      O74446   3.773   7.902   6.634
24735WAT     H174447   3.837   7.835   6.597
24735WAT     H274448   3.820   7.989   6.650
24736WAT      O74449   8.425   8.468   9.101
24736WAT     H174450   8.463   8.554   9.135
24736WAT     H274451   8.395   8.412   9.178
24737WAT      O74452   0.551   4.498   7.701
24737WAT     H174453   0.591   4.407   7.697
24737WAT     H274454   0.513   4.513   7.793
24738WAT      O74455   9.250   0.852   0.159
24738WAT     H174456   9.293   0.900   0.235
24738WAT     H274457   9.294   0.763   0.147
24739WAT      O74458   7.354   5.142   9.601
24739WAT     H174459   7.354   5.192   9.687
24739WAT     H274460   7.326   5.203   9.526
24740WAT      O74461   0.230   7.699   1.714
24740WAT     H174462   0.293   7.620   1.713
24740WAT     H274463   0.281   7.782   1.736
24741WAT      O74464   9.143   0.080   5.241
24741WAT     H174465   9.086   0.042   5.314
24741WAT     H274466   9.236   0.096   5.276
24742WAT      O74467   0.006   5.053   2.346
24742WAT     H174468   0.097   5.023   2.318
24742WAT     H274469  -0.063   5.005   2.291
24743WAT      O74470   5.854   6.069   6.767
24743WAT     H174471   5.783   6.082   6.698
24743WAT     H274472   5.821   6.007   6.838
24744WAT      O74473   8.527   4.375   3.565
24744WAT     H174474   8.502   4.472   3.571
24744WAT     H274475   8.589   4.361   3.487
24745WAT      O74476   4.875   6.242   4.373
24745WAT     H174477   4.837   6.157   4.411
24745WAT     H274478   4.901   6.226   4.277
24746WAT      O74479   9.487   5.651   7.042
24746WAT     H174480   9.477   5.617   7.135
24746WAT     H274481   9.552   5.593   6.992
24747WAT      O74482   0.837   8.813   5.730
24747WAT     H174483   0.896   8.732   5.721
24747WAT     H274484   0.745   8.791   5.698
24748WAT      O74485   0.647   6.376   3.450
24748WAT     H174486   0.619   6.395   3.544
24748WAT     H274487   0.683   6.283   3.445
24749WAT      O74488   8.407   6.314   3.615
24749WAT     H174489   8.393   6.274   3.525
24749WAT     H274490   8.492   6.366   3.615
24750WAT      O74491   8.256   3.408   0.900
24750WAT     H174492   8.212   3.340   0.959
24750WAT     H274493   8.297   3.479   0.957
24751WAT      O74494   6.617   6.218   3.535
24751WAT     H174495   6.589   6.296   3.592
24751WAT     H274496   6.545   6.198   3.469
24752WAT      O74497   2.606   0.883   7.654
24752WAT     H174498   2.597   0.973   7.695
24752WAT     H274499   2.664   0.889   7.573
24753WAT      O74500   1.003   1.199   4.613
24753WAT     H174501   1.089   1.168   4.572
24753WAT     H274502   0.926   1.168   4.556
24754WAT      O74503   8.600   8.013   7.219
24754WAT     H174504   8.631   8.085   7.156
24754WAT     H274505   8.501   8.013   7.223
24755WAT      O74506   0.960   9.773   3.077
24755WAT     H174507   0.909   9.712   3.137
24755WAT     H274508   0.994   9.721   2.998
24756WAT      O74509   7.619   8.735   3.911
24756WAT     H174510   7.709   8.775   3.896
24756WAT     H274511   7.555   8.768   3.842
24757WAT      O74512   4.690   1.269   0.947
24757WAT     H174513   4.753   1.198   0.916
24757WAT     H274514   4.596   1.244   0.922
24758WAT      O74515   6.619   4.052   7.886
24758WAT     H174516   6.719   4.055   7.879
24758WAT     H274517   6.579   4.115   7.819
24759WAT      O74518   3.311   4.625   4.243
24759WAT     H174519   3.386   4.635   4.178
24759WAT     H274520   3.327   4.544   4.299
24760WAT      O74521   0.362   5.476   6.644
24760WAT     H174522   0.388   5.467   6.740
24760WAT     H274523   0.434   5.436   6.586
24761WAT      O74524   7.692   8.226   1.901
24761WAT     H174525   7.752   8.300   1.929
24761WAT     H274526   7.597   8.256   1.907
24762WAT      O74527   0.804   0.055   4.898
24762WAT     H174528   0.751   0.139   4.889
24762WAT     H274529   0.741  -0.022   4.912
24763WAT      O74530   1.125   4.612   3.543
24763WAT     H174531   1.187   4.675   3.495
24763WAT     H274532   1.178   4.548   3.598
24764WAT      O74533   6.391   1.120   8.485
24764WAT     H174534   6.426   1.076   8.402
24764WAT     H274535   6.441   1.085   8.565
24765WAT      O74536   1.083   4.522   0.547
24765WAT     H174537   1.092   4.532   0.646
24765WAT     H274538   1.114   4.431   0.520
24766WAT      O74539   0.618   6.654   1.416
24766WAT     H174540   0.532   6.670   1.369
24766WAT     H274541   0.693   6.697   1.365
24767WAT      O74542   9.244   0.091   6.566
24767WAT     H174543   9.309   0.018   6.543
24767WAT     H274544   9.293   0.178   6.572
24768WAT      O74545   2.897   2.495   1.927
24768WAT     H174546   2.833   2.448   1.988
24768WAT     H274547   2.964   2.545   1.980
24769WAT      O74548   2.115   8.651   6.864
24769WAT     H174549   2.211   8.624   6.861
24769WAT     H274550   2.083   8.648   6.958
24770WAT      O74551   0.140   1.957   7.596
24770WAT     H174552   0.090   1.986   7.677
24770WAT     H274553   0.216   2.020   7.578
24771WAT      O74554   3.552   4.248   3.868
24771WAT     H174555   3.563   4.303   3.785
24771WAT     H274556   3.466   4.272   3.913
24772WAT      O74557   8.131   0.193   6.451
24772WAT     H174558   8.033   0.191   6.433
24772WAT     H274559   8.147   0.215   6.547
24773WAT      O74560   7.549   4.071   3.655
24773WAT     H174561   7.468   4.062   3.598
24773WAT     H274562   7.573   3.982   3.694
24774WAT      O74563   0.767   4.089   7.487
24774WAT     H174564   0.867   4.076   7.489
24774WAT     H274565   0.747   4.185   7.466
24775WAT      O74566   6.000   0.864   0.907
24775WAT     H174567   5.982   0.922   0.987
24775WAT     H274568   5.987   0.918   0.823
24776WAT      O74569   1.078   3.287   9.645
24776WAT     H174570   1.001   3.338   9.605
24776WAT     H274571   1.145   3.268   9.574
24777WAT      O74572   2.470   6.045   8.646
24777WAT     H174573   2.396   6.069   8.584
24777WAT     H274574   2.550   6.017   8.594
24778WAT      O74575   7.602   4.504   8.707
24778WAT     H174576   7.659   4.435   8.663
24778WAT     H274577   7.652   4.591   8.710
24779WAT      O74578   1.705   2.836   9.134
24779WAT     H174579   1.709   2.878   9.043
24779WAT     H274580   1.753   2.748   9.132
24780WAT      O74581   2.331   5.247   4.401
24780WAT     H174582   2.244   5.260   4.354
24780WAT     H274583   2.325   5.286   4.493
24781WAT      O74584   6.403   0.897   2.203
24781WAT     H174585   6.421   0.976   2.262
24781WAT     H274586   6.408   0.813   2.257
24782WAT      O74587   9.315   1.945   4.859
24782WAT     H174588   9.322   1.962   4.761
24782WAT     H274589   9.349   2.025   4.909
24783WAT      O74590   9.045   3.719   7.401
24783WAT     H174591   8.992   3.802   7.412
24783WAT     H274592   9.019   3.652   7.470
24784WAT      O74593   3.871   9.429   1.447
24784WAT     H174594   3.843   9.485   1.525
24784WAT     H274595   3.912   9.487   1.377
24785WAT      O74596   4.599   4.487   3.958
24785WAT     H174597   4.694   4.515   3.944
24785WAT     H274598   4.575   4.497   4.055
24786WAT      O74599   2.495   7.611   2.194
24786WAT     H174600   2.572   7.619   2.132
24786WAT     H274601   2.419   7.566   2.147
24787WAT      O74602   7.363   0.418   8.560
24787WAT     H174603   7.326   0.423   8.467
24787WAT     H274604   7.412   0.503   8.581
24788WAT      O74605   1.701   5.820   4.820
24788WAT     H174606   1.618   5.826   4.764
24788WAT     H274607   1.742   5.729   4.811
24789WAT      O74608   3.087   0.699   6.088
24789WAT     H174609   3.091   0.647   6.002
24789WAT     H274610   3.055   0.791   6.069
24790WAT      O74611   3.864   7.986   3.004
24790WAT     H174612   3.819   7.916   3.059
24790WAT     H274613   3.873   7.955   2.910
24791WAT      O74614   7.119   0.097   2.115
24791WAT     H174615   7.075   0.012   2.142
24791WAT     H274616   7.127   0.101   2.015
24792WAT      O74617   4.921   2.701   0.738
24792WAT     H174618   4.904   2.653   0.824
24792WAT     H274619   4.985   2.776   0.753
24793WAT      O74620   3.876   0.236   0.276
24793WAT     H174621   3.914   0.183   0.200
24793WAT     H274622   3.870   0.177   0.357
24794WAT      O74623   4.042   1.242   2.443
24794WAT     H174624   4.088   1.172   2.389
24794WAT     H274625   4.038   1.212   2.539
24795WAT      O74626   6.449   0.530   3.053
24795WAT     H174627   6.497   0.617   3.060
24795WAT     H274628   6.406   0.523   2.962
24796WAT      O74629   7.353   3.382   0.100
24796WAT     H174630   7.279   3.315   0.095
24796WAT     H274631   7.440   3.335   0.112
24797WAT      O74632   2.849   3.152   0.570
24797WAT     H174633   2.791   3.130   0.648
24797WAT     H274634   2.855   3.251   0.560
24798WAT      O74635   7.446   3.109   9.592
24798WAT     H174636   7.470   3.119   9.496
24798WAT     H274637   7.526   3.077   9.643
24799WAT      O74638   2.682   4.688   3.805
24799WAT     H174639   2.703   4.682   3.903
24799WAT     H274640   2.654   4.598   3.772
24800WAT      O74641   8.827   9.166   7.230
24800WAT     H174642   8.798   9.233   7.299
24800WAT     H274643   8.770   9.175   7.149
24801WAT      O74644   6.687   3.575   9.566
24801WAT     H174645   6.679   3.476   9.579
24801WAT     H274646   6.596   3.614   9.554
24802WAT      O74647   2.456   2.358   4.982
24802WAT     H174648   2.363   2.320   4.974
24802WAT     H274649   2.466   2.433   4.917
24803WAT      O74650   4.098   3.211   1.837
24803WAT     H174651   4.027   3.155   1.878
24803WAT     H274652   4.183   3.200   1.889
24804WAT      O74653   7.413   9.527   8.801
24804WAT     H174654   7.478   9.559   8.869
24804WAT     H274655   7.327   9.578   8.810
24805WAT      O74656   0.347   9.406   4.838
24805WAT     H174657   0.382   9.400   4.745
24805WAT     H274658   0.357   9.500   4.872
24806WAT      O74659   6.665   8.833   4.894
24806WAT     H174660   6.655   8.741   4.857
24806WAT     H274661   6.746   8.877   4.855
24807WAT      O74662   8.726   4.153   5.719
24807WAT     H174663   8.629   4.176   5.719
24807WAT     H274664   8.778   4.230   5.681
24808WAT      O74665   0.323   3.417   4.722
24808WAT     H174666   0.322   3.419   4.622
24808WAT     H274667   0.306   3.324   4.755
24809WAT      O74668   5.568   0.131   0.863
24809WAT     H174669   5.472   0.115   0.843
24809WAT     H274670   5.575   0.193   0.942
24810WAT      O74671   8.776   0.107   2.279
24810WAT     H174672   8.855   0.073   2.328
24810WAT     H274673   8.785   0.084   2.182
24811WAT      O74674   4.929   6.308   9.553
24811WAT     H174675   4.869   6.303   9.473
24811WAT     H274676   4.877   6.345   9.631
24812WAT      O74677   8.045   4.583   5.074
24812WAT     H174678   8.058   4.489   5.044
24812WAT     H274679   8.056   4.589   5.173
24813WAT      O74680   0.028   3.141   5.409
24813WAT     H174681   0.048   3.057   5.360
24813WAT     H274682   0.023   3.217   5.344
24814WAT      O74683   5.132   5.499   4.289
24814WAT     H174684   5.182   5.573   4.243
24814WAT     H274685   5.136   5.416   4.233
24815WAT      O74686   8.160   0.743   2.173
24815WAT     H174687   8.106   0.780   2.098
24815WAT     H274688   8.126   0.653   2.197
24816WAT      O74689   2.023   9.064   1.687
24816WAT     H174690   2.067   8.979   1.660
24816WAT     H274691   2.085   9.141   1.671
24817WAT      O74692   4.868   4.475   2.259
24817WAT     H174693   4.793   4.541   2.253
24817WAT     H274694   4.849   4.407   2.330
24818WAT      O74695   9.824   8.674   2.109
24818WAT     H174696   9.923   8.672   2.096
24818WAT     H274697   9.799   8.753   2.166
24819WAT      O74698   5.594   3.796   3.359
24819WAT     H174699   5.618   3.770   3.452
24819WAT     H274700   5.678   3.812   3.306
24820WAT      O74701   1.914   5.242   6.567
24820WAT     H174702   1.991   5.262   6.627
24820WAT     H274703   1.833   5.290   6.599
24821WAT      O74704   3.828   0.167   7.733
24821WAT     H174705   3.778   0.210   7.658
24821WAT     H274706   3.892   0.233   7.772
24822WAT      O74707   6.452   3.331   0.296
24822WAT     H174708   6.420   3.273   0.221
24822WAT     H274709   6.379   3.394   0.322
24823WAT      O74710   1.855   5.500   2.207
24823WAT     H174711   1.941   5.550   2.196
24823WAT     H274712   1.779   5.565   2.206
24824WAT      O74713   9.848   9.313   8.801
24824WAT     H174714   9.898   9.384   8.751
24824WAT     H274715   9.902   9.283   8.880
24825WAT      O74716   3.332   0.739   9.170
24825WAT     H174717   3.357   0.654   9.217
24825WAT     H274718   3.345   0.816   9.232
24826WAT      O74719   5.762   2.183   5.231
24826WAT     H174720   5.699   2.149   5.161
24826WAT     H274721   5.783   2.109   5.295
24827WAT      O74722   2.377   5.566   9.038
24827WAT     H174723   2.350   5.505   9.112
24827WAT     H274724   2.460   5.531   8.994
24828WAT      O74725   4.082   6.112   3.977
24828WAT     H174726   4.012   6.096   4.046
24828WAT     H274727   4.172   6.087   4.015
24829WAT      O74728   7.606   5.443   9.613
24829WAT     H174729   7.525   5.485   9.571
24829WAT     H274730   7.648   5.507   9.676
24830WAT      O74731   4.570   6.440   9.349
24830WAT     H174732   4.483   6.482   9.375
24830WAT     H274733   4.591   6.463   9.254
24831WAT      O74734   7.055   2.944   2.691
24831WAT     H174735   7.147   2.905   2.694
24831WAT     H274736   7.051   3.025   2.750
24832WAT      O74737   3.959   7.079   1.753
24832WAT     H174738   4.022   7.020   1.702
24832WAT     H274739   3.878   7.026   1.780
24833WAT      O74740   7.688   0.707   5.406
24833WAT     H174741   7.607   0.750   5.366
24833WAT     H274742   7.723   0.638   5.343
24834WAT      O74743   6.851   6.479   8.155
24834WAT     H174744   6.868   6.385   8.128
24834WAT     H274745   6.917   6.539   8.110
24835WAT      O74746   5.229   5.898   1.554
24835WAT     H174747   5.170   5.817   1.551
24835WAT     H274748   5.183   5.974   1.508
24836WAT      O74749   2.588   4.917   3.710
24836WAT     H174750   2.631   4.940   3.622
24836WAT     H274751   2.628   4.832   3.745
24837WAT      O74752   0.937   7.154   6.570
24837WAT     H174753   1.015   7.182   6.625
24837WAT     H274754   0.856   7.205   6.598
24838WAT      O74755   6.868   2.248   7.730
24838WAT     H174756   6.806   2.227   7.654
24838WAT     H274757   6.907   2.339   7.715
24839WAT      O74758   2.904   0.283   2.353
24839WAT     H174759   3.003   0.274   2.364
24839WAT     H274760   2.881   0.379   2.333
24840WAT      O74761   2.766   2.408   6.920
24840WAT     H174762   2.858   2.431   6.885
24840WAT     H274763   2.775   2.350   7.000
24841WAT      O74764   2.991   9.244   0.605
24841WAT     H174765   3.037   9.158   0.583
24841WAT     H274766   3.031   9.283   0.688
24842WAT      O74767   4.234   7.624   1.441
24842WAT     H174768   4.262   7.611   1.536
24842WAT     H274769   4.298   7.576   1.381
24843WAT      O74770   5.865   5.039   8.308
24843WAT     H174771   5.780   5.080   8.343
24843WAT     H274772   5.844   4.956   8.257
24844WAT      O74773   7.625   3.537   8.880
24844WAT     H174774   7.620   3.439   8.901
24844WAT     H274775   7.676   3.584   8.952
24845WAT      O74776   4.574   1.548   3.606
24845WAT     H174777   4.662   1.583   3.576
24845WAT     H274778   4.500   1.603   3.566
24846WAT      O74779   1.467   9.136   5.413
24846WAT     H174780   1.400   9.209   5.428
24846WAT     H274781   1.472   9.114   5.315
24847WAT      O74782   7.295   5.888   5.662
24847WAT     H174783   7.283   5.986   5.647
24847WAT     H274784   7.242   5.837   5.594
24848WAT      O74785   8.811   4.472   9.390
24848WAT     H174786   8.850   4.393   9.343
24848WAT     H274787   8.722   4.446   9.429
24849WAT      O74788   0.984   8.079   6.291
24849WAT     H174789   1.065   8.022   6.303
24849WAT     H274790   0.903   8.027   6.318
24850WAT      O74791   0.420   8.050   8.692
24850WAT     H174792   0.399   7.965   8.643
24850WAT     H274793   0.426   8.032   8.790
24851WAT      O74794   1.597   7.888   3.013
24851WAT     H174795   1.563   7.884   2.919
24851WAT     H274796   1.694   7.867   3.015
24852WAT      O74797   3.196   5.471   0.090
24852WAT     H174798   3.166   5.499   0.182
24852WAT     H274799   3.242   5.547   0.046
24853WAT      O74800   5.708   6.501   6.991
24853WAT     H174801   5.741   6.532   7.081
24853WAT     H274802   5.615   6.535   6.977
24854WAT      O74803   8.682   6.181   5.499
24854WAT     H174804   8.618   6.189   5.575
24854WAT     H274805   8.755   6.117   5.524
24855WAT      O74806   8.826   7.457   3.238
24855WAT     H174807   8.778   7.455   3.151
24855WAT     H274808   8.920   7.426   3.225
24856WAT      O74809   0.285   4.601   3.847
24856WAT     H174810   0.223   4.526   3.871
24856WAT     H274811   0.345   4.620   3.925
24857WAT      O74812   7.537   2.402   3.986
24857WAT     H174813   7.464   2.439   4.044
24857WAT     H274814   7.507   2.401   3.891
24858WAT      O74815   7.192   5.798   2.279
24858WAT     H174816   7.100   5.818   2.312
24858WAT     H274817   7.248   5.765   2.355
24859WAT      O74818   2.013   2.681   9.337
24859WAT     H174819   1.939   2.651   9.277
24859WAT     H274820   2.044   2.603   9.392
24860WAT      O74821   8.205   1.663   2.586
24860WAT     H174822   8.185   1.614   2.672
24860WAT     H274823   8.204   1.598   2.510
24861WAT      O74824   3.610   4.240   5.941
24861WAT     H174825   3.633   4.330   5.978
24861WAT     H274826   3.677   4.173   5.972
24862WAT      O74827   8.268   9.323   4.041
24862WAT     H174828   8.261   9.417   4.008
24862WAT     H274829   8.364   9.295   4.044
24863WAT      O74830   1.356   0.756   3.875
24863WAT     H174831   1.443   0.785   3.915
24863WAT     H274832   1.306   0.835   3.841
24864WAT      O74833   1.045   5.813   6.730
24864WAT     H174834   1.136   5.827   6.768
24864WAT     H274835   0.999   5.902   6.721
24865WAT      O74836   1.313   0.214   0.260
24865WAT     H174837   1.341   0.205   0.164
24865WAT     H274838   1.246   0.144   0.282
24866WAT      O74839   4.225   9.078   6.175
24866WAT     H174840   4.320   9.049   6.166
24866WAT     H274841   4.203   9.094   6.271
24867WAT      O74842   4.181   0.644   3.617
24867WAT     H174843   4.206   0.550   3.641
24867WAT     H274844   4.192   0.703   3.696
24868WAT      O74845   9.363   2.593   7.586
24868WAT     H174846   9.314   2.577   7.501
24868WAT     H274847   9.419   2.512   7.608
24869WAT      O74848   9.670   2.560   4.817
24869WAT     H174849   9.673   2.660   4.828
24869WAT     H274850   9.622   2.538   4.732
24870WAT      O74851   1.571   6.532   4.937
24870WAT     H174852   1.482   6.570   4.963
24870WAT     H274853   1.616   6.594   4.873
24871WAT      O74854   2.848   3.028   1.329
24871WAT     H174855   2.889   3.116   1.302
24871WAT     H274856   2.771   3.045   1.390
24872WAT      O74857   3.854   2.992   0.010
24872WAT     H174858   3.855   3.086   0.045
24872WAT     H274859   3.934   2.977  -0.047
24873WAT      O74860   4.942   7.085   3.757
24873WAT     H174861   4.922   7.132   3.671
24873WAT     H274862   4.904   6.992   3.754
24874WAT      O74863   5.862   7.965   1.433
24874WAT     H174864   5.806   8.046   1.422
24874WAT     H274865   5.947   7.988   1.481
24875WAT      O74866   9.727   8.007   1.271
24875WAT     H174867   9.739   8.015   1.370
24875WAT     H274868   9.657   7.939   1.251
24876WAT      O74869   2.284   1.125   8.805
24876WAT     H174870   2.214   1.191   8.834
24876WAT     H274871   2.369   1.143   8.854
24877WAT      O74872   2.668   5.976   4.910
24877WAT     H174873   2.638   6.068   4.938
24877WAT     H274874   2.590   5.925   4.876
24878WAT      O74875   2.895   0.794   9.711
24878WAT     H174876   2.921   0.817   9.805
24878WAT     H274877   2.830   0.718   9.713
24879WAT      O74878   0.558   0.526   2.431
24879WAT     H174879   0.653   0.493   2.434
24879WAT     H274880   0.557   0.625   2.442
24880WAT      O74881   8.430   2.079   4.968
24880WAT     H174882   8.387   2.044   5.051
24880WAT     H274883   8.522   2.041   4.960
24881WAT      O74884   3.391   2.825   7.572
24881WAT     H174885   3.415   2.830   7.669
24881WAT     H274886   3.474   2.815   7.518
24882WAT      O74887   0.909   9.599   0.386
24882WAT     H174888   0.968   9.661   0.438
24882WAT     H274889   0.829   9.576   0.441
24883WAT      O74890   5.016   5.314   7.591
24883WAT     H174891   4.979   5.221   7.602
24883WAT     H274892   5.091   5.327   7.655
24884WAT      O74893   6.636   0.159   0.037
24884WAT     H174894   6.734   0.146   0.052
24884WAT     H274895   6.615   0.256   0.030
24885WAT      O74896   7.390   9.047   2.077
24885WAT     H174897   7.441   9.091   2.003
24885WAT     H274898   7.360   9.116   2.142
24886WAT      O74899   0.068   4.247   4.504
24886WAT     H174900   0.136   4.176   4.485
24886WAT     H274901   0.053   4.253   4.603
24887WAT      O74902   2.174   2.874   5.305
24887WAT     H174903   2.127   2.803   5.253
24887WAT     H274904   2.270   2.879   5.277
24888WAT      O74905   0.785   1.144   7.380
24888WAT     H174906   0.857   1.212   7.369
24888WAT     H274907   0.773   1.095   7.293
24889WAT      O74908   2.081   0.209   7.050
24889WAT     H174909   2.115   0.115   7.051
24889WAT     H274910   2.079   0.243   6.956
24890WAT      O74911   6.452   5.542   3.827
24890WAT     H174912   6.483   5.612   3.763
24890WAT     H274913   6.365   5.504   3.795
24891WAT      O74914   5.782   0.080   4.480
24891WAT     H174915   5.778   0.090   4.579
24891WAT     H274916   5.817  -0.011   4.457
24892WAT      O74917   3.096   3.805   6.705
24892WAT     H174918   3.096   3.705   6.714
24892WAT     H274919   3.027   3.844   6.766
24893WAT      O74920   0.831   1.693   9.284
24893WAT     H174921   0.907   1.755   9.265
24893WAT     H274922   0.763   1.700   9.211
24894WAT      O74923   1.585   8.926   9.172
24894WAT     H174924   1.590   8.964   9.265
24894WAT     H274925   1.508   8.862   9.166
24895WAT      O74926   7.237   6.309   6.891
24895WAT     H174927   7.229   6.390   6.832
24895WAT     H274928   7.333   6.295   6.915
24896WAT      O74929   0.550   1.164   9.202
24896WAT     H174930   0.496   1.090   9.241
24896WAT     H274931   0.500   1.206   9.127
24897WAT      O74932   4.415   3.927   9.866
24897WAT     H174933   4.413   3.908   9.768
24897WAT     H274934   4.321   3.933   9.900
24898WAT      O74935   9.502   1.045   4.311
24898WAT     H174936   9.450   1.009   4.233
24898WAT     H274937   9.485   0.988   4.391
24899WAT      O74938   4.567   6.754   7.523
24899WAT     H174939   4.642   6.776   7.460
24899WAT     H274940   4.480   6.774   7.480
24900WAT      O74941   7.371   5.168   5.875
24900WAT     H174942   7.307   5.127   5.811
24900WAT     H274943   7.333   5.254   5.909
24901WAT      O74944   4.536   3.350   3.807
24901WAT     H174945   4.473   3.416   3.848
24901WAT     H274946   4.491   3.306   3.729
24902WAT      O74947   8.779   4.323   0.827
24902WAT     H174948   8.752   4.336   0.922
24902WAT     H274949   8.810   4.229   0.813
24903WAT      O74950   2.488   1.239   0.153
24903WAT     H174951   2.533   1.326   0.174
24903WAT     H274952   2.553   1.164   0.167
24904WAT      O74953   6.605   5.330   1.802
24904WAT     H174954   6.591   5.275   1.720
24904WAT     H274955   6.641   5.273   1.876
24905WAT      O74956   4.209   3.537   1.653
24905WAT     H174957   4.276   3.600   1.693
24905WAT     H274958   4.230   3.522   1.557
24906WAT      O74959   3.508   0.350   7.786
24906WAT     H174960   3.546   0.343   7.878
24906WAT     H274961   3.409   0.334   7.789
24907WAT      O74962   4.335   0.147   4.870
24907WAT     H174963   4.282   0.181   4.947
24907WAT     H274964   4.394   0.220   4.835
24908WAT      O74965   8.104   8.529   3.077
24908WAT     H174966   8.057   8.471   3.144
24908WAT     H274967   8.191   8.487   3.053
24909WAT      O74968   5.213   1.049   6.311
24909WAT     H174969   5.177   0.958   6.291
24909WAT     H274970   5.166   1.117   6.254
24910WAT      O74971   9.200   6.130   7.816
24910WAT     H174972   9.143   6.192   7.762
24910WAT     H274973   9.179   6.140   7.913
24911WAT      O74974   7.972   5.355   4.638
24911WAT     H174975   7.887   5.366   4.587
24911WAT     H274976   8.033   5.431   4.617
24912WAT      O74977   4.972   5.755   7.803
24912WAT     H174978   4.998   5.821   7.733
24912WAT     H274979   5.043   5.753   7.874
24913WAT      O74980   8.010   1.473   2.449
24913WAT     H174981   8.089   1.413   2.434
24913WAT     H274982   7.954   1.437   2.523
24914WAT      O74983   9.212   5.285   0.461
24914WAT     H174984   9.199   5.188   0.440
24914WAT     H274985   9.184   5.340   0.383
24915WAT      O74986   0.432   2.932   1.907
24915WAT     H174987   0.400   2.960   1.997
24915WAT     H274988   0.354   2.927   1.844
24916WAT      O74989   3.972   0.265   3.111
24916WAT     H174990   3.928   0.324   3.179
24916WAT     H274991   3.906   0.200   3.075
24917WAT      O74992   7.977   2.128   4.076
24917WAT     H174993   7.995   2.089   4.166
24917WAT     H274994   7.947   2.056   4.013
24918WAT      O74995   8.933   8.236   2.802
24918WAT     H174996   8.859   8.182   2.842
24918WAT     H274997   8.942   8.322   2.851
24919WAT      O74998   2.995   8.058   1.371
24919WAT     H174999   3.080   8.008   1.356
24919WAT     H275000   2.970   8.107   1.288
24920WAT      O75001   6.506   2.861   5.600
24920WAT     H175002   6.523   2.832   5.505
24920WAT     H275003   6.481   2.958   5.601
24921WAT      O75004   7.311   3.088   1.222
24921WAT     H175005   7.312   3.109   1.124
24921WAT     H275006   7.240   3.142   1.267
24922WAT      O75007   4.704   6.623   5.575
24922WAT     H175008   4.746   6.650   5.488
24922WAT     H275009   4.605   6.628   5.567
24923WAT      O75010   4.202   0.094   4.337
24923WAT     H175011   4.243   0.103   4.246
24923WAT     H275012   4.273   0.068   4.403
24924WAT      O75013   9.788   3.957   4.072
24924WAT     H175014   9.882   3.974   4.040
24924WAT     H275015   9.784   3.969   4.171
24925WAT      O75016   6.874   4.416   5.135
24925WAT     H175017   6.824   4.494   5.099
24925WAT     H275018   6.959   4.404   5.083
24926WAT      O75019   1.392   2.135   5.019
24926WAT     H175020   1.473   2.139   4.962
24926WAT     H275021   1.317   2.092   4.968
24927WAT      O75022   2.666   5.150   6.120
24927WAT     H175023   2.662   5.192   6.210
24927WAT     H275024   2.706   5.214   6.054
24928WAT      O75025   3.245   1.189   9.825
24928WAT     H175026   3.153   1.150   9.824
24928WAT     H275027   3.244   1.277   9.777
24929WAT      O75028   4.331   8.628   3.593
24929WAT     H175029   4.313   8.531   3.580
24929WAT     H275030   4.299   8.656   3.684
24930WAT      O75031   1.638   4.407   9.434
24930WAT     H175032   1.616   4.417   9.337
24930WAT     H275033   1.737   4.418   9.447
24931WAT      O75034   4.135   5.911   1.565
24931WAT     H175035   4.056   5.909   1.504
24931WAT     H275036   4.111   5.869   1.653
24932WAT      O75037   7.853   2.348   0.530
24932WAT     H175038   7.870   2.313   0.622
24932WAT     H275039   7.933   2.331   0.473
24933WAT      O75040   5.529   0.315   9.024
24933WAT     H175041   5.469   0.302   8.945
24933WAT     H275042   5.541   0.413   9.041
24934WAT      O75043   4.438   8.861   1.573
24934WAT     H175044   4.443   8.803   1.492
24934WAT     H275045   4.363   8.927   1.562
24935WAT      O75046   4.054   2.440   3.246
24935WAT     H175047   4.055   2.485   3.157
24935WAT     H275048   4.085   2.505   3.316
24936WAT      O75049   8.074   0.054   1.213
24936WAT     H175050   8.168   0.066   1.244
24936WAT     H275051   8.068  -0.028   1.156
24937WAT      O75052   0.686   7.879   6.131
24937WAT     H175053   0.745   7.899   6.053
24937WAT     H275054   0.742   7.846   6.207
24938WAT      O75055   7.526   3.423   6.503
24938WAT     H175056   7.603   3.451   6.561
24938WAT     H275057   7.440   3.446   6.547
24939WAT      O75058   6.519   3.246   2.657
24939WAT     H175059   6.602   3.191   2.648
24939WAT     H275060   6.516   3.287   2.748
24940WAT      O75061   3.530   2.820   9.032
24940WAT     H175062   3.471   2.771   8.968
24940WAT     H275063   3.521   2.780   9.123
24941WAT      O75064   1.632   7.728   6.002
24941WAT     H175065   1.639   7.780   5.917
24941WAT     H275066   1.610   7.633   5.980
24942WAT      O75067   3.734   2.029   2.962
24942WAT     H175068   3.821   2.048   3.008
24942WAT     H275069   3.726   1.930   2.946
24943WAT      O75070   7.176   0.533   7.007
24943WAT     H175071   7.152   0.466   7.076
24943WAT     H275072   7.096   0.588   6.984
24944WAT      O75073   0.492   2.431   6.134
24944WAT     H175074   0.526   2.503   6.194
24944WAT     H275075   0.511   2.455   6.039
24945WAT      O75076   6.483   0.594   5.994
24945WAT     H175077   6.528   0.667   5.942
24945WAT     H275078   6.552   0.529   6.026
24946WAT      O75079   5.403   8.342   1.608
24946WAT     H175080   5.341   8.377   1.678
24946WAT     H275081   5.404   8.405   1.530
24947WAT      O75082   1.982   6.071   7.111
24947WAT     H175083   1.912   6.001   7.104
24947WAT     H275084   1.941   6.158   7.138
24948WAT      O75085   3.599   2.418   3.621
24948WAT     H175086   3.632   2.403   3.714
24948WAT     H275087   3.560   2.511   3.615
24949WAT      O75088   4.234   4.135   0.542
24949WAT     H175089   4.165   4.104   0.607
24949WAT     H275090   4.310   4.178   0.591
24950WAT      O75091   6.490   0.432   7.146
24950WAT     H175092   6.454   0.518   7.109
24950WAT     H275093   6.571   0.405   7.095
24951WAT      O75094   4.257   0.898   3.100
24951WAT     H175095   4.296   0.922   3.189
24951WAT     H275096   4.309   0.822   3.060
24952WAT      O75097   5.167   9.118   1.707
24952WAT     H175098   5.163   9.046   1.637
24952WAT     H275099   5.075   9.151   1.725
24953WAT      O75100   2.376   1.630   4.112
24953WAT     H175101   2.374   1.572   4.031
24953WAT     H275102   2.356   1.574   4.193
24954WAT      O75103   7.998   7.932   4.558
24954WAT     H175104   7.965   7.999   4.491
24954WAT     H275105   8.013   7.845   4.513
24955WAT      O75106   4.377   3.814   7.086
24955WAT     H175107   4.396   3.811   6.988
24955WAT     H275108   4.316   3.738   7.110
24956WAT      O75109   8.011   7.665   4.438
24956WAT     H175110   7.973   7.620   4.357
24956WAT     H275111   7.973   7.623   4.520
24957WAT      O75112   4.168   9.125   2.428
24957WAT     H175113   4.107   9.074   2.488
24957WAT     H275114   4.165   9.222   2.452
24958WAT      O75115   4.869   6.539   0.169
24958WAT     H175116   4.867   6.639   0.170
24958WAT     H275117   4.940   6.508   0.105
24959WAT      O75118   4.376   7.555   5.311
24959WAT     H175119   4.389   7.620   5.385
24959WAT     H275120   4.286   7.513   5.319
24960WAT      O75121   8.562   7.235   9.737
24960WAT     H175122   8.546   7.322   9.691
24960WAT     H275123   8.631   7.182   9.687
24961WAT      O75124   0.855   6.416   5.677
24961WAT     H175125   0.888   6.424   5.583
24961WAT     H275126   0.829   6.321   5.695
24962WAT      O75127   6.147   8.248   8.712
24962WAT     H175128   6.092   8.254   8.795
24962WAT     H275129   6.213   8.173   8.720
24963WAT      O75130   8.279   6.440   3.180
24963WAT     H175131   8.215   6.394   3.119
24963WAT     H275132   8.352   6.483   3.127
24964WAT      O75133   7.882   9.058   7.807
24964WAT     H175134   7.817   9.119   7.761
24964WAT     H275135   7.960   9.112   7.839
24965WAT      O75136   2.220   9.020   3.086
24965WAT     H175137   2.238   8.928   3.052
24965WAT     H275138   2.291   9.082   3.052
24966WAT      O75139   9.099   3.895   7.909
24966WAT     H175140   9.095   3.947   7.995
24966WAT     H275141   9.083   3.798   7.927
24967WAT      O75142   0.992   4.303   4.556
24967WAT     H175143   1.013   4.389   4.509
24967WAT     H275144   1.075   4.248   4.563
24968WAT      O75145   6.252   8.161   7.360
24968WAT     H175146   6.191   8.164   7.281
24968WAT     H275147   6.202   8.189   7.442
24969WAT      O75148   5.838   5.972   9.529
24969WAT     H175149   5.892   5.928   9.457
24969WAT     H275150   5.875   5.946   9.618
24970WAT      O75151   3.755   0.314   0.819
24970WAT     H175152   3.801   0.352   0.738
24970WAT     H275153   3.662   0.350   0.825
24971WAT      O75154   5.569   1.396   7.576
24971WAT     H175155   5.602   1.302   7.566
24971WAT     H275156   5.646   1.459   7.566
24972WAT      O75157   5.704   7.692   5.443
24972WAT     H175158   5.638   7.756   5.483
24972WAT     H275159   5.673   7.598   5.457
24973WAT      O75160   2.909   7.697   3.402
24973WAT     H175161   2.949   7.789   3.410
24973WAT     H275162   2.856   7.691   3.317
24974WAT      O75163   2.230   2.058   5.124
24974WAT     H175164   2.303   2.061   5.193
24974WAT     H275165   2.246   1.981   5.062
24975WAT      O75166   6.497   4.628   9.017
24975WAT     H175167   6.422   4.622   8.951
24975WAT     H275168   6.579   4.585   8.978
24976WAT      O75169   1.474   7.618   6.284
24976WAT     H175170   1.564   7.599   6.244
24976WAT     H275171   1.461   7.717   6.291
24977WAT      O75172   5.724   6.578   0.170
24977WAT     H175173   5.642   6.547   0.122
24977WAT     H275174   5.792   6.505   0.172
24978WAT      O75175   1.277   4.214   6.288
24978WAT     H175176   1.281   4.143   6.358
24978WAT     H275177   1.273   4.304   6.332
24979WAT      O75178   7.818   6.932   4.312
24979WAT     H175179   7.788   6.954   4.219
24979WAT     H275180   7.854   7.015   4.355
24980WAT      O75181   8.397   7.585   5.365
24980WAT     H175182   8.304   7.593   5.399
24980WAT     H275183   8.417   7.664   5.306
24981WAT      O75184   1.798   7.554   8.316
24981WAT     H175185   1.878   7.497   8.300
24981WAT     H275186   1.717   7.508   8.280
24982WAT      O75187   9.561   1.862   2.902
24982WAT     H175188   9.617   1.903   2.830
24982WAT     H275189   9.619   1.843   2.981
24983WAT      O75190   5.003   5.455   8.624
24983WAT     H175191   4.913   5.435   8.587
24983WAT     H275192   4.996   5.531   8.690
24984WAT      O75193   2.284   3.395   9.033
24984WAT     H175194   2.225   3.320   9.060
24984WAT     H275195   2.368   3.392   9.087
24985WAT      O75196   8.209   7.779   3.540
24985WAT     H175197   8.211   7.689   3.584
24985WAT     H275198   8.189   7.848   3.609
24986WAT      O75199   7.420   9.420   6.680
24986WAT     H175200   7.463   9.427   6.770
24986WAT     H275201   7.336   9.474   6.679
24987WAT      O75202   6.577   1.120   3.132
24987WAT     H175203   6.597   1.213   3.163
24987WAT     H275204   6.653   1.087   3.076
24988WAT      O75205   2.788   4.721   4.139
24988WAT     H175206   2.794   4.629   4.100
24988WAT     H275207   2.828   4.720   4.231
24989WAT      O75208   6.107   1.368   0.704
24989WAT     H175209   6.015   1.345   0.674
24989WAT     H275210   6.138   1.302   0.772
24990WAT      O75211   7.289   0.186   6.226
24990WAT     H175212   7.384   0.205   6.200
24990WAT     H275213   7.229   0.211   6.150
24991WAT      O75214   5.766   6.287   5.294
24991WAT     H175215   5.792   6.230   5.371
24991WAT     H275216   5.829   6.272   5.218
24992WAT      O75217   8.896   7.807   2.311
24992WAT     H175218   8.974   7.783   2.368
24992WAT     H275219   8.838   7.873   2.359
24993WAT      O75220   2.714   7.484   2.898
24993WAT     H175221   2.654   7.426   2.953
24993WAT     H275222   2.660   7.559   2.859
24994WAT      O75223   7.326   2.662   4.630
24994WAT     H175224   7.334   2.722   4.550
24994WAT     H275225   7.251   2.598   4.617
24995WAT      O75226   6.045   8.074   8.330
24995WAT     H175227   6.013   8.139   8.400
24995WAT     H275228   6.139   8.096   8.305
24996WAT      O75229   1.388   2.336   5.628
24996WAT     H175230   1.389   2.246   5.585
24996WAT     H275231   1.458   2.394   5.585
24997WAT      O75232   2.968   1.501   3.063
24997WAT     H175233   2.995   1.485   3.157
24997WAT     H275234   2.936   1.415   3.022
24998WAT      O75235   0.889   8.150   2.754
24998WAT     H175236   0.969   8.171   2.810
24998WAT     H275237   0.917   8.095   2.675
24999WAT      O75238   2.723   6.855   0.372
24999WAT     H175239   2.693   6.900   0.456
24999WAT     H275240   2.728   6.922   0.298
25000WAT      O75241   2.058   2.129   5.683
25000WAT     H175242   2.087   2.203   5.623
25000WAT     H275243   1.964   2.145   5.713
25001WAT      O75244   3.458   8.525   6.437
25001WAT     H175245   3.477   8.434   6.472
25001WAT     H275246   3.534   8.554   6.378
25002WAT      O75247   3.756   2.755   6.718
25002WAT     H175248   3.788   2.730   6.809
25002WAT     H275249   3.741   2.854   6.715
25003WAT      O75250   4.063   8.265   0.987
25003WAT     H175251   4.093   8.246   1.080
25003WAT     H275252   4.079   8.185   0.929
25004WAT      O75253   2.892   0.134   6.779
25004WAT     H175254   2.936   0.047   6.759
25004WAT     H275255   2.936   0.176   6.858
25005WAT      O75256   5.827   6.194   3.425
25005WAT     H175257   5.778   6.116   3.464
25005WAT     H275258   5.777   6.230   3.347
25006WAT      O75259   8.988   2.774   3.768
25006WAT     H175260   9.077   2.797   3.727
25006WAT     H275261   8.929   2.735   3.697
25007WAT      O75262   9.767   5.068   5.850
25007WAT     H175263   9.815   5.123   5.782
25007WAT     H275264   9.723   4.990   5.805
25008WAT      O75265   1.757   0.034   1.443
25008WAT     H175266   1.836   0.056   1.500
25008WAT     H275267   1.673   0.049   1.495
25009WAT      O75268   1.848   9.582   1.020
25009WAT     H175269   1.822   9.677   1.036
25009WAT     H275270   1.941   9.566   1.052
25010WAT      O75271   6.329   9.346   6.634
25010WAT     H175272   6.426   9.363   6.615
25010WAT     H275273   6.314   9.346   6.733
25011WAT      O75274   5.556   0.419   4.665
25011WAT     H175275   5.614   0.346   4.701
25011WAT     H275276   5.602   0.464   4.589
25012WAT      O75277   6.120   6.475   4.293
25012WAT     H175278   6.157   6.567   4.305
25012WAT     H275279   6.101   6.460   4.196
25013WAT      O75280   3.663   0.620   7.431
25013WAT     H175281   3.570   0.597   7.461
25013WAT     H275282   3.718   0.644   7.511
25014WAT      O75283   1.995   5.029   1.660
25014WAT     H175284   1.951   4.940   1.648
25014WAT     H275285   1.925   5.100   1.670
25015WAT      O75286   6.618   2.626   3.356
25015WAT     H175287   6.530   2.579   3.362
25015WAT     H275288   6.673   2.585   3.283
25016WAT      O75289   4.599   1.378   3.317
25016WAT     H175290   4.674   1.342   3.261
25016WAT     H275291   4.603   1.478   3.318
25017WAT      O75292   2.969   7.828   1.753
25017WAT     H175293   3.049   7.771   1.734
25017WAT     H275294   2.935   7.807   1.845
25018WAT      O75295   6.212   8.427   8.327
25018WAT     H175296   6.280   8.463   8.390
25018WAT     H275297   6.138   8.494   8.315
25019WAT      O75298   0.240   8.576   3.494
25019WAT     H175299   0.204   8.615   3.410
25019WAT     H275300   0.340   8.588   3.496
25020WAT      O75301   9.237   9.592   6.407
25020WAT     H175302   9.315   9.641   6.445
25020WAT     H275303   9.202   9.528   6.476
25021WAT      O75304   1.533   4.491   6.364
25021WAT     H175305   1.606   4.437   6.322
25021WAT     H275306   1.474   4.431   6.418
25022WAT      O75307   2.855   5.550   8.814
25022WAT     H175308   2.876   5.546   8.912
25022WAT     H275309   2.846   5.645   8.786
25023WAT      O75310   4.263   0.997   6.185
25023WAT     H175311   4.196   1.028   6.118
25023WAT     H275312   4.327   0.934   6.140
25024WAT      O75313   3.901   9.272   7.121
25024WAT     H175314   3.849   9.288   7.206
25024WAT     H275315   3.926   9.176   7.115
25025WAT      O75316   7.944   0.401   3.403
25025WAT     H175317   7.961   0.492   3.366
25025WAT     H275318   7.851   0.371   3.380
25026WAT      O75319   9.430   2.741   1.422
25026WAT     H175320   9.445   2.660   1.364
25026WAT     H275321   9.384   2.812   1.368
25027WAT      O75322   0.567   1.639   7.876
25027WAT     H175323   0.648   1.647   7.933
25027WAT     H275324   0.553   1.543   7.850
25028WAT      O75325   3.419   0.539   3.726
25028WAT     H175326   3.449   0.541   3.822
25028WAT     H275327   3.370   0.454   3.708
25029WAT      O75328   8.501   3.365   2.539
25029WAT     H175329   8.425   3.348   2.601
25029WAT     H275330   8.585   3.325   2.577
25030WAT      O75331   2.818   8.801   1.265
25030WAT     H175332   2.842   8.897   1.280
25030WAT     H275333   2.876   8.763   1.193
25031WAT      O75334   1.743   1.364   2.994
25031WAT     H175335   1.793   1.340   2.911
25031WAT     H275336   1.788   1.442   3.038
25032WAT      O75337   7.540   0.382   7.003
25032WAT     H175338   7.484   0.359   6.923
25032WAT     H275339   7.612   0.313   7.014
25033WAT      O75340   0.825   9.267   1.601
25033WAT     H175341   0.864   9.211   1.674
25033WAT     H275342   0.838   9.222   1.513
25034WAT      O75343   0.227   0.051   3.396
25034WAT     H175344   0.150  -0.007   3.422
25034WAT     H275345   0.309   0.021   3.444
25035WAT      O75346   9.353   0.085   0.050
25035WAT     H175347   9.303   0.135   0.120
25035WAT     H275348   9.442   0.057   0.085
25036WAT      O75349   3.680   4.725   3.215
25036WAT     H175350   3.667   4.633   3.177
25036WAT     H275351   3.609   4.786   3.180
25037WAT      O75352   2.174   2.954   1.581
25037WAT     H175353   2.099   3.006   1.541
25037WAT     H275354   2.230   3.015   1.638
25038WAT      O75355   5.836   4.207   8.331
25038WAT     H175356   5.800   4.144   8.400
25038WAT     H275357   5.766   4.222   8.261
25039WAT      O75358   9.249   5.862   1.400
25039WAT     H175359   9.194   5.787   1.363
25039WAT     H275360   9.274   5.840   1.495
25040WAT      O75361   7.354   9.750   0.346
25040WAT     H175362   7.450   9.777   0.335
25040WAT     H275363   7.340   9.661   0.302
25041WAT      O75364   5.657   8.898   7.323
25041WAT     H175365   5.678   8.825   7.387
25041WAT     H275366   5.682   8.986   7.363
25042WAT      O75367   7.900   9.333   8.743
25042WAT     H175368   7.996   9.336   8.770
25042WAT     H275369   7.868   9.239   8.743
25043WAT      O75370   1.786   3.059   3.241
25043WAT     H175371   1.856   3.009   3.291
25043WAT     H275372   1.698   3.013   3.253
25044WAT      O75373   6.831   6.501   5.428
25044WAT     H175374   6.884   6.580   5.397
25044WAT     H275375   6.850   6.483   5.525
25045WAT      O75376   6.156   1.152   9.027
25045WAT     H175377   6.238   1.204   9.003
25045WAT     H275378   6.117   1.111   8.945
25046WAT      O75379   7.614   7.261   8.211
25046WAT     H175380   7.677   7.331   8.176
25046WAT     H275381   7.657   7.214   8.288
25047WAT      O75382   7.294   1.843   3.255
25047WAT     H175383   7.301   1.938   3.225
25047WAT     H275384   7.285   1.840   3.355
25048WAT      O75385   9.070   2.751   5.661
25048WAT     H175386   9.040   2.674   5.605
25048WAT     H275387   9.153   2.726   5.711
25049WAT      O75388   8.113   5.847   8.272
25049WAT     H175389   8.047   5.914   8.305
25049WAT     H275390   8.071   5.793   8.198
25050WAT      O75391   3.504   7.379   4.543
25050WAT     H175392   3.412   7.342   4.530
25050WAT     H275393   3.566   7.305   4.566
25051WAT      O75394   5.674   9.363   7.108
25051WAT     H175395   5.575   9.378   7.112
25051WAT     H275396   5.702   9.350   7.013
25052WAT      O75397   5.365   8.188   6.423
25052WAT     H175398   5.359   8.239   6.337
25052WAT     H275399   5.295   8.222   6.486
25053WAT      O75400   0.615   3.777   1.674
25053WAT     H175401   0.611   3.874   1.648
25053WAT     H275402   0.574   3.722   1.602
25054WAT      O75403   6.796   8.288   3.145
25054WAT     H175404   6.728   8.239   3.089
25054WAT     H275405   6.768   8.286   3.241
25055WAT      O75406   1.792   8.842   5.189
25055WAT     H175407   1.844   8.927   5.181
25055WAT     H275408   1.827   8.788   5.265
25056WAT      O75409   8.227   5.127   5.210
25056WAT     H175410   8.250   5.221   5.235
25056WAT     H275411   8.238   5.067   5.289
25057WAT      O75412   6.094   5.598   3.952
25057WAT     H175413   6.110   5.521   4.014
25057WAT     H275414   6.034   5.664   3.997
25058WAT      O75415   1.822   3.314   3.448
25058WAT     H175416   1.799   3.364   3.365
25058WAT     H275417   1.898   3.252   3.430
25059WAT      O75418   6.545   2.902   1.608
25059WAT     H175419   6.587   2.961   1.539
25059WAT     H275420   6.592   2.916   1.696
25060WAT      O75421   5.049   8.396   1.363
25060WAT     H175422   4.970   8.458   1.373
25060WAT     H275423   5.057   8.338   1.444
25061WAT      O75424   7.529   8.016   8.856
25061WAT     H175425   7.503   7.931   8.902
25061WAT     H275426   7.502   8.094   8.913
25062WAT      O75427   3.461   0.580   5.245
25062WAT     H175428   3.475   0.501   5.304
25062WAT     H275429   3.395   0.556   5.173
25063WAT      O75430   2.772   7.513   0.547
25063WAT     H175431   2.800   7.601   0.585
25063WAT     H275432   2.750   7.525   0.450
25064WAT      O75433   5.176   4.300   3.804
25064WAT     H175434   5.159   4.389   3.762
25064WAT     H275435   5.199   4.312   3.901
25065WAT      O75436   0.947   0.072   5.135
25065WAT     H175437   0.894   0.115   5.208
25065WAT     H275438   0.898   0.081   5.048
25066WAT      O75439   2.594   6.474   0.216
25066WAT     H175440   2.655   6.513   0.284
25066WAT     H275441   2.606   6.521   0.129
25067WAT      O75442   6.284   5.810   3.537
25067WAT     H175443   6.227   5.732   3.510
25067WAT     H275444   6.269   5.831   3.634
25068WAT      O75445   2.723   2.525   3.425
25068WAT     H175446   2.662   2.450   3.401
25068WAT     H275447   2.762   2.508   3.516
25069WAT      O75448   7.936   5.684   9.023
25069WAT     H175449   7.836   5.688   9.020
25069WAT     H275450   7.965   5.604   9.075
25070WAT      O75451   9.785   2.490   8.851
25070WAT     H175452   9.734   2.515   8.933
25070WAT     H275453   9.883   2.497   8.869
25071WAT      O75454   1.587   6.983   3.529
25071WAT     H175455   1.584   6.985   3.429
25071WAT     H275456   1.621   7.071   3.563
25072WAT      O75457   7.857   9.374   1.256
25072WAT     H175458   7.888   9.280   1.240
25072WAT     H275459   7.883   9.402   1.349
25073WAT      O75460   5.695   6.163   8.709
25073WAT     H175461   5.740   6.131   8.625
25073WAT     H275462   5.756   6.148   8.787
25074WAT      O75463   0.952   5.184   9.089
25074WAT     H175464   0.902   5.120   9.147
25074WAT     H275465   0.931   5.277   9.117
25075WAT      O75466   8.000   9.148   4.267
25075WAT     H175467   7.922   9.153   4.329
25075WAT     H275468   8.060   9.073   4.296
25076WAT      O75469   5.586   5.477   1.829
25076WAT     H175470   5.639   5.484   1.745
25076WAT     H275471   5.596   5.386   1.869
25077WAT      O75472   4.746   5.686   0.722
25077WAT     H175473   4.756   5.636   0.636
25077WAT     H275474   4.649   5.701   0.741
25078WAT      O75475   7.413   4.589   7.295
25078WAT     H175476   7.483   4.576   7.225
25078WAT     H275477   7.428   4.525   7.370
25079WAT      O75478   5.495   3.913   8.039
25079WAT     H175479   5.400   3.905   8.008
25079WAT     H275480   5.498   3.898   8.138
25080WAT      O75481   3.898   8.510   6.008
25080WAT     H175482   3.876   8.475   6.099
25080WAT     H275483   3.860   8.602   5.998
25081WAT      O75484   8.787   9.288   5.998
25081WAT     H175485   8.840   9.207   5.973
25081WAT     H275486   8.734   9.269   6.081
25082WAT      O75487   5.907   1.487   9.086
25082WAT     H175488   5.975   1.559   9.097
25082WAT     H275489   5.915   1.446   8.995
25083WAT      O75490   5.489   9.311   9.345
25083WAT     H175491   5.501   9.354   9.256
25083WAT     H275492   5.569   9.255   9.367
25084WAT      O75493   3.756   6.613   4.578
25084WAT     H175494   3.793   6.625   4.670
25084WAT     H275495   3.660   6.584   4.584
25085WAT      O75496   9.578   5.006   7.901
25085WAT     H175497   9.556   4.943   7.975
25085WAT     H275498   9.494   5.045   7.864
25086WAT      O75499   1.030   6.882   1.364
25086WAT     H175500   1.055   6.786   1.347
25086WAT     H275501   0.998   6.923   1.278
25087WAT      O75502   5.198   1.762   8.761
25087WAT     H175503   5.281   1.721   8.798
25087WAT     H275504   5.223   1.842   8.705
25088WAT      O75505   6.084   7.941   0.305
25088WAT     H175506   6.012   7.912   0.367
25088WAT     H275507   6.148   7.866   0.290
25089WAT      O75508   5.288   3.339   8.548
25089WAT     H175509   5.350   3.415   8.528
25089WAT     H275510   5.314   3.259   8.495
25090WAT      O75511   1.911   8.072   7.134
25090WAT     H175512   1.950   7.983   7.109
25090WAT     H275513   1.852   8.061   7.214
25091WAT      O75514   6.631   8.866   9.708
25091WAT     H175515   6.651   8.771   9.731
25091WAT     H275516   6.554   8.899   9.761
25092WAT      O75517   1.047   4.994   1.735
25092WAT     H175518   1.073   4.966   1.828
25092WAT     H275519   0.979   4.930   1.699
25093WAT      O75520   9.691   3.080   5.546
25093WAT     H175521   9.774   3.117   5.506
25093WAT     H275522   9.708   3.054   5.641
25094WAT      O75523   7.359   5.593   9.605
25094WAT     H175524   7.281   5.636   9.560
25094WAT     H275525   7.367   5.626   9.699
25095WAT      O75526   7.804   8.436   8.901
25095WAT     H175527   7.832   8.429   8.997
25095WAT     H275528   7.726   8.375   8.884
25096WAT      O75529   3.513   1.519   1.568
25096WAT     H175530   3.511   1.520   1.667
25096WAT     H275531   3.563   1.599   1.535
25097WAT      O75532   4.104   8.463   2.053
25097WAT     H175533   4.030   8.396   2.052
25097WAT     H275534   4.068   8.553   2.076
25098WAT      O75535   8.417   5.816   1.828
25098WAT     H175536   8.356   5.762   1.886
25098WAT     H275537   8.511   5.786   1.841
25099WAT      O75538   8.725   3.017   6.034
25099WAT     H175539   8.764   2.926   6.024
25099WAT     H275540   8.759   3.059   6.118
25100WAT      O75541   7.732   4.173   3.834
25100WAT     H175542   7.748   4.091   3.890
25100WAT     H275543   7.686   4.147   3.750
25101WAT      O75544   2.248   8.626   5.611
25101WAT     H175545   2.217   8.696   5.546
25101WAT     H275546   2.279   8.670   5.695
25102WAT      O75547   3.382   8.001   7.978
25102WAT     H175548   3.387   8.051   8.065
25102WAT     H275549   3.292   8.014   7.938
25103WAT      O75550   6.666   0.155   2.801
25103WAT     H175551   6.598   0.191   2.864
25103WAT     H275552   6.752   0.204   2.812
25104WAT      O75553   0.770   3.739   0.154
25104WAT     H175554   0.797   3.713   0.061
25104WAT     H275555   0.716   3.665   0.194
25105WAT      O75556   1.378   4.955   3.475
25105WAT     H175557   1.345   4.921   3.387
25105WAT     H275558   1.478   4.957   3.474
25106WAT      O75559   4.949   7.085   1.431
25106WAT     H175560   4.928   7.120   1.522
25106WAT     H275561   4.969   6.988   1.436
25107WAT      O75562   5.066   2.091   0.003
25107WAT     H175563   5.067   2.074   0.101
25107WAT     H275564   5.020   2.014  -0.043
25108WAT      O75565   0.686   9.643   7.829
25108WAT     H175566   0.773   9.684   7.800
25108WAT     H275567   0.699   9.546   7.848
25109WAT      O75568   6.025   0.675   5.134
25109WAT     H175569   6.100   0.676   5.069
25109WAT     H275570   6.059   0.653   5.226
25110WAT      O75571   0.374   8.807   7.426
25110WAT     H175572   0.332   8.840   7.342
25110WAT     H275573   0.384   8.883   7.491
25111WAT      O75574   6.358   9.566   1.886
25111WAT     H175575   6.430   9.587   1.819
25111WAT     H275576   6.270   9.598   1.851
25112WAT      O75577   7.293   4.096   5.775
25112WAT     H175578   7.253   4.172   5.722
25112WAT     H275579   7.220   4.037   5.808
25113WAT      O75580   7.182   3.082   1.608
25113WAT     H175581   7.203   3.146   1.682
25113WAT     H275582   7.230   2.996   1.625
25114WAT      O75583   0.138   9.026   3.961
25114WAT     H175584   0.073   9.062   4.029
25114WAT     H275585   0.181   8.943   3.996
25115WAT      O75586   4.198   1.454   1.660
25115WAT     H175587   4.231   1.488   1.572
25115WAT     H275588   4.198   1.528   1.727
25116WAT      O75589   4.509   2.492   0.007
25116WAT     H175590   4.511   2.578   0.059
25116WAT     H275591   4.505   2.416   0.071
25117WAT      O75592   4.747   2.888   6.111
25117WAT     H175593   4.736   2.803   6.162
25117WAT     H275594   4.674   2.952   6.137
25118WAT      O75595   2.650   9.802   2.274
25118WAT     H175596   2.731   9.854   2.247
25118WAT     H275597   2.612   9.755   2.194
25119WAT      O75598   6.904   8.095   6.439
25119WAT     H175599   6.997   8.133   6.437
25119WAT     H275600   6.868   8.092   6.346
25120WAT      O75601   9.254   4.383   5.541
25120WAT     H175602   9.176   4.366   5.482
25120WAT     H275603   9.288   4.476   5.526
25121WAT      O75604   7.055   8.766   5.708
25121WAT     H175605   7.020   8.736   5.620
25121WAT     H275606   6.987   8.746   5.779
25122WAT      O75607   6.630   2.100   3.174
25122WAT     H175608   6.564   2.173   3.190
25122WAT     H275609   6.588   2.027   3.121
25123WAT      O75610   7.756   7.045   7.165
25123WAT     H175611   7.799   7.105   7.097
25123WAT     H275612   7.754   6.952   7.130
25124WAT      O75613   7.989   1.283   3.316
25124WAT     H175614   8.030   1.244   3.234
25124WAT     H275615   7.978   1.211   3.385
25125WAT      O75616   6.081   1.071   2.777
25125WAT     H175617   6.173   1.104   2.800
25125WAT     H275618   6.013   1.132   2.818
25126WAT      O75619   8.031   9.403   6.991
25126WAT     H175620   8.129   9.393   6.977
25126WAT     H275621   8.012   9.414   7.089
25127WAT      O75622   1.119   9.033   4.264
25127WAT     H175623   1.152   9.122   4.231
25127WAT     H275624   1.194   8.985   4.309
25128WAT      O75625   6.054   3.689   6.648
25128WAT     H175626   5.987   3.759   6.671
25128WAT     H275627   6.069   3.630   6.728
25129WAT      O75628   8.794   2.691   4.494
25129WAT     H175629   8.700   2.692   4.461
25129WAT     H275630   8.845   2.767   4.453
25130WAT      O75631   1.356   6.732   9.695
25130WAT     H175632   1.391   6.688   9.612
25130WAT     H275633   1.334   6.828   9.675
25131WAT      O75634   6.071   5.563   5.877
25131WAT     H175635   5.973   5.548   5.879
25131WAT     H275636   6.108   5.533   5.789
25132WAT      O75637   2.846   7.003   2.986
25132WAT     H175638   2.901   6.939   3.039
25132WAT     H275639   2.890   7.021   2.898
25133WAT      O75640   4.422   3.881   7.526
25133WAT     H175641   4.404   3.971   7.565
25133WAT     H275642   4.494   3.888   7.457
25134WAT      O75643   2.458   8.686   6.367
25134WAT     H175644   2.524   8.654   6.298
25134WAT     H275645   2.459   8.624   6.445
25135WAT      O75646   7.252   0.281   9.211
25135WAT     H175647   7.307   0.278   9.128
25135WAT     H275648   7.272   0.201   9.268
25136WAT      O75649   3.027   5.622   7.403
25136WAT     H175650   2.984   5.705   7.438
25136WAT     H275651   2.983   5.541   7.442
25137WAT      O75652   0.129   3.171   7.497
25137WAT     H175653   0.212   3.164   7.553
25137WAT     H275654   0.071   3.243   7.533
25138WAT      O75655   7.317   5.961   1.374
25138WAT     H175656   7.376   5.883   1.355
25138WAT     H275657   7.355   6.015   1.449
25139WAT      O75658   1.783   5.469   0.798
25139WAT     H175659   1.843   5.431   0.727
25139WAT     H275660   1.839   5.505   0.873
25140WAT      O75661   2.153   1.516   8.319
25140WAT     H175662   2.171   1.600   8.266
25140WAT     H275663   2.129   1.442   8.256
25141WAT      O75664   8.977   4.614   3.937
25141WAT     H175665   9.050   4.682   3.926
25141WAT     H275666   9.012   4.537   3.990
25142WAT      O75667   8.281   9.651   6.168
25142WAT     H175668   8.381   9.654   6.164
25142WAT     H275669   8.253   9.573   6.223
25143WAT      O75670   6.095   2.916   6.782
25143WAT     H175671   6.106   2.847   6.710
25143WAT     H275672   5.998   2.937   6.793
25144WAT      O75673   8.755   6.430   5.416
25144WAT     H175674   8.705   6.346   5.435
25144WAT     H275675   8.808   6.419   5.332
25145WAT      O75676   9.688   5.263   7.959
25145WAT     H175677   9.683   5.291   8.055
25145WAT     H275678   9.678   5.164   7.952
25146WAT      O75679   4.588   5.394   1.344
25146WAT     H175680   4.585   5.450   1.427
25146WAT     H275681   4.674   5.343   1.342
25147WAT      O75682   6.773   1.424   2.933
25147WAT     H175683   6.752   1.498   2.996
25147WAT     H275684   6.810   1.461   2.848
25148WAT      O75685   1.770   3.450   3.206
25148WAT     H175686   1.809   3.542   3.203
25148WAT     H275687   1.671   3.457   3.219
25149WAT      O75688   0.024   4.475   1.060
25149WAT     H175689   0.036   4.418   1.142
25149WAT     H275690   0.062   4.565   1.077
25150WAT      O75691   5.715   1.143   4.845
25150WAT     H175692   5.700   1.052   4.883
25150WAT     H275693   5.806   1.146   4.802
25151WAT      O75694   6.267   1.789   2.624
25151WAT     H175695   6.316   1.845   2.558
25151WAT     H275696   6.197   1.735   2.576
25152WAT      O75697   5.484   9.317   5.417
25152WAT     H175698   5.510   9.232   5.463
25152WAT     H275699   5.432   9.295   5.334
25153WAT      O75700   5.901   8.366   5.030
25153WAT     H175701   5.866   8.455   5.057
25153WAT     H275702   5.827   8.310   4.992
25154WAT      O75703   9.362   4.207   2.078
25154WAT     H175704   9.345   4.259   1.994
25154WAT     H275705   9.451   4.164   2.073
25155WAT      O75706   1.798   3.269   1.027
25155WAT     H175707   1.813   3.248   0.930
25155WAT     H275708   1.879   3.314   1.064
25156WAT      O75709   9.859   3.320   4.013
25156WAT     H175710   9.826   3.231   4.045
25156WAT     H275711   9.784   3.370   3.970
25157WAT      O75712   1.667   7.119   0.466
25157WAT     H175713   1.679   7.106   0.564
25157WAT     H275714   1.571   7.103   0.442
25158WAT      O75715   5.733   0.242   8.074
25158WAT     H175716   5.758   0.263   8.169
25158WAT     H275717   5.708   0.146   8.066
25159WAT      O75718   4.792   4.357   3.371
25159WAT     H175719   4.780   4.343   3.469
25159WAT     H275720   4.721   4.419   3.337
25160WAT      O75721   1.910   6.469   4.911
25160WAT     H175722   1.901   6.558   4.956
25160WAT     H275723   2.004   6.456   4.879
25161WAT      O75724   9.172   2.490   3.440
25161WAT     H175725   9.200   2.526   3.529
25161WAT     H275726   9.111   2.412   3.454
25162WAT      O75727   4.717   1.478   2.236
25162WAT     H175728   4.801   1.525   2.209
25162WAT     H275729   4.728   1.439   2.327
25163WAT      O75730   8.387   6.346   7.865
25163WAT     H175731   8.362   6.405   7.942
25163WAT     H275732   8.486   6.347   7.853
25164WAT      O75733   1.645   8.228   8.299
25164WAT     H175734   1.646   8.135   8.336
25164WAT     H275735   1.572   8.280   8.344
25165WAT      O75736   3.886   1.498   7.219
25165WAT     H175737   3.968   1.452   7.185
25165WAT     H275738   3.817   1.503   7.147
25166WAT      O75739   3.740   0.472   9.599
25166WAT     H175740   3.769   0.458   9.693
25166WAT     H275741   3.695   0.561   9.589
25167WAT      O75742   4.491   1.007   4.756
25167WAT     H175743   4.414   0.944   4.743
25167WAT     H275744   4.535   1.024   4.668
25168WAT      O75745   9.648   7.934   8.706
25168WAT     H175746   9.701   7.918   8.789
25168WAT     H275747   9.613   8.027   8.707
25169WAT      O75748   2.405   6.448   3.647
25169WAT     H175749   2.453   6.377   3.699
25169WAT     H275750   2.460   6.532   3.648
25170WAT      O75751   4.721   3.751   7.521
25170WAT     H175752   4.712   3.703   7.608
25170WAT     H275753   4.777   3.833   7.533
25171WAT      O75754   0.790   2.687   4.225
25171WAT     H175755   0.691   2.696   4.232
25171WAT     H275756   0.812   2.612   4.163
25172WAT      O75757   5.006   8.056   5.690
25172WAT     H175758   4.983   8.090   5.781
25172WAT     H275759   4.933   8.081   5.626
25173WAT      O75760   4.364   4.837   9.368
25173WAT     H175761   4.426   4.899   9.321
25173WAT     H275762   4.411   4.751   9.389
25174WAT      O75763   2.686   9.421   6.101
25174WAT     H175764   2.657   9.349   6.164
25174WAT     H275765   2.728   9.380   6.020
25175WAT      O75766   8.245   8.671   2.453
25175WAT     H175767   8.319   8.604   2.457
25175WAT     H275768   8.247   8.727   2.535
25176WAT      O75769   2.104   4.772   1.782
25176WAT     H175770   2.197   4.784   1.748
25176WAT     H275771   2.084   4.674   1.789
25177WAT      O75772   4.612   9.473   7.005
25177WAT     H175773   4.648   9.382   7.026
25177WAT     H275774   4.662   9.541   7.059
25178WAT      O75775   6.902   1.241   9.082
25178WAT     H175776   6.970   1.284   9.025
25178WAT     H275777   6.945   1.170   9.138
25179WAT      O75778   4.992   1.643   1.374
25179WAT     H175779   4.961   1.728   1.416
25179WAT     H275780   4.948   1.566   1.420
25180WAT      O75781   2.785   6.208   6.521
25180WAT     H175782   2.763   6.123   6.569
25180WAT     H275783   2.837   6.267   6.582
25181WAT      O75784   3.225   9.101   2.573
25181WAT     H175785   3.182   9.180   2.617
25181WAT     H275786   3.322   9.099   2.597
25182WAT      O75787   8.389   2.589   0.339
25182WAT     H175788   8.362   2.513   0.398
25182WAT     H275789   8.465   2.561   0.280
25183WAT      O75790   8.411   1.221   7.621
25183WAT     H175791   8.403   1.276   7.704
25183WAT     H275792   8.392   1.279   7.542
25184WAT      O75793   6.293   3.798   0.746
25184WAT     H175794   6.356   3.855   0.694
25184WAT     H275795   6.257   3.726   0.686
25185WAT      O75796   6.083   9.007   7.439
25185WAT     H175797   6.117   9.082   7.496
25185WAT     H275798   6.069   9.040   7.346
25186WAT      O75799   3.775   7.126   7.777
25186WAT     H175800   3.683   7.161   7.790
25186WAT     H275801   3.772   7.028   7.757
25187WAT      O75802   3.816   6.082   5.674
25187WAT     H175803   3.759   6.019   5.728
25187WAT     H275804   3.876   6.133   5.736
25188WAT      O75805   1.558   9.764   9.269
25188WAT     H175806   1.602   9.718   9.192
25188WAT     H275807   1.483   9.708   9.303
25189WAT      O75808   4.351   9.785   3.094
25189WAT     H175809   4.375   9.698   3.138
25189WAT     H275810   4.428   9.848   3.103
25190WAT      O75811   4.049   8.201   8.660
25190WAT     H175812   3.984   8.262   8.705
25190WAT     H275813   4.005   8.159   8.580
25191WAT      O75814   0.570   0.956   8.910
25191WAT     H175815   0.645   0.975   8.974
25191WAT     H275816   0.596   0.986   8.818
25192WAT      O75817   6.493   9.683   5.747
25192WAT     H175818   6.419   9.615   5.751
25192WAT     H275819   6.533   9.683   5.655
25193WAT      O75820   0.615   6.814   5.259
25193WAT     H175821   0.550   6.863   5.201
25193WAT     H275822   0.629   6.722   5.223
25194WAT      O75823   0.560   9.669   5.680
25194WAT     H175824   0.557   9.738   5.607
25194WAT     H275825   0.476   9.616   5.680
25195WAT      O75826   9.286   0.385   4.233
25195WAT     H175827   9.290   0.401   4.332
25195WAT     H275828   9.194   0.353   4.208
25196WAT      O75829   6.230   4.917   0.699
25196WAT     H175830   6.301   4.896   0.631
25196WAT     H275831   6.273   4.943   0.785
25197WAT      O75832   3.439   4.564   4.780
25197WAT     H175833   3.408   4.481   4.826
25197WAT     H275834   3.454   4.636   4.848
25198WAT      O75835   2.019   8.346   7.265
25198WAT     H175836   2.060   8.259   7.239
25198WAT     H275837   2.077   8.421   7.235
25199WAT      O75838   3.654   4.901   7.005
25199WAT     H175839   3.735   4.937   7.051
25199WAT     H275840   3.670   4.898   6.906
25200WAT      O75841   1.127   6.339   8.724
25200WAT     H175842   1.137   6.316   8.627
25200WAT     H275843   1.060   6.279   8.766
25201WAT      O75844   4.890   5.795   5.207
25201WAT     H175845   4.989   5.791   5.191
25201WAT     H275846   4.852   5.702   5.202
25202WAT      O75847   3.278   6.896   5.896
25202WAT     H175848   3.305   6.988   5.871
25202WAT     H275849   3.281   6.887   5.996
25203WAT      O75850   7.044   8.890   2.219
25203WAT     H175851   6.979   8.814   2.222
25203WAT     H275852   7.135   8.855   2.195
25204WAT      O75853   9.345   3.490   3.607
25204WAT     H175854   9.258   3.538   3.616
25204WAT     H275855   9.374   3.456   3.696
25205WAT      O75856   9.277   8.910   4.070
25205WAT     H175857   9.182   8.883   4.057
25205WAT     H275858   9.319   8.928   3.981
25206WAT      O75859   1.070   1.070   9.675
25206WAT     H175860   1.031   1.089   9.584
25206WAT     H275861   0.997   1.041   9.737
25207WAT      O75862   7.557   0.924   8.039
25207WAT     H175863   7.617   0.987   8.088
25207WAT     H275864   7.544   0.956   7.945
25208WAT      O75865   4.640   5.789   5.871
25208WAT     H175866   4.735   5.774   5.846
25208WAT     H275867   4.590   5.703   5.867
25209WAT      O75868   7.049   5.332   9.373
25209WAT     H175869   7.002   5.419   9.363
25209WAT     H275870   7.135   5.345   9.423
25210WAT      O75871   6.136   7.427   1.234
25210WAT     H175872   6.124   7.382   1.146
25210WAT     H275873   6.164   7.360   1.302
25211WAT      O75874   5.251   9.234   6.226
25211WAT     H175875   5.257   9.310   6.290
25211WAT     H275876   5.337   9.225   6.176
25212WAT      O75877   5.950   8.039   0.094
25212WAT     H175878   5.989   8.084   0.014
25212WAT     H275879   6.023   8.017   0.159
25213WAT      O75880   4.249   9.249   8.460
25213WAT     H175881   4.164   9.221   8.416
25213WAT     H275882   4.281   9.176   8.520
25214WAT      O75883   2.263   3.032   1.259
25214WAT     H175884   2.218   2.946   1.231
25214WAT     H275885   2.298   3.079   1.179
25215WAT      O75886   2.136   3.660   0.665
25215WAT     H175887   2.142   3.583   0.729
25215WAT     H275888   2.132   3.625   0.571
25216WAT      O75889   0.221   7.661   4.459
25216WAT     H175890   0.179   7.678   4.548
25216WAT     H275891   0.295   7.726   4.445
25217WAT      O75892   8.276   2.968   6.561
25217WAT     H175893   8.203   3.016   6.609
25217WAT     H275894   8.360   2.972   6.615
25218WAT      O75895   6.967   3.723   0.159
25218WAT     H175896   6.949   3.629   0.129
25218WAT     H275897   6.883   3.761   0.198
25219WAT      O75898   6.315   4.038   9.789
25219WAT     H175899   6.228   4.030   9.838
25219WAT     H275900   6.371   4.109   9.832
25220WAT      O75901   5.084   8.317   3.937
25220WAT     H175902   5.129   8.403   3.912
25220WAT     H275903   5.087   8.254   3.860
25221WAT      O75904   9.576   5.304   7.209
25221WAT     H175905   9.670   5.297   7.178
25221WAT     H275906   9.517   5.249   7.149
25222WAT      O75907   5.608   1.681   5.739
25222WAT     H175908   5.670   1.639   5.805
25222WAT     H275909   5.661   1.712   5.660
25223WAT      O75910   7.764   7.997   0.619
25223WAT     H175911   7.803   8.038   0.537
25223WAT     H275912   7.694   8.057   0.657
25224WAT      O75913   5.207   4.515   1.709
25224WAT     H175914   5.161   4.447   1.652
25224WAT     H275915   5.170   4.606   1.690
25225WAT      O75916   1.232   1.355   6.695
25225WAT     H175917   1.160   1.409   6.652
25225WAT     H275918   1.267   1.288   6.629
25226WAT      O75919   9.084   3.280   3.876
25226WAT     H175920   9.071   3.268   3.974
25226WAT     H275921   9.024   3.353   3.843
25227WAT      O75922   4.320   1.853   7.652
25227WAT     H175923   4.254   1.780   7.671
25227WAT     H275924   4.400   1.841   7.711
25228WAT      O75925   2.446   1.265   2.176
25228WAT     H175926   2.404   1.186   2.220
25228WAT     H275927   2.455   1.340   2.243
25229WAT      O75928   7.756   2.494   5.969
25229WAT     H175929   7.697   2.413   5.968
25229WAT     H275930   7.803   2.499   6.057
25230WAT      O75931   0.034   4.163   5.716
25230WAT     H175932   0.049   4.109   5.632
25230WAT     H275933  -0.027   4.113   5.777
25231WAT      O75934   5.098   3.804   2.033
25231WAT     H175935   5.109   3.728   2.097
25231WAT     H275936   5.002   3.831   2.029
25232WAT      O75937   4.573   9.529   4.007
25232WAT     H175938   4.649   9.552   4.067
25232WAT     H275939   4.498   9.593   4.022
25233WAT      O75940   4.200   9.702   8.130
25233WAT     H175941   4.299   9.714   8.132
25233WAT     H275942   4.160   9.765   8.063
25234WAT      O75943   2.226   8.453   0.348
25234WAT     H175944   2.174   8.531   0.313
25234WAT     H275945   2.300   8.486   0.407
25235WAT      O75946   5.818   8.805   3.056
25235WAT     H175947   5.799   8.737   3.127
25235WAT     H275948   5.782   8.772   2.969
25236WAT      O75949   3.530   3.930   6.926
25236WAT     H175950   3.513   3.849   6.982
25236WAT     H275951   3.608   3.981   6.962
25237WAT      O75952   1.378   3.976   0.950
25237WAT     H175953   1.422   3.976   1.039
25237WAT     H275954   1.437   4.023   0.884
25238WAT      O75955   8.257   0.313   0.115
25238WAT     H175956   8.299   0.233   0.159
25238WAT     H275957   8.316   0.393   0.129
25239WAT      O75958   8.879   3.858   5.674
25239WAT     H175959   8.956   3.804   5.709
25239WAT     H275960   8.841   3.914   5.748
25240WAT      O75961   2.017   0.362   9.497
25240WAT     H175962   1.985   0.327   9.409
25240WAT     H275963   2.085   0.299   9.535
25241WAT      O75964   4.371   0.722   3.380
25241WAT     H175965   4.457   0.758   3.343
25241WAT     H275966   4.362   0.748   3.476
25242WAT      O75967   8.903   0.038   9.677
25242WAT     H175968   8.955  -0.033   9.629
25242WAT     H275969   8.806   0.031   9.653
25243WAT      O75970   5.024   9.396   0.355
25243WAT     H175971   4.938   9.436   0.387
25243WAT     H275972   5.034   9.412   0.257
25244WAT      O75973   8.033   6.507   7.405
25244WAT     H175974   7.970   6.456   7.346
25244WAT     H275975   8.076   6.445   7.470
25245WAT      O75976   9.180   4.569   3.629
25245WAT     H175977   9.239   4.612   3.699
25245WAT     H275978   9.183   4.624   3.546
25246WAT      O75979   9.380   6.328   6.933
25246WAT     H175980   9.337   6.378   6.858
25246WAT     H275981   9.428   6.392   6.993
25247WAT      O75982   5.127   3.388   5.033
25247WAT     H175983   5.093   3.317   4.972
25247WAT     H275984   5.215   3.422   4.999
25248WAT      O75985   4.049   1.299   9.264
25248WAT     H175986   4.080   1.311   9.358
25248WAT     H275987   3.956   1.263   9.265
25249WAT      O75988   7.338   2.520   2.939
25249WAT     H175989   7.247   2.480   2.927
25249WAT     H275990   7.328   2.615   2.969
25250WAT      O75991   7.959   8.308   2.733
25250WAT     H175992   7.915   8.377   2.790
25250WAT     H275993   8.003   8.353   2.655
25251WAT      O75994   8.810   2.286   6.460
25251WAT     H175995   8.780   2.222   6.389
25251WAT     H275996   8.887   2.340   6.427
25252WAT      O75997   6.831   1.353   0.119
25252WAT     H175998   6.758   1.335   0.052
25252WAT     H275999   6.890   1.425   0.085
25253WAT      O76000   2.387   7.512   1.808
25253WAT     H176001   2.484   7.494   1.797
25253WAT     H276002   2.342   7.432   1.847
25254WAT      O76003   5.425   7.614   5.157
25254WAT     H176004   5.329   7.630   5.182
25254WAT     H276005   5.471   7.567   5.233
25255WAT      O76006   0.046   6.709   2.698
25255WAT     H176007  -0.035   6.653   2.718
25255WAT     H276008   0.019   6.805   2.692
25256WAT      O76009   6.486   4.193   8.160
25256WAT     H176010   6.521   4.186   8.253
25256WAT     H276011   6.401   4.140   8.151
25257WAT      O76012   6.413   0.287   2.299
25257WAT     H176013   6.378   0.302   2.392
25257WAT     H276014   6.509   0.313   2.295
25258WAT      O76015   2.581   6.532   7.773
25258WAT     H176016   2.482   6.533   7.758
25258WAT     H276017   2.628   6.512   7.687
25259WAT      O76018   5.406   7.632   3.446
25259WAT     H176019   5.314   7.600   3.464
25259WAT     H276020   5.471   7.558   3.463
25260WAT      O76021   7.751   0.484   8.566
25260WAT     H176022   7.711   0.432   8.490
25260WAT     H276023   7.715   0.577   8.565
25261WAT      O76024   3.649   5.041   9.208
25261WAT     H176025   3.734   5.028   9.259
25261WAT     H276026   3.670   5.057   9.112
25262WAT      O76027   3.043   9.644   6.510
25262WAT     H176028   3.089   9.556   6.503
25262WAT     H276029   3.007   9.670   6.420
25263WAT      O76030   5.164   7.918   4.095
25263WAT     H176031   5.215   7.858   4.033
25263WAT     H276032   5.185   7.896   4.190
25264WAT      O76033   0.362   9.523   3.447
25264WAT     H176034   0.289   9.506   3.380
25264WAT     H276035   0.390   9.437   3.489
25265WAT      O76036   5.126   6.767   5.536
25265WAT     H176037   5.064   6.792   5.461
25265WAT     H276038   5.220   6.788   5.509
25266WAT      O76039   8.541   4.703   3.121
25266WAT     H176040   8.574   4.613   3.094
25266WAT     H276041   8.442   4.699   3.137
25267WAT      O76042   1.544   4.101   4.671
25267WAT     H176043   1.498   4.136   4.752
25267WAT     H276044   1.630   4.150   4.657
25268WAT      O76045   6.911   6.843   2.768
25268WAT     H176046   6.845   6.794   2.826
25268WAT     H276047   6.952   6.779   2.703
25269WAT      O76048   1.295   4.477   4.684
25269WAT     H176049   1.297   4.377   4.679
25269WAT     H276050   1.354   4.515   4.613
25270WAT      O76051   7.029   2.047   7.793
25270WAT     H176052   6.966   2.124   7.777
25270WAT     H276053   7.068   2.055   7.884
25271WAT      O76054   3.055   0.362   3.178
25271WAT     H176055   3.130   0.296   3.183
25271WAT     H276056   2.980   0.332   3.236
25272WAT      O76057   6.543   7.233   7.223
25272WAT     H176058   6.567   7.221   7.319
25272WAT     H276059   6.475   7.306   7.214
25273WAT      O76060   6.689   8.213   0.487
25273WAT     H176061   6.780   8.209   0.529
25273WAT     H276062   6.654   8.121   0.474
25274WAT      O76063   2.362   9.805   5.158
25274WAT     H176064   2.438   9.745   5.132
25274WAT     H276065   2.279   9.751   5.168
25275WAT      O76066   2.579   6.809   5.801
25275WAT     H176067   2.500   6.816   5.739
25275WAT     H276068   2.600   6.712   5.816
25276WAT      O76069   6.357   5.480   1.796
25276WAT     H176070   6.313   5.471   1.885
25276WAT     H276071   6.448   5.437   1.799
25277WAT      O76072   6.485   4.562   6.161
25277WAT     H176073   6.576   4.523   6.150
25277WAT     H276074   6.456   4.604   6.074
25278WAT      O76075   7.227   1.655   6.093
25278WAT     H176076   7.247   1.692   6.003
25278WAT     H276077   7.303   1.596   6.122
25279WAT      O76078   7.119   8.326   5.214
25279WAT     H176079   7.027   8.312   5.176
25279WAT     H276080   7.183   8.347   5.140
25280WAT      O76081   6.072   9.733   7.579
25280WAT     H176082   6.039   9.795   7.508
25280WAT     H276083   6.009   9.736   7.657
25281WAT      O76084   6.792   0.855   9.174
25281WAT     H176085   6.887   0.882   9.184
25281WAT     H276086   6.774   0.830   9.078
25282WAT      O76087   6.285   2.240   9.285
25282WAT     H176088   6.237   2.158   9.315
25282WAT     H276089   6.219   2.312   9.264
25283WAT      O76090   0.153   6.818   9.283
25283WAT     H176091   0.213   6.836   9.205
25283WAT     H276092   0.085   6.750   9.257
25284WAT      O76093   2.236   2.134   1.235
25284WAT     H176094   2.256   2.046   1.191
25284WAT     H276095   2.311   2.197   1.218
25285WAT      O76096   6.524   7.699   7.190
25285WAT     H176097   6.576   7.693   7.276
25285WAT     H276098   6.474   7.786   7.188
25286WAT      O76099   7.460   6.052   8.409
25286WAT     H176100   7.393   6.039   8.482
25286WAT     H276101   7.503   5.965   8.386
25287WAT      O76102   6.973   4.687   6.522
25287WAT     H176103   6.899   4.741   6.481
25287WAT     H276104   6.952   4.589   6.512
25288WAT      O76105   7.916   3.725   6.253
25288WAT     H176106   7.986   3.699   6.320
25288WAT     H276107   7.831   3.746   6.302
25289WAT      O76108   7.797   3.149   3.846
25289WAT     H176109   7.811   3.239   3.805
25289WAT     H276110   7.723   3.102   3.798
25290WAT      O76111   3.113   0.940   7.537
25290WAT     H176112   3.161   0.906   7.618
25290WAT     H276113   3.162   0.912   7.455
25291WAT      O76114   8.146   0.583   3.349
25291WAT     H176115   8.131   0.613   3.443
25291WAT     H276116   8.206   0.649   3.302
25292WAT      O76117   6.047   2.716   0.403
25292WAT     H176118   6.072   2.805   0.442
25292WAT     H276119   5.955   2.720   0.366
25293WAT      O76120   7.660   1.340   1.462
25293WAT     H176121   7.606   1.317   1.381
25293WAT     H276122   7.653   1.437   1.481
25294WAT      O76123   9.823   6.589   5.056
25294WAT     H176124   9.845   6.616   4.963
25294WAT     H276125   9.827   6.670   5.116
25295WAT      O76126   7.969   4.941   5.925
25295WAT     H176127   7.931   4.849   5.934
25295WAT     H276128   8.002   4.971   6.015
25296WAT      O76129   3.271   0.245   3.488
25296WAT     H176130   3.175   0.271   3.492
25296WAT     H276131   3.315   0.264   3.576
25297WAT      O76132   2.276   8.814   3.905
25297WAT     H176133   2.325   8.901   3.891
25297WAT     H276134   2.279   8.760   3.821
25298WAT      O76135   8.084   3.113   3.888
25298WAT     H176136   8.125   3.196   3.851
25298WAT     H276137   7.985   3.122   3.889
25299WAT      O76138   8.262   6.867   1.637
25299WAT     H176139   8.289   6.963   1.636
25299WAT     H276140   8.208   6.848   1.719
25300WAT      O76141   3.600   2.999   1.441
25300WAT     H176142   3.667   2.926   1.460
25300WAT     H276143   3.649   3.083   1.420
25301WAT      O76144   9.672   9.594   0.187
25301WAT     H176145   9.599   9.562   0.247
25301WAT     H276146   9.755   9.540   0.202
25302WAT      O76147   8.415   5.513   2.910
25302WAT     H176148   8.469   5.590   2.875
25302WAT     H276149   8.361   5.474   2.835
25303WAT      O76150   5.291   5.841   5.393
25303WAT     H176151   5.288   5.939   5.375
25303WAT     H276152   5.383   5.815   5.422
25304WAT      O76153   8.983   3.952   4.542
25304WAT     H176154   9.051   3.884   4.516
25304WAT     H276155   8.928   3.977   4.462
25305WAT      O76156   8.504   5.028   7.715
25305WAT     H176157   8.500   5.075   7.627
25305WAT     H276158   8.564   4.948   7.708
25306WAT      O76159   4.738   4.279   6.444
25306WAT     H176160   4.815   4.308   6.501
25306WAT     H276161   4.684   4.211   6.493
25307WAT      O76162   5.727   9.561   1.363
25307WAT     H176163   5.774   9.474   1.376
25307WAT     H276164   5.629   9.548   1.371
25308WAT      O76165   5.762   8.944   4.364
25308WAT     H176166   5.715   8.916   4.280
25308WAT     H276167   5.861   8.942   4.350
25309WAT      O76168   0.043   7.737   5.868
25309WAT     H176169   0.082   7.793   5.941
25309WAT     H276170  -0.006   7.660   5.909
25310WAT      O76171   9.565   8.044   4.539
25310WAT     H176172   9.642   8.107   4.547
25310WAT     H276173   9.528   8.048   4.446
25311WAT      O76174   4.087   5.625   5.239
25311WAT     H176175   4.112   5.620   5.142
25311WAT     H276176   4.169   5.612   5.294
25312WAT      O76177   3.066   9.739   9.423
25312WAT     H176178   3.038   9.701   9.511
25312WAT     H276179   3.033   9.834   9.416
25313WAT      O76180   0.748   3.576   0.501
25313WAT     H176181   0.821   3.640   0.476
25313WAT     H276182   0.713   3.532   0.418
25314WAT      O76183   6.607   4.105   9.139
25314WAT     H176184   6.627   4.148   9.051
25314WAT     H276185   6.510   4.082   9.143
25315WAT      O76186   1.840   7.756   3.225
25315WAT     H176187   1.880   7.778   3.137
25315WAT     H276188   1.845   7.657   3.240
25316WAT      O76189   7.075   9.781   8.720
25316WAT     H176190   7.114   9.690   8.735
25316WAT     H276191   6.985   9.787   8.763
25317WAT      O76192   7.460   8.438   2.640
25317WAT     H176193   7.477   8.347   2.677
25317WAT     H276194   7.409   8.431   2.555
25318WAT      O76195   7.207   6.499   1.654
25318WAT     H176196   7.228   6.490   1.557
25318WAT     H276197   7.108   6.496   1.667
25319WAT      O76198   6.834   6.032   7.878
25319WAT     H176199   6.751   6.014   7.931
25319WAT     H276200   6.813   6.090   7.800
25320WAT      O76201   1.242   5.824   8.141
25320WAT     H176202   1.269   5.734   8.174
25320WAT     H276203   1.293   5.846   8.058
25321WAT      O76204   4.599   0.208   1.552
25321WAT     H176205   4.688   0.195   1.509
25321WAT     H276206   4.563   0.298   1.527
25322WAT      O76207   9.725   4.584   7.281
25322WAT     H176208   9.712   4.614   7.375
25322WAT     H276209   9.684   4.494   7.269
25323WAT      O76210   9.600   2.011   5.857
25323WAT     H176211   9.502   2.011   5.873
25323WAT     H276212   9.627   1.926   5.812
25324WAT      O76213   0.213   3.294   9.380
25324WAT     H176214   0.138   3.300   9.313
25324WAT     H276215   0.299   3.276   9.332
25325WAT      O76216   5.054   0.009   3.912
25325WAT     H176217   5.102   0.059   3.984
25325WAT     H276218   5.118  -0.054   3.867
25326WAT      O76219   2.900   4.159   0.328
25326WAT     H176220   2.939   4.209   0.250
25326WAT     H276221   2.811   4.199   0.351
25327WAT      O76222   0.613   4.052   5.117
25327WAT     H176223   0.692   4.022   5.065
25327WAT     H276224   0.572   4.131   5.072
25328WAT      O76225   3.357   0.119   7.407
25328WAT     H176226   3.303   0.174   7.471
25328WAT     H276227   3.422   0.178   7.359
25329WAT      O76228   9.177   7.349   4.728
25329WAT     H176229   9.260   7.396   4.759
25329WAT     H276230   9.202   7.260   4.690
25330WAT      O76231   3.294   2.604   4.750
25330WAT     H176232   3.297   2.643   4.658
25330WAT     H276233   3.331   2.670   4.816
25331WAT      O76234   4.596   2.054   6.675
25331WAT     H176235   4.642   1.973   6.711
25331WAT     H276236   4.642   2.085   6.592
25332WAT      O76237   3.513   5.705   0.303
25332WAT     H176238   3.571   5.700   0.385
25332WAT     H276239   3.563   5.747   0.228
25333WAT      O76240   7.821   3.550   2.693
25333WAT     H176241   7.790   3.568   2.599
25333WAT     H276242   7.782   3.619   2.754
25334WAT      O76243   5.435   7.250   6.486
25334WAT     H176244   5.352   7.207   6.521
25334WAT     H276245   5.511   7.232   6.549
25335WAT      O76246   1.974   3.043   3.053
25335WAT     H176247   1.950   2.971   2.988
25335WAT     H276248   1.909   3.043   3.129
25336WAT      O76249   1.180   0.269   5.483
25336WAT     H176250   1.089   0.239   5.511
25336WAT     H276251   1.173   0.327   5.402
25337WAT      O76252   4.368   7.920   8.740
25337WAT     H176253   4.268   7.920   8.749
25337WAT     H276254   4.409   7.888   8.825
25338WAT      O76255   6.752   4.051   4.704
25338WAT     H176256   6.727   4.143   4.734
25338WAT     H276257   6.851   4.045   4.691
25339WAT      O76258   9.312   7.274   6.148
25339WAT     H176259   9.260   7.342   6.200
25339WAT     H276260   9.377   7.228   6.209
25340WAT      O76261   2.299   5.171   8.925
25340WAT     H176262   2.237   5.127   8.990
25340WAT     H276263   2.389   5.181   8.967
25341WAT      O76264   1.679   4.653   2.112
25341WAT     H176265   1.771   4.675   2.081
25341WAT     H276266   1.680   4.566   2.161
25342WAT      O76267   0.736   8.661   2.935
25342WAT     H176268   0.767   8.590   2.997
25342WAT     H276269   0.779   8.649   2.846
25343WAT      O76270   3.948   8.752   2.690
25343WAT     H176271   3.870   8.700   2.724
25343WAT     H276272   4.031   8.696   2.697
25344WAT      O76273   9.023   3.846   1.737
25344WAT     H176274   9.070   3.801   1.662
25344WAT     H276275   9.039   3.796   1.822
25345WAT      O76276   6.874   8.924   0.866
25345WAT     H176277   6.817   8.878   0.797
25345WAT     H276278   6.961   8.875   0.874
25346WAT      O76279   4.302   5.602   0.955
25346WAT     H176280   4.285   5.503   0.961
25346WAT     H276281   4.231   5.644   0.899
25347WAT      O76282   8.775   6.715   7.648
25347WAT     H176283   8.788   6.794   7.588
25347WAT     H276284   8.709   6.653   7.606
25348WAT      O76285   1.892   6.870   6.348
25348WAT     H176286   1.895   6.771   6.356
25348WAT     H276287   1.942   6.912   6.424
25349WAT      O76288   0.793   9.235   1.042
25349WAT     H176289   0.697   9.251   1.018
25349WAT     H276290   0.841   9.323   1.047
25350WAT      O76291   1.641   2.255   6.835
25350WAT     H176292   1.605   2.164   6.854
25350WAT     H276293   1.713   2.277   6.902
25351WAT      O76294   9.023   4.779   6.016
25351WAT     H176295   9.089   4.724   5.964
25351WAT     H276296   8.975   4.841   5.954
25352WAT      O76297   1.548   0.808   7.730
25352WAT     H176298   1.524   0.905   7.718
25352WAT     H276299   1.561   0.766   7.641
25353WAT      O76300   1.877   9.781   5.897
25353WAT     H176301   1.888   9.688   5.931
25353WAT     H276302   1.851   9.841   5.973
25354WAT      O76303   9.186   0.716   2.431
25354WAT     H176304   9.261   0.650   2.425
25354WAT     H276305   9.222   0.805   2.458
25355WAT      O76306   3.372   5.679   6.486
25355WAT     H176307   3.372   5.637   6.395
25355WAT     H276308   3.383   5.609   6.556
25356WAT      O76309   6.253   5.141   1.356
25356WAT     H176310   6.258   5.130   1.257
25356WAT     H276311   6.314   5.075   1.400
25357WAT      O76312   1.823   1.444   1.388
25357WAT     H176313   1.779   1.465   1.301
25357WAT     H276314   1.908   1.497   1.396
25358WAT      O76315   5.851   6.936   8.251
25358WAT     H176316   5.935   6.919   8.304
25358WAT     H276317   5.798   7.009   8.295
25359WAT      O76318   4.029   9.785   2.177
25359WAT     H176319   4.020   9.857   2.245
25359WAT     H276320   3.963   9.712   2.197
25360WAT      O76321   7.112   1.563   9.809
25360WAT     H176322   7.028   1.517   9.779
25360WAT     H276323   7.142   1.627   9.739
25361WAT      O76324   3.560   0.628   7.715
25361WAT     H176325   3.566   0.531   7.739
25361WAT     H276326   3.648   0.672   7.731
25362WAT      O76327   3.989   5.663   3.208
25362WAT     H176328   4.048   5.742   3.189
25362WAT     H276329   4.046   5.582   3.224
25363WAT      O76330   8.894   7.335   0.538
25363WAT     H176331   8.810   7.281   0.546
25363WAT     H276332   8.873   7.423   0.497
25364WAT      O76333   6.314   0.416   4.415
25364WAT     H176334   6.383   0.404   4.344
25364WAT     H276335   6.273   0.328   4.437
25365WAT      O76336   1.660   4.429   3.656
25365WAT     H176337   1.697   4.338   3.641
25365WAT     H276338   1.659   4.449   3.754
25366WAT      O76339   8.066   8.846   3.826
25366WAT     H176340   8.049   8.841   3.728
25366WAT     H276341   8.159   8.876   3.842
25367WAT      O76342   8.537   5.549   1.706
25367WAT     H176343   8.610   5.608   1.741
25367WAT     H276344   8.448   5.586   1.734
25368WAT      O76345   6.586   2.189   2.125
25368WAT     H176346   6.660   2.242   2.167
25368WAT     H276347   6.589   2.095   2.160
25369WAT      O76348   4.289   6.902   6.935
25369WAT     H176349   4.344   6.977   6.972
25369WAT     H276350   4.309   6.818   6.986
25370WAT      O76351   4.851   6.323   5.936
25370WAT     H176352   4.944   6.360   5.945
25370WAT     H276353   4.816   6.298   6.026
25371WAT      O76354   4.372   3.335   8.525
25371WAT     H176355   4.459   3.303   8.488
25371WAT     H276356   4.300   3.269   8.503
25372WAT      O76357   9.384   5.268   9.210
25372WAT     H176358   9.391   5.168   9.209
25372WAT     H276359   9.435   5.304   9.288
25373WAT      O76360   7.398   2.010   7.051
25373WAT     H176361   7.372   2.101   7.021
25373WAT     H276362   7.487   1.985   7.011
25374WAT      O76363   1.372   8.378   9.646
25374WAT     H176364   1.385   8.350   9.741
25374WAT     H276365   1.402   8.473   9.635
25375WAT      O76366   8.130   1.105   6.383
25375WAT     H176367   8.229   1.114   6.366
25375WAT     H276368   8.081   1.115   6.297
25376WAT      O76369   0.477   3.203   2.736
25376WAT     H176370   0.520   3.293   2.749
25376WAT     H276371   0.548   3.135   2.720
25377WAT      O76372   3.843   3.428   8.609
25377WAT     H176373   3.887   3.341   8.588
25377WAT     H276374   3.907   3.487   8.658
25378WAT      O76375   1.756   0.310   6.332
25378WAT     H176376   1.837   0.304   6.391
25378WAT     H276377   1.780   0.357   6.247
25379WAT      O76378   0.591   4.532   5.027
25379WAT     H176379   0.669   4.560   4.971
25379WAT     H276380   0.606   4.561   5.122
25380WAT      O76381   9.182   0.945   9.475
25380WAT     H176382   9.250   0.969   9.406
25380WAT     H276383   9.187   1.010   9.550
25381WAT      O76384   6.508   2.245   2.509
25381WAT     H176385   6.505   2.181   2.586
25381WAT     H276386   6.430   2.229   2.449
25382WAT      O76387   2.201   4.830   8.954
25382WAT     H176388   2.271   4.790   9.013
25382WAT     H276389   2.242   4.859   8.868
25383WAT      O76390   4.720   4.652   6.293
25383WAT     H176391   4.699   4.593   6.215
25383WAT     H276392   4.644   4.714   6.309
25384WAT      O76393   1.978   8.169   3.951
25384WAT     H176394   2.006   8.101   3.883
25384WAT     H276395   1.879   8.180   3.949
25385WAT      O76396   3.490   0.722   3.287
25385WAT     H176397   3.404   0.672   3.274
25385WAT     H276398   3.534   0.693   3.371
25386WAT      O76399   6.145   0.338   1.327
25386WAT     H176400   6.200   0.333   1.410
25386WAT     H276401   6.201   0.376   1.252
25387WAT      O76402   3.976   4.612   8.823
25387WAT     H176403   3.949   4.625   8.727
25387WAT     H276404   4.070   4.643   8.835
25388WAT      O76405   4.731   9.733   1.439
25388WAT     H176406   4.711   9.734   1.537
25388WAT     H276407   4.757   9.824   1.409
25389WAT      O76408   3.472   0.460   3.031
25389WAT     H176409   3.460   0.410   2.945
25389WAT     H276410   3.383   0.470   3.076
25390WAT      O76411   7.421   5.714   5.928
25390WAT     H176412   7.346   5.725   5.864
25390WAT     H276413   7.404   5.770   6.009
25391WAT      O76414   3.279   9.785   4.667
25391WAT     H176415   3.245   9.818   4.755
25391WAT     H276416   3.333   9.702   4.680
25392WAT      O76417   1.505   4.931   4.078
25392WAT     H176418   1.514   4.841   4.035
25392WAT     H276419   1.485   4.919   4.176
25393WAT      O76420   7.412   0.524   2.310
25393WAT     H176421   7.453   0.438   2.341
25393WAT     H276422   7.473   0.566   2.243
25394WAT      O76423   6.869   7.145   1.409
25394WAT     H176424   6.956   7.174   1.371
25394WAT     H276425   6.839   7.061   1.365
25395WAT      O76426   7.967   5.364   2.107
25395WAT     H176427   7.898   5.406   2.166
25395WAT     H276428   7.956   5.399   2.013
25396WAT      O76429   4.783   3.420   8.416
25396WAT     H176430   4.774   3.477   8.498
25396WAT     H276431   4.700   3.366   8.404
25397WAT      O76432   4.451   2.531   3.417
25397WAT     H176433   4.526   2.482   3.373
25397WAT     H276434   4.439   2.620   3.374
25398WAT      O76435   7.010   6.687   7.977
25398WAT     H176436   7.098   6.705   7.935
25398WAT     H276437   6.976   6.770   8.020
25399WAT      O76438   1.347   7.427   4.376
25399WAT     H176439   1.353   7.481   4.460
25399WAT     H276440   1.429   7.370   4.366
25400WAT      O76441   5.920   7.837   6.898
25400WAT     H176442   5.966   7.779   6.832
25400WAT     H276443   5.960   7.929   6.896
25401WAT      O76444   4.502   1.264   2.477
25401WAT     H176445   4.439   1.281   2.554
25401WAT     H276446   4.478   1.177   2.434
25402WAT      O76447   8.791   2.863   3.213
25402WAT     H176448   8.781   2.813   3.127
25402WAT     H276449   8.769   2.959   3.199
25403WAT      O76450   0.853   1.631   0.053
25403WAT     H176451   0.800   1.663   0.132
25403WAT     H276452   0.921   1.699   0.028
25404WAT      O76453   1.257   5.241   6.287
25404WAT     H176454   1.169   5.229   6.333
25404WAT     H276455   1.273   5.338   6.270
25405WAT      O76456   9.392   8.488   2.353
25405WAT     H176457   9.434   8.468   2.441
25405WAT     H276458   9.436   8.568   2.312
25406WAT      O76459   4.327   4.593   3.965
25406WAT     H176460   4.378   4.631   4.043
25406WAT     H276461   4.385   4.528   3.916
25407WAT      O76462   5.072   9.791   5.121
25407WAT     H176463   4.992   9.834   5.079
25407WAT     H276464   5.155   9.830   5.081
25408WAT      O76465   2.252   6.555   0.813
25408WAT     H176466   2.267   6.634   0.872
25408WAT     H276467   2.255   6.471   0.868
25409WAT      O76468   7.869   4.154   5.040
25409WAT     H176469   7.823   4.089   5.100
25409WAT     H276470   7.850   4.131   4.944
25410WAT      O76471   6.049   1.190   1.829
25410WAT     H176472   6.011   1.098   1.830
25410WAT     H276473   6.070   1.219   1.923
25411WAT      O76474   6.435   9.440   0.055
25411WAT     H176475   6.432   9.433   0.155
25411WAT     H276476   6.352   9.484   0.023
25412WAT      O76477   5.340   0.993   4.663
25412WAT     H176478   5.261   1.014   4.605
25412WAT     H276479   5.397   1.074   4.673
25413WAT      O76480   3.545   4.710   4.095
25413WAT     H176481   3.637   4.691   4.129
25413WAT     H276482   3.498   4.772   4.158
25414WAT      O76483   3.354   0.855   7.155
25414WAT     H176484   3.446   0.836   7.190
25414WAT     H276485   3.348   0.827   7.060
25415WAT      O76486   3.983   6.634   6.205
25415WAT     H176487   3.955   6.633   6.109
25415WAT     H276488   3.926   6.699   6.256
25416WAT      O76489   2.229   8.472   8.681
25416WAT     H176490   2.308   8.484   8.741
25416WAT     H276491   2.246   8.519   8.594
25417WAT      O76492   4.696   3.853   4.985
25417WAT     H176493   4.752   3.796   4.924
25417WAT     H276494   4.600   3.830   4.973
25418WAT      O76495   7.393   7.867   8.641
25418WAT     H176496   7.328   7.903   8.708
25418WAT     H276497   7.433   7.782   8.675
25419WAT      O76498   3.795   2.788   4.595
25419WAT     H176499   3.736   2.708   4.609
25419WAT     H276500   3.880   2.775   4.645
25420WAT      O76501   9.686   3.519   1.766
25420WAT     H176502   9.726   3.594   1.714
25420WAT     H276503   9.747   3.494   1.842
25421WAT      O76504   0.449   2.163   1.367
25421WAT     H176505   0.473   2.081   1.315
25421WAT     H276506   0.352   2.161   1.391
25422WAT      O76507   2.981   6.092   5.661
25422WAT     H176508   3.064   6.040   5.679
25422WAT     H276509   2.928   6.048   5.589
25423WAT      O76510   7.261   7.427   8.849
25423WAT     H176511   7.308   7.458   8.766
25423WAT     H276512   7.163   7.419   8.831
25424WAT      O76513   8.294   1.923   5.707
25424WAT     H176514   8.253   1.993   5.649
25424WAT     H276515   8.225   1.856   5.734
25425WAT      O76516   5.585   9.126   2.879
25425WAT     H176517   5.574   9.224   2.863
25425WAT     H276518   5.585   9.107   2.977
25426WAT      O76519   5.162   4.449   0.737
25426WAT     H176520   5.140   4.407   0.649
25426WAT     H276521   5.080   4.452   0.794
25427WAT      O76522   0.203   7.890   3.258
25427WAT     H176523   0.127   7.850   3.208
25427WAT     H276524   0.196   7.990   3.257
25428WAT      O76525   5.911   9.340   4.410
25428WAT     H176526   5.962   9.352   4.324
25428WAT     H276527   5.971   9.302   4.480
25429WAT      O76528   9.778   7.055   1.102
25429WAT     H176529   9.714   7.132   1.104
25429WAT     H276530   9.843   7.064   1.178
25430WAT      O76531   2.646   3.940   7.998
25430WAT     H176532   2.600   3.852   8.007
25430WAT     H276533   2.658   3.981   8.089
25431WAT      O76534   2.567   4.878   7.470
25431WAT     H176535   2.631   4.853   7.543
25431WAT     H276536   2.476   4.891   7.509
25432WAT      O76537   2.141   6.940   3.221
25432WAT     H176538   2.141   7.026   3.272
25432WAT     H276539   2.104   6.867   3.279
25433WAT      O76540   5.157   8.966   5.901
25433WAT     H176541   5.195   9.030   5.834
25433WAT     H276542   5.113   9.017   5.975
25434WAT      O76543   3.824   1.616   1.616
25434WAT     H176544   3.813   1.575   1.706
25434WAT     H276545   3.735   1.650   1.584
25435WAT      O76546   3.543   1.734   2.010
25435WAT     H176547   3.590   1.807   1.962
25435WAT     H276548   3.565   1.738   2.108
25436WAT      O76549   8.759   7.750   3.649
25436WAT     H176550   8.780   7.734   3.745
25436WAT     H276551   8.661   7.737   3.634
25437WAT      O76552   1.284   9.306   4.970
25437WAT     H176553   1.246   9.398   4.957
25437WAT     H276554   1.211   9.238   4.963
25438WAT      O76555   0.537   1.261   4.540
25438WAT     H176556   0.458   1.309   4.504
25438WAT     H276557   0.534   1.165   4.512
25439WAT      O76558   4.684   5.240   0.312
25439WAT     H176559   4.657   5.254   0.217
25439WAT     H276560   4.783   5.231   0.317
25440WAT      O76561   9.709   8.322   8.919
25440WAT     H176562   9.772   8.245   8.914
25440WAT     H276563   9.759   8.407   8.903
25441WAT      O76564   7.058   9.145   6.023
25441WAT     H176565   7.081   9.093   5.941
25441WAT     H276566   7.111   9.229   6.025
25442WAT      O76567   2.435   5.696   8.056
25442WAT     H176568   2.450   5.746   8.142
25442WAT     H276569   2.507   5.628   8.045
25443WAT      O76570   3.948   1.694   8.201
25443WAT     H176571   3.860   1.667   8.161
25443WAT     H276572   4.001   1.612   8.223
25444WAT      O76573   5.841   5.243   6.047
25444WAT     H176574   5.762   5.248   6.107
25444WAT     H276575   5.822   5.179   5.972
25445WAT      O76576   1.299   1.782   3.623
25445WAT     H176577   1.204   1.803   3.648
25445WAT     H276578   1.361   1.828   3.686
25446WAT      O76579   9.482   6.949   0.759
25446WAT     H176580   9.532   6.865   0.780
25446WAT     H276581   9.462   6.998   0.844
25447WAT      O76582   8.971   0.435   4.394
25447WAT     H176583   9.053   0.442   4.451
25447WAT     H276584   8.998   0.420   4.299
25448WAT      O76585   2.340   6.160   2.711
25448WAT     H176586   2.387   6.075   2.733
25448WAT     H276587   2.286   6.148   2.628
25449WAT      O76588   8.541   2.038   6.273
25449WAT     H176589   8.639   2.046   6.252
25449WAT     H276590   8.488   2.046   6.189
25450WAT      O76591   5.285   9.747   9.203
25450WAT     H176592   5.267   9.673   9.139
25450WAT     H276593   5.382   9.748   9.227
25451WAT      O76594   9.426   7.076   2.040
25451WAT     H176595   9.506   7.046   1.987
25451WAT     H276596   9.403   7.007   2.108
25452WAT      O76597   5.726   2.968   0.617
25452WAT     H176598   5.706   2.925   0.528
25452WAT     H276599   5.640   2.986   0.665
25453WAT      O76600   7.424   6.226   0.721
25453WAT     H176601   7.386   6.318   0.730
25453WAT     H276602   7.466   6.198   0.808
25454WAT      O76603   6.581   1.660   6.484
25454WAT     H176604   6.590   1.581   6.423
25454WAT     H276605   6.589   1.744   6.431
25455WAT      O76606   1.586   1.759   1.075
25455WAT     H176607   1.682   1.758   1.104
25455WAT     H276608   1.528   1.773   1.155
25456WAT      O76609   0.885   9.423   2.761
25456WAT     H176610   0.940   9.444   2.679
25456WAT     H276611   0.802   9.480   2.760
25457WAT      O76612   3.465   4.578   0.718
25457WAT     H176613   3.488   4.589   0.815
25457WAT     H276614   3.521   4.505   0.679
25458WAT      O76615   4.201   1.722   2.270
25458WAT     H176616   4.218   1.738   2.173
25458WAT     H276617   4.224   1.804   2.323
25459WAT      O76618   0.648   2.770   3.084
25459WAT     H176619   0.585   2.707   3.129
25459WAT     H276620   0.596   2.846   3.043
25460WAT      O76621   7.000   3.870   4.458
25460WAT     H176622   6.919   3.864   4.400
25460WAT     H276623   6.987   3.943   4.526
25461WAT      O76624   8.466   9.831   6.433
25461WAT     H176625   8.383   9.799   6.480
25461WAT     H276626   8.546   9.809   6.489
25462WAT      O76627   7.463   9.322   8.045
25462WAT     H176628   7.389   9.301   8.109
25462WAT     H276629   7.548   9.337   8.095
25463WAT      O76630   7.710   2.030   1.708
25463WAT     H176631   7.791   1.972   1.695
25463WAT     H276632   7.731   2.122   1.677
25464WAT      O76633   3.855   7.921   2.710
25464WAT     H176634   3.897   7.849   2.654
25464WAT     H276635   3.775   7.957   2.664
25465WAT      O76636   7.037   8.554   6.961
25465WAT     H176637   7.057   8.458   6.941
25465WAT     H276638   6.980   8.560   7.043
25466WAT      O76639   7.679   5.367   4.112
25466WAT     H176640   7.667   5.268   4.106
25466WAT     H276641   7.689   5.405   4.019
25467WAT      O76642   3.972   8.280   9.340
25467WAT     H176643   3.939   8.365   9.299
25467WAT     H276644   3.970   8.207   9.271
25468WAT      O76645   4.882   3.452   3.515
25468WAT     H176646   4.914   3.523   3.578
25468WAT     H276647   4.790   3.475   3.483
25469WAT      O76648   1.250   5.896   0.900
25469WAT     H176649   1.263   5.975   0.961
25469WAT     H276650   1.247   5.812   0.954
25470WAT      O76651   9.503   7.858   1.173
25470WAT     H176652   9.445   7.865   1.254
25470WAT     H276653   9.520   7.762   1.152
25471WAT      O76654   7.402   7.868   2.461
25471WAT     H176655   7.478   7.920   2.501
25471WAT     H276656   7.315   7.904   2.495
25472WAT      O76657   5.578   8.624   6.306
25472WAT     H176658   5.525   8.618   6.390
25472WAT     H276659   5.553   8.708   6.258
25473WAT      O76660   5.192   2.238   1.738
25473WAT     H176661   5.122   2.170   1.759
25473WAT     H276662   5.259   2.241   1.813
25474WAT      O76663   3.726   8.079   4.942
25474WAT     H176664   3.737   7.984   4.913
25474WAT     H276665   3.636   8.091   4.984
25475WAT      O76666   3.619   5.671   0.542
25475WAT     H176667   3.605   5.713   0.632
25475WAT     H276668   3.631   5.572   0.553
25476WAT      O76669   8.942   6.812   2.607
25476WAT     H176670   8.981   6.733   2.655
25476WAT     H276671   9.017   6.869   2.572
25477WAT      O76672   9.139   8.669   6.002
25477WAT     H176673   9.048   8.699   6.032
25477WAT     H276674   9.146   8.570   6.010
25478WAT      O76675   2.969   1.032   0.791
25478WAT     H176676   3.005   1.008   0.701
25478WAT     H276677   3.017   1.114   0.824
25479WAT      O76678   9.473   2.112   0.288
25479WAT     H176679   9.544   2.180   0.268
25479WAT     H276680   9.402   2.154   0.345
25480WAT      O76681   1.293   4.580   5.292
25480WAT     H176682   1.248   4.584   5.203
25480WAT     H276683   1.340   4.666   5.310
25481WAT      O76684   2.069   8.347   0.569
25481WAT     H176685   2.043   8.397   0.652
25481WAT     H276686   2.136   8.400   0.518
25482WAT      O76687   3.141   7.957   0.142
25482WAT     H176688   3.189   7.965   0.054
25482WAT     H276689   3.043   7.950   0.125
25483WAT      O76690   2.817   5.725   3.429
25483WAT     H176691   2.846   5.755   3.520
25483WAT     H276692   2.894   5.683   3.382
25484WAT      O76693   8.803   8.557   2.603
25484WAT     H176694   8.863   8.616   2.658
25484WAT     H276695   8.842   8.547   2.512
25485WAT      O76696   6.414   2.333   1.598
25485WAT     H176697   6.482   2.385   1.648
25485WAT     H276698   6.459   2.273   1.531
25486WAT      O76699   3.526   7.942   9.426
25486WAT     H176700   3.553   7.979   9.515
25486WAT     H276701   3.450   7.996   9.390
25487WAT      O76702   9.613   1.672   6.203
25487WAT     H176703   9.595   1.622   6.119
25487WAT     H276704   9.685   1.627   6.255
25488WAT      O76705   4.377   4.544   5.270
25488WAT     H176706   4.421   4.485   5.203
25488WAT     H276707   4.428   4.539   5.357
25489WAT      O76708   2.667   0.621   6.227
25489WAT     H176709   2.717   0.540   6.258
25489WAT     H276710   2.685   0.697   6.289
25490WAT      O76711   1.618   9.290   7.981
25490WAT     H176712   1.692   9.322   8.041
25490WAT     H276713   1.584   9.202   8.015
25491WAT      O76714   6.921   4.978   7.096
25491WAT     H176715   6.979   5.026   7.029
25491WAT     H276716   6.971   4.967   7.182
25492WAT      O76717   9.149   9.127   7.527
25492WAT     H176718   9.132   9.173   7.614
25492WAT     H276719   9.065   9.081   7.497
25493WAT      O76720   3.729   3.482   9.682
25493WAT     H176721   3.700   3.419   9.754
25493WAT     H276722   3.669   3.471   9.602
25494WAT      O76723   9.364   4.114   0.252
25494WAT     H176724   9.437   4.055   0.285
25494WAT     H276725   9.397   4.208   0.245
25495WAT      O76726   0.526   5.523   0.141
25495WAT     H176727   0.444   5.485   0.099
25495WAT     H276728   0.501   5.576   0.222
25496WAT      O76729   8.242   4.050   7.821
25496WAT     H176730   8.278   4.141   7.805
25496WAT     H276731   8.173   4.053   7.893
25497WAT      O76732   7.192   0.406   4.317
25497WAT     H176733   7.147   0.447   4.238
25497WAT     H276734   7.161   0.312   4.329
25498WAT      O76735   1.348   0.637   2.426
25498WAT     H176736   1.383   0.683   2.508
25498WAT     H276737   1.378   0.542   2.425
25499WAT      O76738   4.164   6.866   1.690
25499WAT     H176739   4.104   6.821   1.624
25499WAT     H276740   4.259   6.857   1.660
25500WAT      O76741   2.812   4.475   4.014
25500WAT     H176742   2.733   4.421   3.984
25500WAT     H276743   2.890   4.415   4.029
25501WAT      O76744   0.022   6.325   5.087
25501WAT     H176745   0.096   6.321   5.154
25501WAT     H276746  -0.021   6.415   5.090
25502WAT      O76747   7.960   4.726   2.748
25502WAT     H176748   8.033   4.714   2.681
25502WAT     H276749   7.999   4.748   2.837
25503WAT      O76750   1.550   2.912   5.950
25503WAT     H176751   1.489   2.900   6.029
25503WAT     H276752   1.645   2.919   5.982
25504WAT      O76753   8.053   4.823   7.368
25504WAT     H176754   8.151   4.837   7.376
25504WAT     H276755   8.013   4.813   7.459
25505WAT      O76756   2.024   1.927   0.703
25505WAT     H176757   1.989   1.944   0.611
25505WAT     H276758   1.948   1.914   0.766
25506WAT      O76759   9.723   6.802   8.405
25506WAT     H176760   9.654   6.737   8.374
25506WAT     H276761   9.712   6.818   8.504
25507WAT      O76762   2.072   5.218   3.286
25507WAT     H176763   2.126   5.232   3.368
25507WAT     H276764   1.997   5.284   3.283
25508WAT      O76765   2.600   9.221   3.249
25508WAT     H176766   2.657   9.261   3.177
25508WAT     H276767   2.507   9.257   3.243
25509WAT      O76768   4.243   3.208   5.278
25509WAT     H176769   4.295   3.193   5.363
25509WAT     H276770   4.185   3.129   5.261
25510WAT      O76771   7.217   4.531   6.322
25510WAT     H176772   7.259   4.618   6.348
25510WAT     H276773   7.165   4.543   6.237
25511WAT      O76774   9.529   4.128   5.113
25511WAT     H176775   9.461   4.057   5.095
25511WAT     H276776   9.550   4.130   5.211
25512WAT      O76777   3.627   0.722   8.421
25512WAT     H176778   3.606   0.626   8.442
25512WAT     H276779   3.619   0.776   8.505
25513WAT      O76780   1.613   7.348   8.478
25513WAT     H176781   1.612   7.324   8.381
25513WAT     H276782   1.520   7.372   8.507
25514WAT      O76783   1.795   5.177   2.011
25514WAT     H176784   1.842   5.116   1.947
25514WAT     H276785   1.813   5.272   1.985
25515WAT      O76786   7.435   0.087   2.143
25515WAT     H176787   7.336   0.083   2.158
25515WAT     H276788   7.453   0.102   2.046
25516WAT      O76789   5.318   5.477   8.902
25516WAT     H176790   5.282   5.384   8.917
25516WAT     H276791   5.249   5.533   8.858
25517WAT      O76792   2.820   0.253   5.109
25517WAT     H176793   2.751   0.246   5.181
25517WAT     H276794   2.782   0.304   5.032
25518WAT      O76795   2.691   2.118   0.230
25518WAT     H176796   2.787   2.095   0.243
25518WAT     H276797   2.660   2.085   0.141
25519WAT      O76798   0.016   2.279   3.656
25519WAT     H176799  -0.063   2.305   3.711
25519WAT     H276800  -0.003   2.300   3.559
25520WAT      O76801   5.026   4.981   0.128
25520WAT     H176802   5.110   4.927   0.138
25520WAT     H276803   4.946   4.922   0.143
25521WAT      O76804   9.086   8.570   5.191
25521WAT     H176805   9.019   8.644   5.197
25521WAT     H276806   9.103   8.532   5.282
25522WAT      O76807   2.393   7.871   5.262
25522WAT     H176808   2.378   7.933   5.339
25522WAT     H276809   2.488   7.880   5.230
25523WAT      O76810   3.371   4.886   9.555
25523WAT     H176811   3.278   4.903   9.588
25523WAT     H276812   3.376   4.907   9.457
25524WAT      O76813   5.328   1.250   3.515
25524WAT     H176814   5.352   1.206   3.428
25524WAT     H276815   5.232   1.233   3.536
25525WAT      O76816   5.866   3.073   5.684
25525WAT     H176817   5.955   3.090   5.643
25525WAT     H276818   5.861   3.121   5.772
25526WAT      O76819   7.037   8.737   9.249
25526WAT     H176820   6.944   8.765   9.271
25526WAT     H276821   7.082   8.810   9.197
25527WAT      O76822   0.415   3.301   8.255
25527WAT     H176823   0.402   3.369   8.184
25527WAT     H276824   0.474   3.228   8.220
25528WAT      O76825   5.000   9.532   1.188
25528WAT     H176826   5.085   9.494   1.151
25528WAT     H276827   4.946   9.571   1.113
25529WAT      O76828   3.023   9.751   6.768
25529WAT     H176829   3.023   9.707   6.678
25529WAT     H276830   3.110   9.735   6.814
25530WAT      O76831   7.090   7.512   0.244
25530WAT     H176832   7.052   7.592   0.290
25530WAT     H276833   7.181   7.533   0.209
25531WAT      O76834   2.766   2.989   0.788
25531WAT     H176835   2.686   3.049   0.788
25531WAT     H276836   2.742   2.902   0.746
25532WAT      O76837   4.796   9.582   4.169
25532WAT     H176838   4.877   9.527   4.151
25532WAT     H276839   4.818   9.679   4.156
25533WAT      O76840   0.243   2.348   4.045
25533WAT     H176841   0.254   2.284   4.122
25533WAT     H276842   0.332   2.363   4.002
25534WAT      O76843   3.696   7.610   4.426
25534WAT     H176844   3.676   7.540   4.495
25534WAT     H276845   3.617   7.670   4.415
25535WAT      O76846   5.026   0.440   3.735
25535WAT     H176847   4.975   0.504   3.678
25535WAT     H276848   5.048   0.358   3.681
25536WAT      O76849   9.303   2.740   0.261
25536WAT     H176850   9.248   2.823   0.253
25536WAT     H276851   9.393   2.756   0.219
25537WAT      O76852   1.327   0.097   1.358
25537WAT     H176853   1.280   0.030   1.415
25537WAT     H276854   1.396   0.050   1.302
25538WAT      O76855   8.415   1.434   7.435
25538WAT     H176856   8.497   1.427   7.378
25538WAT     H276857   8.419   1.519   7.489
25539WAT      O76858   5.385   1.733   2.183
25539WAT     H176859   5.401   1.653   2.124
25539WAT     H276860   5.287   1.753   2.186
25540WAT      O76861   6.958   1.736   5.007
25540WAT     H176862   7.031   1.802   4.989
25540WAT     H276863   6.965   1.661   4.941
25541WAT      O76864   5.607   9.743   7.308
25541WAT     H176865   5.511   9.751   7.333
25541WAT     H276866   5.617   9.757   7.210
25542WAT      O76867   7.392   2.572   6.655
25542WAT     H176868   7.460   2.601   6.723
25542WAT     H276869   7.318   2.524   6.701
25543WAT      O76870   8.547   4.430   6.721
25543WAT     H176871   8.614   4.357   6.733
25543WAT     H276872   8.463   4.393   6.680
25544WAT      O76873   3.109   5.908   1.150
25544WAT     H176874   3.093   5.957   1.064
25544WAT     H276875   3.173   5.960   1.206
25545WAT      O76876   0.813   6.454   9.005
25545WAT     H176877   0.807   6.499   9.094
25545WAT     H276878   0.736   6.483   8.948
25546WAT      O76879   5.494   6.774   1.526
25546WAT     H176880   5.475   6.751   1.622
25546WAT     H276881   5.419   6.741   1.469
25547WAT      O76882   3.852   6.864   5.151
25547WAT     H176883   3.755   6.843   5.140
25547WAT     H276884   3.864   6.963   5.152
25548WAT      O76885   3.525   6.585   6.820
25548WAT     H176886   3.590   6.558   6.749
25548WAT     H276887   3.569   6.648   6.883
25549WAT      O76888   7.295   7.870   9.319
25549WAT     H176889   7.288   7.924   9.403
25549WAT     H276890   7.386   7.883   9.279
25550WAT      O76891   2.147   1.622   6.031
25550WAT     H176892   2.090   1.575   5.964
25550WAT     H276893   2.090   1.674   6.094
25551WAT      O76894   1.533   3.975   5.603
25551WAT     H176895   1.463   3.904   5.593
25551WAT     H276896   1.512   4.051   5.541
25552WAT      O76897   0.177   7.882   6.074
25552WAT     H176898   0.213   7.828   6.150
25552WAT     H276899   0.214   7.974   6.077
25553WAT      O76900   5.159   9.569   8.092
25553WAT     H176901   5.219   9.527   8.160
25553WAT     H276902   5.203   9.650   8.054
25554WAT      O76903   7.343   3.963   8.501
25554WAT     H176904   7.301   3.955   8.591
25554WAT     H276905   7.335   3.876   8.452
25555WAT      O76906   3.040   3.360   3.812
25555WAT     H176907   3.096   3.303   3.752
25555WAT     H276908   3.081   3.451   3.820
25556WAT      O76909   6.320   4.252   5.947
25556WAT     H176910   6.227   4.228   5.977
25556WAT     H276911   6.321   4.263   5.848
25557WAT      O76912   6.029   3.045   8.093
25557WAT     H176913   6.058   2.968   8.150
25557WAT     H276914   5.959   3.098   8.141
25558WAT      O76915   4.693   4.096   8.275
25558WAT     H176916   4.686   4.174   8.337
25558WAT     H276917   4.739   4.124   8.191
25559WAT      O76918   3.143   3.838   5.701
25559WAT     H176919   3.189   3.901   5.764
25559WAT     H276920   3.097   3.891   5.629
25560WAT      O76921   5.730   7.392   9.408
25560WAT     H176922   5.728   7.471   9.469
25560WAT     H276923   5.738   7.308   9.462
25561WAT      O76924   4.542   3.492   2.757
25561WAT     H176925   4.451   3.523   2.783
25561WAT     H276926   4.598   3.481   2.839
25562WAT      O76927   0.154   6.554   1.903
25562WAT     H176928   0.136   6.581   1.809
25562WAT     H276929   0.252   6.565   1.923
25563WAT      O76930   6.590   3.016   7.736
25563WAT     H176931   6.576   3.065   7.649
25563WAT     H276932   6.550   3.069   7.810
25564WAT      O76933   1.557   6.470   6.003
25564WAT     H176934   1.498   6.403   6.049
25564WAT     H276935   1.502   6.549   5.975
25565WAT      O76936   9.014   1.638   2.006
25565WAT     H176937   9.098   1.615   1.957
25565WAT     H276938   8.938   1.585   1.968
25566WAT      O76939   8.448   1.675   5.400
25566WAT     H176940   8.350   1.683   5.421
25566WAT     H276941   8.491   1.617   5.469
25567WAT      O76942   8.838   7.872   0.405
25567WAT     H176943   8.774   7.838   0.336
25567WAT     H276944   8.919   7.908   0.359
25568WAT      O76945   5.871   1.517   8.133
25568WAT     H176946   5.834   1.450   8.069
25568WAT     H276947   5.939   1.574   8.087
25569WAT      O76948   5.793   8.576   5.147
25569WAT     H176949   5.792   8.672   5.121
25569WAT     H276950   5.771   8.568   5.245
25570WAT      O76951   6.772   6.500   4.472
25570WAT     H176952   6.780   6.593   4.437
25570WAT     H276953   6.824   6.491   4.557
25571WAT      O76954   4.873   7.461   6.735
25571WAT     H176955   4.922   7.406   6.667
25571WAT     H276956   4.835   7.542   6.691
25572WAT      O76957   0.439   1.309   9.626
25572WAT     H176958   0.370   1.242   9.654
25572WAT     H276959   0.475   1.355   9.707
25573WAT      O76960   3.498   9.170   5.350
25573WAT     H176961   3.548   9.226   5.284
25573WAT     H276962   3.543   9.081   5.358
25574WAT      O76963   4.714   5.172   6.777
25574WAT     H176964   4.663   5.236   6.836
25574WAT     H276965   4.650   5.110   6.732
25575WAT      O76966   4.126   9.608   3.463
25575WAT     H176967   4.222   9.582   3.468
25575WAT     H276968   4.099   9.620   3.368
25576WAT      O76969   2.372   9.394   3.280
25576WAT     H176970   2.278   9.395   3.314
25576WAT     H276971   2.376   9.437   3.190
25577WAT      O76972   3.516   2.945   6.044
25577WAT     H176973   3.459   2.889   6.104
25577WAT     H276974   3.548   2.890   5.967
25578WAT      O76975   8.453   6.228   0.677
25578WAT     H176976   8.355   6.236   0.695
25578WAT     H276977   8.469   6.229   0.578
25579WAT      O76978   2.322   6.183   9.864
25579WAT     H176979   2.262   6.250   9.907
25579WAT     H276980   2.409   6.226   9.842
25580WAT      O76981   5.632   8.070   7.544
25580WAT     H176982   5.678   7.981   7.536
25580WAT     H276983   5.591   8.078   7.635
25581WAT      O76984   1.070   2.103   3.452
25581WAT     H176985   0.992   2.040   3.455
25581WAT     H276986   1.044   2.185   3.402
25582WAT      O76987   6.682   1.413   6.994
25582WAT     H176988   6.622   1.492   7.001
25582WAT     H276989   6.633   1.331   7.021
25583WAT      O76990   0.271   6.697   6.990
25583WAT     H176991   0.234   6.615   6.947
25583WAT     H276992   0.217   6.776   6.962
25584WAT      O76993   1.904   7.142   9.237
25584WAT     H176994   1.852   7.146   9.152
25584WAT     H276995   1.971   7.068   9.232
25585WAT      O76996   2.496   6.969   0.150
25585WAT     H176997   2.455   6.880   0.171
25585WAT     H276998   2.433   7.042   0.177
25586WAT      O76999   5.136   2.666   6.234
25586WAT     H177000   5.117   2.758   6.199
25586WAT     H277001   5.200   2.620   6.173
25587WAT      O77002   1.821   2.591   9.182
25587WAT     H177003   1.831   2.505   9.133
25587WAT     H277004   1.735   2.590   9.235
25588WAT      O77005   8.715   2.152   2.771
25588WAT     H177006   8.706   2.156   2.672
25588WAT     H277007   8.811   2.152   2.796
25589WAT      O77008   3.345   2.242   0.761
25589WAT     H177009   3.432   2.254   0.810
25589WAT     H277010   3.342   2.305   0.683
25590WAT      O77011   2.739   5.151   2.201
25590WAT     H177012   2.835   5.159   2.228
25590WAT     H277013   2.728   5.071   2.141
25591WAT      O77014   7.914   5.619   1.266
25591WAT     H177015   7.972   5.697   1.290
25591WAT     H277016   7.878   5.578   1.349
25592WAT      O77017   5.351   0.660   1.986
25592WAT     H177018   5.268   0.623   1.943
25592WAT     H277019   5.425   0.593   1.976
25593WAT      O77020   5.475   6.606   3.255
25593WAT     H177021   5.499   6.616   3.158
25593WAT     H277022   5.402   6.539   3.265
25594WAT      O77023   3.223   9.787   5.627
25594WAT     H177024   3.274   9.725   5.568
25594WAT     H277025   3.151   9.832   5.573
25595WAT      O77026   7.367   3.712   0.733
25595WAT     H177027   7.390   3.621   0.699
25595WAT     H277028   7.340   3.770   0.657
25596WAT      O77029   5.138   4.018   4.083
25596WAT     H177030   5.151   3.943   4.148
25596WAT     H277031   5.079   3.989   4.009
25597WAT      O77032   4.640   9.432   8.095
25597WAT     H177033   4.707   9.365   8.127
25597WAT     H277034   4.678   9.484   8.019
25598WAT      O77035   1.478   7.784   9.493
25598WAT     H177036   1.427   7.858   9.536
25598WAT     H277037   1.503   7.716   9.562
25599WAT      O77038   0.081   6.722   0.384
25599WAT     H177039   0.068   6.647   0.449
25599WAT     H277040   0.138   6.793   0.426
25600WAT      O77041   9.273   5.922   8.099
25600WAT     H177042   9.305   5.923   8.004
25600WAT     H277043   9.300   5.836   8.143
25601WAT      O77044   2.401   3.513   4.179
25601WAT     H177045   2.340   3.582   4.140
25601WAT     H277046   2.347   3.435   4.210
25602WAT      O77047   2.055   6.634   2.731
25602WAT     H177048   2.040   6.588   2.818
25602WAT     H277049   2.154   6.641   2.713
25603WAT      O77050   4.772   3.678   2.788
25603WAT     H177051   4.695   3.635   2.740
25603WAT     H277052   4.849   3.615   2.790
25604WAT      O77053   6.959   0.883   5.907
25604WAT     H177054   7.059   0.878   5.911
25604WAT     H277055   6.930   0.893   5.812
25605WAT      O77056   7.791   3.272   3.262
25605WAT     H177057   7.875   3.306   3.305
25605WAT     H277058   7.806   3.262   3.164
25606WAT      O77059   3.758   8.348   7.686
25606WAT     H177060   3.659   8.348   7.696
25606WAT     H277061   3.786   8.273   7.627
25607WAT      O77062   2.599   1.439   6.962
25607WAT     H177063   2.628   1.393   6.878
25607WAT     H277064   2.580   1.535   6.942
25608WAT      O77065   2.832   3.971   4.825
25608WAT     H177066   2.886   3.891   4.850
25608WAT     H277067   2.889   4.036   4.774
25609WAT      O77068   9.316   2.309   3.743
25609WAT     H177069   9.336   2.365   3.823
25609WAT     H277070   9.400   2.291   3.692
25610WAT      O77071   5.160   6.364   7.745
25610WAT     H177072   5.095   6.371   7.669
25610WAT     H277073   5.119   6.403   7.828
25611WAT      O77074   5.116   6.652   7.633
25611WAT     H177075   5.173   6.730   7.658
25611WAT     H277076   5.153   6.569   7.674
25612WAT      O77077   8.026   5.519   7.699
25612WAT     H177078   8.017   5.466   7.784
25612WAT     H277079   8.051   5.613   7.721
25613WAT      O77080   3.586   6.696   4.139
25613WAT     H177081   3.509   6.749   4.104
25613WAT     H277082   3.611   6.730   4.230
25614WAT      O77083   0.222   1.667   7.054
25614WAT     H177084   0.176   1.580   7.074
25614WAT     H277085   0.178   1.740   7.107
25615WAT      O77086   9.534   1.493   4.815
25615WAT     H177087   9.486   1.578   4.793
25615WAT     H277088   9.603   1.511   4.886
25616WAT      O77089   6.418   5.920   1.674
25616WAT     H177090   6.333   5.869   1.667
25616WAT     H277091   6.496   5.857   1.671
25617WAT      O77092   8.041   5.587   5.537
25617WAT     H177093   8.084   5.501   5.564
25617WAT     H277094   7.980   5.570   5.459
25618WAT      O77095   1.058   1.392   5.376
25618WAT     H177096   1.018   1.359   5.461
25618WAT     H277097   1.037   1.327   5.302
25619WAT      O77098   9.264   8.523   5.429
25619WAT     H177099   9.256   8.620   5.453
25619WAT     H277100   9.240   8.467   5.508
25620WAT      O77101   6.381   1.622   2.304
25620WAT     H177102   6.343   1.557   2.371
25620WAT     H277103   6.472   1.651   2.334
25621WAT      O77104   5.833   6.388   5.934
25621WAT     H177105   5.744   6.396   5.889
25621WAT     H277106   5.876   6.302   5.906
25622WAT      O77107   3.805   0.833   4.687
25622WAT     H177108   3.845   0.919   4.654
25622WAT     H277109   3.867   0.791   4.754
25623WAT      O77110   0.876   7.523   8.148
25623WAT     H177111   0.827   7.452   8.199
25623WAT     H277112   0.859   7.511   8.050
25624WAT      O77113   3.167   8.393   3.210
25624WAT     H177114   3.163   8.487   3.244
25624WAT     H277115   3.188   8.394   3.112
25625WAT      O77116   3.704   3.955   5.621
25625WAT     H177117   3.802   3.932   5.623
25625WAT     H277118   3.659   3.915   5.700
25626WAT      O77119   3.195   5.759   7.200
25626WAT     H177120   3.141   5.820   7.141
25626WAT     H277121   3.134   5.704   7.257
25627WAT      O77122   8.887   3.632   0.043
25627WAT     H177123   8.910   3.643  -0.054
25627WAT     H277124   8.901   3.537   0.070
25628WAT      O77125   6.518   7.289   0.051
25628WAT     H177126   6.433   7.281   0.104
25628WAT     H277127   6.591   7.325   0.109
25629WAT      O77128   4.986   0.653   2.600
25629WAT     H177129   5.031   0.572   2.563
25629WAT     H277130   4.937   0.700   2.526
25630WAT      O77131   8.290   2.968   4.647
25630WAT     H177132   8.240   2.888   4.681
25630WAT     H277133   8.379   2.939   4.614
25631WAT      O77134   1.813   7.459   7.354
25631WAT     H177135   1.802   7.362   7.330
25631WAT     H277136   1.861   7.466   7.441
25632WAT      O77137   1.623   3.335   4.961
25632WAT     H177138   1.688   3.261   4.947
25632WAT     H277139   1.530   3.298   4.966
25633WAT      O77140   8.650   0.707   3.221
25633WAT     H177141   8.708   0.737   3.296
25633WAT     H277142   8.600   0.625   3.249
25634WAT      O77143   4.999   2.403   7.862
25634WAT     H177144   5.097   2.420   7.873
25634WAT     H277145   4.951   2.428   7.946
25635WAT      O77146   9.326   5.087   7.841
25635WAT     H177147   9.277   5.169   7.810
25635WAT     H277148   9.268   5.007   7.829
25636WAT      O77149   8.458   8.372   5.826
25636WAT     H177150   8.509   8.453   5.855
25636WAT     H277151   8.362   8.382   5.851
25637WAT      O77152   7.622   4.355   0.842
25637WAT     H177153   7.566   4.273   0.852
25637WAT     H277154   7.642   4.370   0.745
25638WAT      O77155   5.957   3.096   4.994
25638WAT     H177156   5.937   3.032   5.069
25638WAT     H277157   5.916   3.061   4.910
25639WAT      O77158   7.077   8.808   4.431
25639WAT     H177159   7.035   8.818   4.340
25639WAT     H277160   7.043   8.724   4.474
25640WAT      O77161   2.853   5.842   6.425
25640WAT     H177162   2.759   5.813   6.407
25640WAT     H277163   2.896   5.780   6.491
25641WAT      O77164   7.803   8.612   4.376
25641WAT     H177165   7.779   8.571   4.288
25641WAT     H277166   7.802   8.712   4.367
25642WAT      O77167   1.214   8.429   6.123
25642WAT     H177168   1.257   8.498   6.182
25642WAT     H277169   1.283   8.364   6.093
25643WAT      O77170   0.856   2.494   7.250
25643WAT     H177171   0.763   2.516   7.218
25643WAT     H277172   0.892   2.418   7.196
25644WAT      O77173   6.520   1.376   3.228
25644WAT     H177174   6.583   1.427   3.287
25644WAT     H277175   6.486   1.435   3.156
25645WAT      O77176   7.325   2.266   8.276
25645WAT     H177177   7.232   2.245   8.247
25645WAT     H277178   7.324   2.343   8.340
25646WAT      O77179   4.781   6.647   2.191
25646WAT     H177180   4.724   6.585   2.245
25646WAT     H277181   4.861   6.674   2.245
25647WAT      O77182   2.690   5.819   7.357
25647WAT     H177183   2.768   5.841   7.416
25647WAT     H277184   2.609   5.804   7.414
25648WAT      O77185   1.794   8.219   5.824
25648WAT     H177186   1.762   8.195   5.732
25648WAT     H277187   1.887   8.186   5.836
25649WAT      O77188   3.088   9.627   0.764
25649WAT     H177189   3.024   9.626   0.687
25649WAT     H277190   3.044   9.589   0.845
25650WAT      O77191   0.950   2.913   1.292
25650WAT     H177192   0.979   2.937   1.384
25650WAT     H277193   0.851   2.911   1.288
25651WAT      O77194   6.650   6.657   5.652
25651WAT     H177195   6.684   6.663   5.746
25651WAT     H277196   6.703   6.718   5.594
25652WAT      O77197   4.769   8.121   2.074
25652WAT     H177198   4.768   8.187   2.148
25652WAT     H277199   4.764   8.028   2.111
25653WAT      O77200   5.150   7.491   4.472
25653WAT     H177201   5.176   7.395   4.470
25653WAT     H277202   5.122   7.517   4.564
25654WAT      O77203   7.172   6.914   8.859
25654WAT     H177204   7.235   6.987   8.885
25654WAT     H277205   7.224   6.836   8.824
25655WAT      O77206   8.177   5.818   2.945
25655WAT     H177207   8.078   5.825   2.930
25655WAT     H277208   8.195   5.763   3.027
25656WAT      O77209   5.123   5.948   6.798
25656WAT     H177210   5.077   5.961   6.710
25656WAT     H277211   5.069   5.886   6.855
25657WAT      O77212   2.128   1.055   8.209
25657WAT     H177213   2.219   1.013   8.220
25657WAT     H277214   2.058   0.985   8.218
25658WAT      O77215   6.918   1.472   9.658
25658WAT     H177216   6.930   1.418   9.575
25658WAT     H277217   6.932   1.568   9.637
25659WAT      O77218   2.579   1.376   8.398
25659WAT     H177219   2.559   1.278   8.396
25659WAT     H277220   2.536   1.417   8.480
25660WAT      O77221   7.378   0.492   3.791
25660WAT     H177222   7.467   0.459   3.823
25660WAT     H277223   7.305   0.453   3.847
25661WAT      O77224   3.870   9.257   6.416
25661WAT     H177225   3.947   9.204   6.450
25661WAT     H277226   3.808   9.277   6.492
25662WAT      O77227   6.005   8.498   2.363
25662WAT     H177228   6.086   8.547   2.396
25662WAT     H277229   6.016   8.400   2.383
25663WAT      O77230   7.804   2.942   4.495
25663WAT     H177231   7.800   3.030   4.542
25663WAT     H277232   7.884   2.891   4.527
25664WAT      O77233   1.064   7.869   4.600
25664WAT     H177234   1.087   7.961   4.570
25664WAT     H277235   1.125   7.841   4.673
25665WAT      O77236   0.278   1.085   2.358
25665WAT     H177237   0.372   1.117   2.354
25665WAT     H277238   0.228   1.117   2.277
25666WAT      O77239   8.968   3.861   0.178
25666WAT     H177240   9.056   3.858   0.130
25666WAT     H277241   8.911   3.784   0.148
25667WAT      O77242   2.875   5.640   2.968
25667WAT     H177243   2.949   5.707   2.960
25667WAT     H277244   2.839   5.641   3.061
25668WAT      O77245   7.172   7.052   3.390
25668WAT     H177246   7.210   7.131   3.342
25668WAT     H277247   7.175   7.068   3.489
25669WAT      O77248   3.848   8.985   9.198
25669WAT     H177249   3.823   9.080   9.213
25669WAT     H277250   3.831   8.932   9.281
25670WAT      O77251   8.066   9.771   8.846
25670WAT     H177252   8.127   9.704   8.803
25670WAT     H277253   8.099   9.791   8.938
25671WAT      O77254   7.812   0.113   2.276
25671WAT     H177255   7.831   0.027   2.230
25671WAT     H277256   7.861   0.187   2.231
25672WAT      O77257   1.442   3.864   3.210
25672WAT     H177258   1.481   3.924   3.280
25672WAT     H277259   1.515   3.830   3.151
25673WAT      O77260   2.706   8.657   1.484
25673WAT     H177261   2.775   8.628   1.551
25673WAT     H277262   2.750   8.709   1.411
25674WAT      O77263   0.859   0.985   6.333
25674WAT     H177264   0.885   0.919   6.263
25674WAT     H277265   0.783   1.041   6.300
25675WAT      O77266   8.559   6.661   2.631
25675WAT     H177267   8.610   6.669   2.717
25675WAT     H277268   8.474   6.610   2.647
25676WAT      O77269   9.773   9.203   6.310
25676WAT     H177270   9.752   9.117   6.265
25676WAT     H277271   9.871   9.212   6.323
25677WAT      O77272   7.613   2.897   3.403
25677WAT     H177273   7.694   2.881   3.458
25677WAT     H277274   7.611   2.834   3.326
25678WAT      O77275   6.886   1.622   5.493
25678WAT     H177276   6.945   1.645   5.416
25678WAT     H277277   6.922   1.665   5.576
25679WAT      O77278   0.878   9.024   0.394
25679WAT     H177279   0.903   8.951   0.458
25679WAT     H277280   0.781   9.015   0.369
25680WAT      O77281   8.053   9.181   0.593
25680WAT     H177282   8.036   9.233   0.510
25680WAT     H277283   8.055   9.083   0.572
25681WAT      O77284   8.938   5.764   4.760
25681WAT     H177285   8.923   5.861   4.741
25681WAT     H277286   9.009   5.729   4.699
25682WAT      O77287   6.711   7.204   0.395
25682WAT     H177288   6.710   7.286   0.338
25682WAT     H277289   6.790   7.147   0.371
25683WAT      O77290   9.281   7.650   1.545
25683WAT     H177291   9.229   7.587   1.487
25683WAT     H277292   9.223   7.683   1.619
25684WAT      O77293   3.767   0.834   0.784
25684WAT     H177294   3.801   0.913   0.732
25684WAT     H277295   3.806   0.837   0.876
25685WAT      O77296   4.479   9.295   6.511
25685WAT     H177297   4.440   9.226   6.573
25685WAT     H277298   4.555   9.342   6.557
25686WAT      O77299   9.709   0.211   9.492
25686WAT     H177300   9.646   0.272   9.539
25686WAT     H277301   9.657   0.143   9.439
25687WAT      O77302   7.534   1.547   9.588
25687WAT     H177303   7.571   1.527   9.679
25687WAT     H277304   7.444   1.589   9.597
25688WAT      O77305   0.620   6.232   4.234
25688WAT     H177306   0.526   6.200   4.247
25688WAT     H277307   0.677   6.200   4.309
25689WAT      O77308   3.106   5.345   8.549
25689WAT     H177309   3.159   5.343   8.634
25689WAT     H277310   3.105   5.254   8.508
25690WAT      O77311   6.957   0.687   7.281
25690WAT     H177312   7.039   0.743   7.267
25690WAT     H277313   6.878   0.747   7.294
25691WAT      O77314   1.506   0.729   4.431
25691WAT     H177315   1.463   0.765   4.514
25691WAT     H277316   1.445   0.743   4.353
25692WAT      O77317   2.930   4.925   7.513
25692WAT     H177318   3.011   4.870   7.494
25692WAT     H277319   2.865   4.873   7.568
25693WAT      O77320   5.541   4.302   0.208
25693WAT     H177321   5.567   4.206   0.220
25693WAT     H277322   5.464   4.323   0.269
25694WAT      O77323   5.242   7.767   3.673
25694WAT     H177324   5.319   7.741   3.615
25694WAT     H277325   5.164   7.793   3.616
25695WAT      O77326   1.174   6.133   3.590
25695WAT     H177327   1.253   6.161   3.644
25695WAT     H277328   1.134   6.212   3.544
25696WAT      O77329   7.923   4.019   2.365
25696WAT     H177330   7.921   4.001   2.463
25696WAT     H277331   8.015   4.000   2.329
25697WAT      O77332   2.152   4.409   6.762
25697WAT     H177333   2.120   4.476   6.696
25697WAT     H277334   2.080   4.342   6.780
25698WAT      O77335   7.995   8.349   3.247
25698WAT     H177336   8.040   8.260   3.240
25698WAT     H277337   7.910   8.339   3.299
25699WAT      O77338   9.053   6.021   1.619
25699WAT     H177339   9.142   6.059   1.643
25699WAT     H277340   9.015   6.070   1.540
25700WAT      O77341   7.546   4.364   7.153
25700WAT     H177342   7.582   4.310   7.229
25700WAT     H277343   7.581   4.457   7.159
25701WAT      O77344   5.365   5.035   6.263
25701WAT     H177345   5.273   5.074   6.262
25701WAT     H277346   5.365   4.949   6.212
25702WAT      O77347   3.684   8.224   0.334
25702WAT     H177348   3.598   8.173   0.329
25702WAT     H277349   3.666   8.319   0.360
25703WAT      O77350   7.401   0.068   6.705
25703WAT     H177351   7.323   0.128   6.686
25703WAT     H277352   7.403   0.046   6.803
25704WAT      O77353   4.972   3.624   5.036
25704WAT     H177354   5.018   3.535   5.026
25704WAT     H277355   5.041   3.695   5.053
25705WAT      O77356   1.007   5.511   2.195
25705WAT     H177357   1.068   5.559   2.258
25705WAT     H277358   1.061   5.468   2.122
25706WAT      O77359   2.440   4.846   3.939
25706WAT     H177360   2.358   4.789   3.940
25706WAT     H277361   2.455   4.880   3.846
25707WAT      O77362   3.323   5.064   2.604
25707WAT     H177363   3.364   4.999   2.540
25707WAT     H277364   3.314   5.021   2.694
25708WAT      O77365   7.609   9.285   8.334
25708WAT     H177366   7.562   9.199   8.353
25708WAT     H277367   7.568   9.358   8.388
25709WAT      O77368   4.609   2.652   5.521
25709WAT     H177369   4.578   2.561   5.495
25709WAT     H277370   4.583   2.671   5.616
25710WAT      O77371   0.814   9.506   8.569
25710WAT     H177372   0.742   9.444   8.600
25710WAT     H277373   0.893   9.453   8.539
25711WAT      O77374   3.532   2.455   2.378
25711WAT     H177375   3.514   2.464   2.280
25711WAT     H277376   3.602   2.386   2.393
25712WAT      O77377   9.595   8.332   4.218
25712WAT     H177378   9.565   8.404   4.155
25712WAT     H277379   9.529   8.258   4.217
25713WAT      O77380   2.297   3.271   4.904
25713WAT     H177381   2.394   3.267   4.879
25713WAT     H277382   2.248   3.326   4.836
25714WAT      O77383   5.415   6.684   1.795
25714WAT     H177384   5.335   6.732   1.831
25714WAT     H277385   5.490   6.691   1.861
25715WAT      O77386   3.019   7.133   0.959
25715WAT     H177387   3.025   7.035   0.979
25715WAT     H277388   3.005   7.145   0.861
25716WAT      O77389   9.012   8.727   4.728
25716WAT     H177390   8.938   8.660   4.727
25716WAT     H277391   8.997   8.795   4.656
25717WAT      O77392   2.261   2.501   5.954
25717WAT     H177393   2.301   2.481   5.864
25717WAT     H277394   2.163   2.517   5.943
25718WAT      O77395   9.788   1.212   6.509
25718WAT     H177396   9.796   1.120   6.547
25718WAT     H277397   9.876   1.240   6.471
25719WAT      O77398   4.456   3.532   6.186
25719WAT     H177399   4.500   3.510   6.273
25719WAT     H277400   4.502   3.610   6.144
25720WAT      O77401   1.116   2.639   0.739
25720WAT     H177402   1.052   2.565   0.716
25720WAT     H277403   1.143   2.630   0.835
25721WAT      O77404   8.110   3.127   8.568
25721WAT     H177405   8.181   3.109   8.636
25721WAT     H277406   8.084   3.224   8.573
25722WAT      O77407   0.776   4.912   4.223
25722WAT     H177408   0.678   4.895   4.238
25722WAT     H277409   0.794   5.010   4.234
25723WAT      O77410   2.701   2.031   7.442
25723WAT     H177411   2.705   1.998   7.536
25723WAT     H277412   2.747   1.965   7.382
25724WAT      O77413   1.483   5.046   0.470
25724WAT     H177414   1.419   5.109   0.514
25724WAT     H277415   1.491   4.963   0.525
25725WAT      O77416   0.516   2.800   8.549
25725WAT     H177417   0.552   2.766   8.636
25725WAT     H277418   0.507   2.899   8.552
25726WAT      O77419   2.516   8.890   7.174
25726WAT     H177420   2.434   8.947   7.166
25726WAT     H277421   2.581   8.933   7.237
25727WAT      O77422   4.574   5.535   7.919
25727WAT     H177423   4.627   5.604   7.869
25727WAT     H277424   4.629   5.453   7.929
25728WAT      O77425   3.764   7.866   1.397
25728WAT     H177426   3.753   7.902   1.489
25728WAT     H277427   3.829   7.790   1.398
25729WAT      O77428   2.122   8.125   1.664
25729WAT     H177429   2.146   8.219   1.688
25729WAT     H277430   2.031   8.104   1.698
25730WAT      O77431   2.201   2.418   9.162
25730WAT     H177432   2.189   2.343   9.227
25730WAT     H277433   2.252   2.492   9.206
25731WAT      O77434   7.846   1.775   7.191
25731WAT     H177435   7.921   1.746   7.251
25731WAT     H277436   7.874   1.856   7.140
25732WAT      O77437   7.789   6.138   3.539
25732WAT     H177438   7.714   6.159   3.477
25732WAT     H277439   7.876   6.165   3.497
25733WAT      O77440   3.073   2.677   4.969
25733WAT     H177441   3.169   2.663   4.947
25733WAT     H277442   3.065   2.740   5.047
25734WAT      O77443   4.386   5.369   7.202
25734WAT     H177444   4.298   5.336   7.166
25734WAT     H277445   4.407   5.458   7.162
25735WAT      O77446   7.751   0.313   1.625
25735WAT     H177447   7.850   0.301   1.613
25735WAT     H277448   7.704   0.288   1.540
25736WAT      O77449   4.283   5.677   7.196
25736WAT     H177450   4.325   5.626   7.120
25736WAT     H277451   4.223   5.747   7.159
25737WAT      O77452   1.661   8.134   2.877
25737WAT     H177453   1.742   8.097   2.831
25737WAT     H277454   1.655   8.095   2.969
25738WAT      O77455   6.414   1.392   8.746
25738WAT     H177456   6.397   1.483   8.784
25738WAT     H277457   6.486   1.397   8.677
25739WAT      O77458   3.309   8.106   1.140
25739WAT     H177459   3.258   8.028   1.175
25739WAT     H277460   3.353   8.082   1.054
25740WAT      O77461   2.254   9.246   1.647
25740WAT     H177462   2.311   9.270   1.726
25740WAT     H277463   2.194   9.323   1.625
25741WAT      O77464   3.931   4.220   7.306
25741WAT     H177465   4.028   4.202   7.324
25741WAT     H277466   3.877   4.198   7.387
25742WAT      O77467   5.732   6.600   3.415
25742WAT     H177468   5.710   6.517   3.466
25742WAT     H277469   5.664   6.613   3.343
25743WAT      O77470   7.698   8.271   3.515
25743WAT     H177471   7.636   8.274   3.592
25743WAT     H277472   7.738   8.179   3.508
25744WAT      O77473   1.315   7.168   2.365
25744WAT     H177474   1.321   7.197   2.269
25744WAT     H277475   1.381   7.221   2.419
25745WAT      O77476   3.098   8.998   0.591
25745WAT     H177477   3.179   9.013   0.647
25745WAT     H277478   3.069   8.902   0.599
25746WAT      O77479   5.158   4.357   0.458
25746WAT     H177480   5.202   4.342   0.370
25746WAT     H277481   5.059   4.364   0.445
25747WAT      O77482   3.231   8.950   8.333
25747WAT     H177483   3.219   8.871   8.393
25747WAT     H277484   3.159   9.016   8.349
25748WAT      O77485   8.492   8.937   4.257
25748WAT     H177486   8.558   8.977   4.193
25748WAT     H277487   8.534   8.928   4.347
25749WAT      O77488   3.300   6.620   4.561
25749WAT     H177489   3.293   6.695   4.494
25749WAT     H277490   3.211   6.604   4.603
25750WAT      O77491   3.684   9.412   7.055
25750WAT     H177492   3.678   9.501   7.100
25750WAT     H277493   3.773   9.371   7.075
25751WAT      O77494   6.077   3.853   1.294
25751WAT     H177495   6.015   3.784   1.256
25751WAT     H277496   6.042   3.886   1.381
25752WAT      O77497   1.617   8.459   6.319
25752WAT     H177498   1.588   8.381   6.375
25752WAT     H277499   1.651   8.426   6.230
25753WAT      O77500   9.570   0.366   2.021
25753WAT     H177501   9.646   0.426   2.046
25753WAT     H277502   9.556   0.370   1.922
25754WAT      O77503   2.378   1.789   6.653
25754WAT     H177504   2.408   1.882   6.632
25754WAT     H277505   2.287   1.774   6.614
25755WAT      O77506   5.349   2.432   1.613
25755WAT     H177507   5.296   2.460   1.533
25755WAT     H277508   5.313   2.346   1.649
25756WAT      O77509   4.822   2.556   0.535
25756WAT     H177510   4.901   2.510   0.493
25756WAT     H277511   4.855   2.620   0.605
25757WAT      O77512   6.250   9.766   0.128
25757WAT     H177513   6.202   9.843   0.086
25757WAT     H277514   6.233   9.683   0.075
25758WAT      O77515   3.405   7.183   0.337
25758WAT     H177516   3.347   7.114   0.379
25758WAT     H277517   3.349   7.262   0.311
25759WAT      O77518   8.599   7.162   5.231
25759WAT     H177519   8.685   7.213   5.232
25759WAT     H277520   8.610   7.078   5.285
25760WAT      O77521   8.543   5.341   5.593
25760WAT     H177522   8.462   5.293   5.628
25760WAT     H277523   8.573   5.408   5.661
25761WAT      O77524   4.111   0.851   7.766
25761WAT     H177525   4.170   0.914   7.816
25761WAT     H277526   4.153   0.826   7.679
25762WAT      O77527   5.510   2.227   5.948
25762WAT     H177528   5.572   2.285   5.895
25762WAT     H277529   5.493   2.268   6.037
25763WAT      O77530   3.048   4.329   3.474
25763WAT     H177531   3.060   4.386   3.392
25763WAT     H277532   3.128   4.270   3.485
25764WAT      O77533   8.963   7.735   3.291
25764WAT     H177534   8.994   7.754   3.384
25764WAT     H277535   8.904   7.654   3.292
25765WAT      O77536   6.580   7.387   5.459
25765WAT     H177537   6.638   7.387   5.378
25765WAT     H277538   6.508   7.456   5.449
25766WAT      O77539   5.978   9.613   6.732
25766WAT     H177540   6.026   9.692   6.695
25766WAT     H277541   5.886   9.640   6.759
25767WAT      O77542   9.653   8.860   7.402
25767WAT     H177543   9.641   8.956   7.378
25767WAT     H277544   9.565   8.813   7.399
25768WAT      O77545   7.466   9.627   8.014
25768WAT     H177546   7.377   9.613   7.971
25768WAT     H277547   7.525   9.549   7.992
25769WAT      O77548   6.255   6.174   1.221
25769WAT     H177549   6.308   6.114   1.281
25769WAT     H277550   6.277   6.269   1.241
25770WAT      O77551   8.800   0.912   7.423
25770WAT     H177552   8.851   0.867   7.350
25770WAT     H277553   8.788   1.009   7.401
25771WAT      O77554   5.851   9.088   5.875
25771WAT     H177555   5.859   9.167   5.813
25771WAT     H277556   5.778   9.028   5.842
25772WAT      O77557   4.946   3.587   0.483
25772WAT     H177558   4.992   3.663   0.530
25772WAT     H277559   4.847   3.599   0.489
25773WAT      O77560   7.732   4.529   5.638
25773WAT     H177561   7.640   4.526   5.599
25773WAT     H277562   7.780   4.445   5.616
25774WAT      O77563   0.525   8.394   2.721
25774WAT     H177564   0.541   8.424   2.627
25774WAT     H277565   0.449   8.330   2.723
25775WAT      O77566   3.036   7.276   5.059
25775WAT     H177567   3.007   7.181   5.068
25775WAT     H277568   3.132   7.284   5.084
25776WAT      O77569   1.400   8.611   5.229
25776WAT     H177570   1.409   8.695   5.176
25776WAT     H277571   1.491   8.582   5.260
25777WAT      O77572   3.533   1.389   4.601
25777WAT     H177573   3.446   1.438   4.607
25777WAT     H277574   3.561   1.382   4.505
25778WAT      O77575   3.135   7.358   0.359
25778WAT     H177576   3.100   7.451   0.374
25778WAT     H277577   3.060   7.293   0.372
25779WAT      O77578   6.685   3.188   0.673
25779WAT     H177579   6.719   3.132   0.597
25779WAT     H277580   6.675   3.283   0.643
25780WAT      O77581   3.057   3.184   2.555
25780WAT     H177582   3.113   3.190   2.637
25780WAT     H277583   2.969   3.230   2.572
25781WAT      O77584   9.138   2.857   6.419
25781WAT     H177585   9.110   2.765   6.448
25781WAT     H277586   9.138   2.861   6.319
25782WAT      O77587   5.484   8.873   2.101
25782WAT     H177588   5.523   8.782   2.118
25782WAT     H277589   5.518   8.907   2.014
25783WAT      O77590   0.779   8.799   1.312
25783WAT     H177591   0.766   8.897   1.328
25783WAT     H277592   0.873   8.783   1.281
25784WAT      O77593   5.454   8.412   4.598
25784WAT     H177594   5.485   8.507   4.592
25784WAT     H277595   5.390   8.403   4.674
25785WAT      O77596   0.526   5.228   5.572
25785WAT     H177597   0.450   5.244   5.509
25785WAT     H277598   0.560   5.134   5.560
25786WAT      O77599   9.720   7.707   5.027
25786WAT     H177600   9.796   7.771   5.033
25786WAT     H277601   9.652   7.742   4.962
25787WAT      O77602   1.421   4.467   8.094
25787WAT     H177603   1.413   4.525   8.176
25787WAT     H277604   1.489   4.507   8.032
25788WAT      O77605   8.179   2.603   1.334
25788WAT     H177606   8.154   2.507   1.345
25788WAT     H277607   8.179   2.648   1.423
25789WAT      O77608   3.666   8.832   4.543
25789WAT     H177609   3.581   8.883   4.552
25789WAT     H277610   3.733   8.885   4.492
25790WAT      O77611   4.009   0.392   1.022
25790WAT     H177612   4.072   0.314   1.033
25790WAT     H277613   3.917   0.358   1.005
25791WAT      O77614   7.642   1.589   0.857
25791WAT     H177615   7.636   1.682   0.819
25791WAT     H277616   7.728   1.578   0.906
25792WAT      O77617   0.032   6.220   1.337
25792WAT     H177618   0.110   6.174   1.377
25792WAT     H277619   0.055   6.251   1.245
25793WAT      O77620   3.115   4.544   3.281
25793WAT     H177621   3.147   4.575   3.370
25793WAT     H277622   3.101   4.623   3.221
25794WAT      O77623   2.526   8.161   8.901
25794WAT     H177624   2.573   8.141   8.815
25794WAT     H277625   2.431   8.185   8.882
25795WAT      O77626   8.054   7.305   8.387
25795WAT     H177627   8.029   7.375   8.319
25795WAT     H277628   7.986   7.304   8.460
25796WAT      O77629   0.263   9.424   0.746
25796WAT     H177630   0.225   9.516   0.739
25796WAT     H277631   0.248   9.375   0.660
25797WAT      O77632   8.855   8.028   1.157
25797WAT     H177633   8.837   8.087   1.078
25797WAT     H277634   8.929   7.964   1.135
25798WAT      O77635   0.127   6.215   5.326
25798WAT     H177636   0.122   6.193   5.424
25798WAT     H277637   0.206   6.170   5.286
25799WAT      O77638   0.273   4.017   0.561
25799WAT     H177639   0.220   4.097   0.533
25799WAT     H277640   0.223   3.968   0.632
25800WAT      O77641   3.353   1.917   9.806
25800WAT     H177642   3.422   1.944   9.873
25800WAT     H277643   3.360   1.818   9.789
25801WAT      O77644   7.399   1.142   2.650
25801WAT     H177645   7.310   1.096   2.654
25801WAT     H277646   7.449   1.112   2.569
25802WAT      O77647   9.456   0.307   4.986
25802WAT     H177648   9.493   0.215   4.996
25802WAT     H277649   9.395   0.309   4.907
25803WAT      O77650   0.224   9.191   1.203
25803WAT     H177651   0.281   9.231   1.275
25803WAT     H277652   0.167   9.263   1.162
25804WAT      O77653   8.169   7.654   5.697
25804WAT     H177654   8.150   7.604   5.613
25804WAT     H277655   8.213   7.741   5.675
25805WAT      O77656   9.779   3.009   8.566
25805WAT     H177657   9.852   2.969   8.511
25805WAT     H277658   9.731   3.078   8.512
25806WAT      O77659   6.538   6.972   6.342
25806WAT     H177660   6.517   6.893   6.284
25806WAT     H277661   6.453   7.014   6.373
25807WAT      O77662   6.812   2.828   3.020
25807WAT     H177663   6.824   2.806   2.923
25807WAT     H277664   6.880   2.779   3.074
25808WAT      O77665   4.762   8.725   9.062
25808WAT     H177666   4.838   8.735   8.998
25808WAT     H277667   4.690   8.791   9.037
25809WAT      O77668   7.769   5.162   6.563
25809WAT     H177669   7.689   5.213   6.594
25809WAT     H277670   7.844   5.225   6.545
25810WAT      O77671   5.667   7.297   3.321
25810WAT     H177672   5.753   7.255   3.290
25810WAT     H277673   5.598   7.226   3.334
25811WAT      O77674   5.394   2.699   5.569
25811WAT     H177675   5.388   2.798   5.554
25811WAT     H277676   5.455   2.658   5.501
25812WAT      O77677   9.131   3.456   1.221
25812WAT     H177678   9.086   3.398   1.289
25812WAT     H277679   9.230   3.446   1.230
25813WAT      O77680   9.822   6.905   0.036
25813WAT     H177681   9.832   6.936   0.130
25813WAT     H277682   9.866   6.970  -0.026
25814WAT      O77683   5.095   9.841   9.602
25814WAT     H177684   5.148   9.904   9.544
25814WAT     H277685   5.091   9.751   9.559
25815WAT      O77686   5.181   3.357   7.884
25815WAT     H177687   5.136   3.393   7.803
25815WAT     H277688   5.230   3.272   7.861
25816WAT      O77689   7.281   5.833   4.324
25816WAT     H177690   7.271   5.925   4.362
25816WAT     H277691   7.203   5.812   4.265
25817WAT      O77692   0.701   0.711   0.679
25817WAT     H177693   0.782   0.712   0.738
25817WAT     H277694   0.664   0.619   0.673
25818WAT      O77695   1.864   3.194   9.228
25818WAT     H177696   1.866   3.125   9.299
25818WAT     H277697   1.899   3.281   9.264
25819WAT      O77698   5.035   5.799   9.420
25819WAT     H177699   5.063   5.887   9.458
25819WAT     H277700   5.069   5.725   9.478
25820WAT      O77701   2.249   0.602   9.143
25820WAT     H177702   2.345   0.581   9.128
25820WAT     H277703   2.227   0.690   9.102
25821WAT      O77704   1.980   2.173   1.260
25821WAT     H177705   2.077   2.148   1.260
25821WAT     H277706   1.948   2.180   1.165
25822WAT      O77707   6.888   0.959   0.719
25822WAT     H177708   6.905   0.907   0.635
25822WAT     H277709   6.804   1.013   0.708
25823WAT      O77710   9.876   2.326   6.204
25823WAT     H177711   9.959   2.358   6.159
25823WAT     H277712   9.822   2.270   6.141
25824WAT      O77713   0.401   2.594   4.843
25824WAT     H177714   0.303   2.577   4.853
25824WAT     H277715   0.416   2.674   4.786
25825WAT      O77716   5.437   7.891   5.040
25825WAT     H177717   5.374   7.815   5.056
25825WAT     H277718   5.390   7.962   4.987
25826WAT      O77719   5.511   7.604   4.127
25826WAT     H177720   5.509   7.504   4.125
25826WAT     H277721   5.503   7.639   4.034
25827WAT      O77722   6.049   1.974   6.656
25827WAT     H177723   5.959   1.933   6.642
25827WAT     H277724   6.059   2.054   6.597
25828WAT      O77725   5.918   2.588   5.926
25828WAT     H177726   5.996   2.587   5.865
25828WAT     H277727   5.939   2.643   6.007
25829WAT      O77728   7.926   0.988   7.053
25829WAT     H177729   7.975   0.928   7.115
25829WAT     H277730   7.990   1.048   7.006
25830WAT      O77731   8.144   0.808   9.220
25830WAT     H177732   8.056   0.810   9.172
25830WAT     H277733   8.216   0.843   9.160
25831WAT      O77734   1.664   3.735   7.986
25831WAT     H177735   1.589   3.755   7.923
25831WAT     H277736   1.718   3.818   8.001
25832WAT      O77737   0.309   2.950   7.083
25832WAT     H177738   0.340   3.028   7.137
25832WAT     H277739   0.303   2.977   6.987
25833WAT      O77740   4.391   8.962   4.671
25833WAT     H177741   4.458   9.000   4.734
25833WAT     H277742   4.404   9.003   4.581
25834WAT      O77743   2.489   8.550   4.945
25834WAT     H177744   2.476   8.488   5.022
25834WAT     H277745   2.583   8.543   4.912
25835WAT      O77746   1.481   6.594   0.083
25835WAT     H177747   1.432   6.519   0.039
25835WAT     H277748   1.540   6.558   0.156
25836WAT      O77749   0.268   4.934   7.029
25836WAT     H177750   0.364   4.961   7.037
25836WAT     H277751   0.210   5.013   7.045
25837WAT      O77752   3.147   6.680   7.406
25837WAT     H177753   3.221   6.659   7.341
25837WAT     H277754   3.069   6.620   7.388
25838WAT      O77755   1.574   7.064   8.261
25838WAT     H177756   1.553   7.137   8.196
25838WAT     H277757   1.507   7.065   8.335
25839WAT      O77758   6.478   8.183   4.446
25839WAT     H177759   6.404   8.242   4.414
25839WAT     H277760   6.530   8.230   4.518
25840WAT      O77761   8.906   5.564   0.616
25840WAT     H177762   8.909   5.654   0.659
25840WAT     H277763   8.891   5.574   0.518
25841WAT      O77764   0.725   6.080   4.038
25841WAT     H177765   0.688   6.145   4.105
25841WAT     H277766   0.793   6.022   4.083
25842WAT      O77767   4.742   5.550   5.138
25842WAT     H177768   4.656   5.542   5.188
25842WAT     H277769   4.810   5.489   5.179
25843WAT      O77770   5.572   9.525   3.485
25843WAT     H177771   5.587   9.521   3.584
25843WAT     H277772   5.611   9.443   3.442
25844WAT      O77773   6.289   6.881   4.486
25844WAT     H177774   6.225   6.944   4.531
25844WAT     H277775   6.382   6.917   4.494
25845WAT      O77776   2.482   7.505   7.405
25845WAT     H177777   2.410   7.437   7.415
25845WAT     H277778   2.529   7.518   7.493
25846WAT      O77779   7.508   2.451   9.498
25846WAT     H177780   7.537   2.372   9.552
25846WAT     H277781   7.490   2.529   9.558
25847WAT      O77782   7.530   0.265   2.371
25847WAT     H177783   7.621   0.307   2.369
25847WAT     H277784   7.527   0.188   2.307
25848WAT      O77785   7.797   9.071   4.459
25848WAT     H177786   7.786   8.994   4.396
25848WAT     H277787   7.756   9.047   4.547
25849WAT      O77788   5.591   2.475   0.836
25849WAT     H177789   5.528   2.444   0.907
25849WAT     H277790   5.684   2.475   0.872
25850WAT      O77791   9.123   3.370   2.660
25850WAT     H177792   9.198   3.435   2.651
25850WAT     H277793   9.106   3.327   2.571
25851WAT      O77794   7.026   9.193   7.652
25851WAT     H177795   6.944   9.144   7.624
25851WAT     H277796   7.053   9.164   7.744
25852WAT      O77797   8.190   8.051   7.467
25852WAT     H177798   8.191   8.126   7.402
25852WAT     H277799   8.280   8.043   7.510
25853WAT      O77800   7.100   1.038   3.411
25853WAT     H177801   7.139   1.003   3.497
25853WAT     H277802   7.071   0.961   3.354
25854WAT      O77803   7.066   4.980   3.304
25854WAT     H177804   7.152   5.012   3.265
25854WAT     H277805   7.012   4.933   3.233
25855WAT      O77806   5.993   6.435   2.277
25855WAT     H177807   6.064   6.447   2.207
25855WAT     H277808   5.915   6.389   2.236
25856WAT      O77809   8.089   8.585   6.335
25856WAT     H177810   7.991   8.605   6.334
25856WAT     H277811   8.108   8.513   6.402
25857WAT      O77812   6.625   1.046   0.656
25857WAT     H177813   6.594   1.094   0.574
25857WAT     H277814   6.551   0.990   0.692
25858WAT      O77815   1.970   5.735   1.773
25858WAT     H177816   2.022   5.798   1.830
25858WAT     H277817   2.010   5.643   1.779
25859WAT      O77818   2.550   1.818   2.583
25859WAT     H177819   2.604   1.740   2.615
25859WAT     H277820   2.596   1.903   2.606
25860WAT      O77821   4.499   0.788   9.761
25860WAT     H177822   4.528   0.730   9.686
25860WAT     H277823   4.562   0.865   9.770
25861WAT      O77824   8.831   4.753   7.933
25861WAT     H177825   8.900   4.822   7.951
25861WAT     H277826   8.758   4.760   8.001
25862WAT      O77827   9.725   4.639   0.023
25862WAT     H177828   9.801   4.622   0.086
25862WAT     H277829   9.706   4.556  -0.030
25863WAT      O77830   3.927   5.879   8.658
25863WAT     H177831   3.995   5.943   8.692
25863WAT     H277832   3.835   5.909   8.685
25864WAT      O77833   5.505   4.396   8.872
25864WAT     H177834   5.491   4.435   8.781
25864WAT     H277835   5.578   4.328   8.868
25865WAT      O77836   0.107   4.954   0.891
25865WAT     H177837   0.118   4.943   0.792
25865WAT     H277838   0.169   5.026   0.924
25866WAT      O77839   1.018   8.887   1.014
25866WAT     H177840   1.068   8.962   0.971
25866WAT     H277841   0.926   8.881   0.974
25867WAT      O77842   3.320   1.667   1.279
25867WAT     H177843   3.374   1.624   1.207
25867WAT     H277844   3.224   1.672   1.251
25868WAT      O77845   1.717   4.052   3.804
25868WAT     H177846   1.706   4.106   3.887
25868WAT     H277847   1.742   4.112   3.728
25869WAT      O77848   8.189   6.900   7.480
25869WAT     H177849   8.262   6.861   7.424
25869WAT     H277850   8.221   6.913   7.573
25870WAT      O77851   8.972   5.205   5.176
25870WAT     H177852   8.955   5.107   5.163
25870WAT     H277853   9.070   5.223   5.168
25871WAT      O77854   9.860   8.542   7.031
25871WAT     H177855   9.806   8.619   7.066
25871WAT     H277856   9.844   8.531   6.933
25872WAT      O77857   4.841   9.832   2.605
25872WAT     H177858   4.940   9.830   2.621
25872WAT     H277859   4.816   9.918   2.561
25873WAT      O77860   6.258   8.566   2.448
25873WAT     H177861   6.285   8.483   2.497
25873WAT     H277862   6.304   8.645   2.489
25874WAT      O77863   2.509   6.789   9.763
25874WAT     H177864   2.434   6.734   9.797
25874WAT     H277865   2.474   6.876   9.727
25875WAT      O77866   1.046   4.872   4.176
25875WAT     H177867   0.946   4.874   4.188
25875WAT     H277868   1.070   4.795   4.117
25876WAT      O77869   2.837   1.855   7.279
25876WAT     H177870   2.874   1.929   7.223
25876WAT     H277871   2.909   1.790   7.302
25877WAT      O77872   8.321   4.669   2.799
25877WAT     H177873   8.296   4.736   2.729
25877WAT     H277874   8.387   4.604   2.763
25878WAT      O77875   7.142   1.255   0.203
25878WAT     H177876   7.153   1.193   0.281
25878WAT     H277877   7.096   1.206   0.129
25879WAT      O77878   2.834   6.148   7.701
25879WAT     H177879   2.859   6.058   7.664
25879WAT     H277880   2.874   6.158   7.792
25880WAT      O77881   2.744   0.625   5.957
25880WAT     H177882   2.680   0.558   5.919
25880WAT     H277883   2.723   0.638   6.054
25881WAT      O77884   8.008   7.323   3.285
25881WAT     H177885   7.951   7.314   3.204
25881WAT     H277886   7.953   7.305   3.367
25882WAT      O77887   1.616   1.765   0.236
25882WAT     H177888   1.665   1.781   0.151
25882WAT     H277889   1.556   1.685   0.226
25883WAT      O77890   2.122   0.672   8.250
25883WAT     H177891   2.066   0.604   8.297
25883WAT     H277892   2.214   0.672   8.291
25884WAT      O77893   1.825   4.173   1.766
25884WAT     H177894   1.832   4.193   1.668
25884WAT     H277895   1.835   4.074   1.781
25885WAT      O77896   8.915   2.455   1.346
25885WAT     H177897   8.897   2.485   1.440
25885WAT     H277898   8.838   2.481   1.287
25886WAT      O77899   7.618   6.324   4.907
25886WAT     H177900   7.622   6.224   4.906
25886WAT     H277901   7.710   6.362   4.896
25887WAT      O77902   2.512   4.954   2.661
25887WAT     H177903   2.557   4.972   2.573
25887WAT     H277904   2.417   4.983   2.656
25888WAT      O77905   6.386   5.103   6.316
25888WAT     H177906   6.415   5.194   6.344
25888WAT     H277907   6.427   5.081   6.227
25889WAT      O77908   9.600   0.578   8.490
25889WAT     H177909   9.620   0.619   8.401
25889WAT     H277910   9.525   0.627   8.534
25890WAT      O77911   5.980   6.615   6.018
25890WAT     H177912   6.037   6.586   6.095
25890WAT     H277913   5.937   6.535   5.977
25891WAT      O77914   2.157   3.950   7.452
25891WAT     H177915   2.202   4.005   7.523
25891WAT     H277916   2.155   3.855   7.480
25892WAT      O77917   5.232   5.709   1.252
25892WAT     H177918   5.233   5.784   1.186
25892WAT     H277919   5.141   5.699   1.292
25893WAT      O77920   6.886   8.195   9.355
25893WAT     H177921   6.797   8.157   9.328
25893WAT     H277922   6.872   8.277   9.411
25894WAT      O77923   7.904   1.794   0.085
25894WAT     H177924   7.954   1.868   0.130
25894WAT     H277925   7.945   1.776  -0.005
25895WAT      O77926   9.450   2.442   3.379
25895WAT     H177927   9.357   2.440   3.417
25895WAT     H277928   9.451   2.497   3.296
25896WAT      O77929   6.076   2.179   6.478
25896WAT     H177930   6.103   2.145   6.388
25896WAT     H277931   6.098   2.277   6.484
25897WAT      O77932   9.678   9.800   0.903
25897WAT     H177933   9.664   9.813   1.001
25897WAT     H277934   9.638   9.876   0.853
25898WAT      O77935   5.260   2.925   1.170
25898WAT     H177936   5.240   2.864   1.247
25898WAT     H277937   5.178   2.977   1.146
25899WAT      O77938   1.778   1.815   8.510
25899WAT     H177939   1.803   1.855   8.422
25899WAT     H277940   1.784   1.884   8.582
25900WAT      O77941   8.428   1.845   2.591
25900WAT     H177942   8.352   1.780   2.586
25900WAT     H277943   8.404   1.921   2.650
25901WAT      O77944   1.194   3.603   0.511
25901WAT     H177945   1.177   3.688   0.561
25901WAT     H277946   1.124   3.535   0.536
25902WAT      O77947   2.947   5.246   9.814
25902WAT     H177948   2.921   5.187   9.737
25902WAT     H277949   3.036   5.289   9.794
25903WAT      O77950   9.823   2.425   1.358
25903WAT     H177951   9.898   2.362   1.381
25903WAT     H277952   9.766   2.439   1.439
25904WAT      O77953   4.611   8.024   9.510
25904WAT     H177954   4.543   8.076   9.457
25904WAT     H277955   4.657   8.085   9.574
25905WAT      O77956   0.845   1.751   6.931
25905WAT     H177957   0.762   1.729   6.983
25905WAT     H277958   0.922   1.760   6.995
25906WAT      O77959   6.815   8.102   7.794
25906WAT     H177960   6.734   8.043   7.788
25906WAT     H277961   6.895   8.046   7.819
25907WAT      O77962   1.115   8.829   7.022
25907WAT     H177963   1.138   8.868   7.111
25907WAT     H277964   1.054   8.751   7.035
25908WAT      O77965   7.947   4.281   7.480
25908WAT     H177966   8.012   4.211   7.509
25908WAT     H277967   7.905   4.322   7.561
25909WAT      O77968   0.733   7.477   5.201
25909WAT     H177969   0.825   7.505   5.229
25909WAT     H277970   0.722   7.378   5.215
25910WAT      O77971   9.479   3.792   1.427
25910WAT     H177972   9.404   3.768   1.366
25910WAT     H277973   9.558   3.734   1.408
25911WAT      O77974   8.537   0.372   9.298
25911WAT     H177975   8.531   0.303   9.371
25911WAT     H277976   8.456   0.365   9.239
25912WAT      O77977   4.294   6.409   8.111
25912WAT     H177978   4.361   6.477   8.140
25912WAT     H277979   4.336   6.319   8.108
25913WAT      O77980   7.634   0.415   3.828
25913WAT     H177981   7.681   0.497   3.796
25913WAT     H277982   7.678   0.334   3.790
25914WAT      O77983   8.054   6.131   7.276
25914WAT     H177984   8.080   6.134   7.372
25914WAT     H277985   8.136   6.124   7.220
25915WAT      O77986   3.071   3.630   8.356
25915WAT     H177987   3.171   3.628   8.349
25915WAT     H277988   3.034   3.691   8.286
25916WAT      O77989   0.561   5.715   2.246
25916WAT     H177990   0.545   5.770   2.164
25916WAT     H277991   0.653   5.733   2.281
25917WAT      O77992   4.561   5.025   6.047
25917WAT     H177993   4.596   4.998   5.957
25917WAT     H277994   4.505   5.107   6.037
25918WAT      O77995   7.582   6.428   0.089
25918WAT     H177996   7.557   6.511   0.141
25918WAT     H277997   7.681   6.415   0.092
25919WAT      O77998   9.743   2.562   3.878
25919WAT     H177999   9.689   2.576   3.795
25919WAT     H278000   9.800   2.642   3.894
25920WAT      O78001   4.059   4.648   0.419
25920WAT     H178002   4.108   4.672   0.335
25920WAT     H278003   4.014   4.559   0.406
25921WAT      O78004   9.607   0.958   7.788
25921WAT     H178005   9.564   1.026   7.848
25921WAT     H278006   9.566   0.963   7.697
25922WAT      O78007   3.461   5.902   4.482
25922WAT     H178008   3.367   5.877   4.459
25922WAT     H278009   3.503   5.950   4.405
25923WAT      O78010   7.318   3.238   3.179
25923WAT     H178011   7.396   3.218   3.239
25923WAT     H278012   7.296   3.335   3.184
25924WAT      O78013   6.163   7.314   0.996
25924WAT     H178014   6.211   7.230   1.020
25924WAT     H278015   6.214   7.361   0.924
25925WAT      O78016   7.858   7.661   7.594
25925WAT     H178017   7.830   7.577   7.640
25925WAT     H278018   7.827   7.740   7.648
25926WAT      O78019   6.142   1.030   7.491
25926WAT     H178020   6.150   1.122   7.529
25926WAT     H278021   6.060   0.985   7.529
25927WAT      O78022   2.291   3.106   8.621
25927WAT     H178023   2.372   3.057   8.653
25927WAT     H278024   2.209   3.059   8.654
25928WAT      O78025   8.614   7.139   2.347
25928WAT     H178026   8.525   7.153   2.389
25928WAT     H278027   8.656   7.227   2.326
25929WAT      O78028   4.156   8.475   6.729
25929WAT     H178029   4.079   8.415   6.710
25929WAT     H278030   4.215   8.433   6.798
25930WAT      O78031   6.441   7.649   4.824
25930WAT     H178032   6.342   7.656   4.811
25930WAT     H278033   6.487   7.661   4.736
25931WAT      O78034   2.487   6.099   7.395
25931WAT     H178035   2.473   6.194   7.424
25931WAT     H278036   2.569   6.093   7.339
25932WAT      O78037   2.630   3.814   8.462
25932WAT     H178038   2.701   3.745   8.472
25932WAT     H278039   2.598   3.843   8.552
25933WAT      O78040   1.317   6.917   8.134
25933WAT     H178041   1.316   7.016   8.126
25933WAT     H278042   1.385   6.879   8.071
25934WAT      O78043   0.478   0.114   9.357
25934WAT     H178044   0.502   0.026   9.397
25934WAT     H278045   0.531   0.128   9.274
25935WAT      O78046   7.864   5.735   7.382
25935WAT     H178047   7.879   5.710   7.477
25935WAT     H278048   7.813   5.662   7.335
25936WAT      O78049   3.681   6.267   3.610
25936WAT     H178050   3.767   6.313   3.633
25936WAT     H278051   3.606   6.332   3.620
25937WAT      O78052   8.821   4.549   7.274
25937WAT     H178053   8.783   4.595   7.354
25937WAT     H278054   8.758   4.559   7.197
25938WAT      O78055   2.478   1.112   8.403
25938WAT     H178056   2.446   1.063   8.322
25938WAT     H278057   2.400   1.133   8.462
25939WAT      O78058   0.489   3.127   9.795
25939WAT     H178059   0.539   3.211   9.817
25939WAT     H278060   0.490   3.066   9.873
25940WAT      O78061   7.121   9.187   3.622
25940WAT     H178062   7.089   9.145   3.537
25940WAT     H278063   7.126   9.286   3.611
25941WAT      O78064   0.268   7.188   3.886
25941WAT     H178065   0.362   7.219   3.892
25941WAT     H278066   0.220   7.240   3.815
25942WAT      O78067   7.743   1.815   8.360
25942WAT     H178068   7.662   1.873   8.372
25942WAT     H278069   7.739   1.739   8.424
25943WAT      O78070   5.935   5.702   8.937
25943WAT     H178071   5.979   5.757   8.866
25943WAT     H278072   5.903   5.762   9.010
25944WAT      O78073   3.348   6.173   8.038
25944WAT     H178074   3.302   6.247   7.989
25944WAT     H278075   3.290   6.091   8.037
25945WAT      O78076   4.543   8.687   6.052
25945WAT     H178077   4.568   8.628   5.975
25945WAT     H278078   4.460   8.651   6.096
25946WAT      O78079   7.729   6.338   6.822
25946WAT     H178080   7.797   6.409   6.841
25946WAT     H278081   7.774   6.258   6.784
25947WAT      O78082   0.077   6.486   7.306
25947WAT     H178083   0.007   6.497   7.235
25947WAT     H278084   0.166   6.509   7.267
25948WAT      O78085   8.796   9.764   1.317
25948WAT     H178086   8.781   9.780   1.220
25948WAT     H278087   8.728   9.698   1.351
25949WAT      O78088   5.075   8.861   5.078
25949WAT     H178089   5.095   8.913   4.995
25949WAT     H278090   4.998   8.904   5.127
25950WAT      O78091   9.348   4.348   7.635
25950WAT     H178092   9.314   4.434   7.674
25950WAT     H278093   9.293   4.324   7.555
25951WAT      O78094   4.606   3.524   7.143
25951WAT     H178095   4.684   3.580   7.171
25951WAT     H278096   4.574   3.470   7.220
25952WAT      O78097   1.256   2.255   2.345
25952WAT     H178098   1.157   2.245   2.331
25952WAT     H278099   1.286   2.191   2.415
25953WAT      O78100   0.331   1.331   8.070
25953WAT     H178101   0.263   1.294   8.133
25953WAT     H278102   0.295   1.331   7.977
25954WAT      O78103   5.989   3.090   0.694
25954WAT     H178104   5.969   3.090   0.792
25954WAT     H278105   5.908   3.062   0.643
25955WAT      O78106   4.730   1.966   4.884
25955WAT     H178107   4.677   1.882   4.897
25955WAT     H278108   4.679   2.044   4.920
25956WAT      O78109   7.777   1.006   9.347
25956WAT     H178110   7.798   0.947   9.425
25956WAT     H278111   7.817   0.966   9.264
25957WAT      O78112   2.383   3.627   0.225
25957WAT     H178113   2.284   3.632   0.219
25957WAT     H278114   2.414   3.538   0.190
25958WAT      O78115   7.087   7.601   9.256
25958WAT     H178116   7.096   7.698   9.277
25958WAT     H278117   7.136   7.547   9.324
25959WAT      O78118   1.131   0.291   5.947
25959WAT     H178119   1.111   0.279   6.045
25959WAT     H278120   1.191   0.217   5.916
25960WAT      O78121   9.355   8.257   7.838
25960WAT     H178122   9.379   8.180   7.897
25960WAT     H278123   9.276   8.233   7.782
25961WAT      O78124   9.243   9.648   0.378
25961WAT     H178125   9.285   9.573   0.429
25961WAT     H278126   9.298   9.730   0.387
25962WAT      O78127   7.767   0.447   0.462
25962WAT     H178128   7.753   0.450   0.363
25962WAT     H278129   7.865   0.454   0.482
25963WAT      O78130   3.006   3.426   5.912
25963WAT     H178131   2.989   3.345   5.969
25963WAT     H278132   2.919   3.461   5.877
25964WAT      O78133   6.626   7.479   8.840
25964WAT     H178134   6.687   7.558   8.844
25964WAT     H278135   6.676   7.399   8.807
25965WAT      O78136   0.965   7.374   4.904
25965WAT     H178137   1.000   7.317   4.979
25965WAT     H278138   0.889   7.327   4.859
25966WAT      O78139   6.439   7.694   1.569
25966WAT     H178140   6.474   7.700   1.662
25966WAT     H278141   6.483   7.762   1.512
25967WAT      O78142   8.219   4.568   4.288
25967WAT     H178143   8.195   4.471   4.297
25967WAT     H278144   8.239   4.588   4.192
25968WAT      O78145   8.195   5.724   1.063
25968WAT     H178146   8.114   5.776   1.090
25968WAT     H278147   8.166   5.639   1.018
25969WAT      O78148   8.917   0.892   3.899
25969WAT     H178149   8.971   0.813   3.929
25969WAT     H278150   8.858   0.922   3.974
25970WAT      O78151   5.453   9.493   4.933
25970WAT     H178152   5.400   9.471   4.851
25970WAT     H278153   5.472   9.591   4.935
25971WAT      O78154   1.347   9.755   9.801
25971WAT     H178155   1.351   9.816   9.721
25971WAT     H278156   1.357   9.660   9.771
25972WAT      O78157   2.065   2.219   7.122
25972WAT     H178158   2.158   2.184   7.114
25972WAT     H278159   2.000   2.145   7.105
25973WAT      O78160   9.147   9.419   6.620
25973WAT     H178161   9.198   9.411   6.705
25973WAT     H278162   9.064   9.471   6.635
25974WAT      O78163   1.979   8.220   5.545
25974WAT     H178164   2.011   8.175   5.629
25974WAT     H278165   2.020   8.311   5.538
25975WAT      O78166   9.063   2.195   0.437
25975WAT     H178167   9.162   2.207   0.441
25975WAT     H278168   9.039   2.143   0.355
25976WAT      O78169   9.871   8.581   9.591
25976WAT     H178170   9.892   8.589   9.493
25976WAT     H278171   9.892   8.489   9.622
25977WAT      O78172   5.780   2.303   6.476
25977WAT     H178173   5.789   2.330   6.380
25977WAT     H278174   5.708   2.358   6.519
25978WAT      O78175   7.730   8.245   8.142
25978WAT     H178176   7.639   8.258   8.102
25978WAT     H278177   7.721   8.239   8.242
25979WAT      O78178   9.124   8.937   1.449
25979WAT     H178179   9.068   8.989   1.384
25979WAT     H278180   9.187   8.878   1.399
25980WAT      O78181   0.245   2.707   6.029
25980WAT     H178182   0.289   2.795   6.007
25980WAT     H278183   0.173   2.689   5.963
25981WAT      O78184   2.384   4.014   9.565
25981WAT     H178185   2.426   4.099   9.598
25981WAT     H278186   2.439   3.976   9.491
25982WAT      O78187   5.511   2.000   5.758
25982WAT     H178188   5.484   2.070   5.824
25982WAT     H278189   5.500   2.035   5.665
25983WAT      O78190   8.021   5.601   4.360
25983WAT     H178191   7.931   5.576   4.326
25983WAT     H278192   8.039   5.697   4.341
25984WAT      O78193   4.703   9.386   2.506
25984WAT     H178194   4.755   9.418   2.585
25984WAT     H278195   4.623   9.335   2.537
25985WAT      O78196   8.978   2.587   0.773
25985WAT     H178197   8.898   2.589   0.713
25985WAT     H278198   9.054   2.634   0.729
25986WAT      O78199   6.583   4.326   5.002
25986WAT     H178200   6.580   4.255   5.073
25986WAT     H278201   6.596   4.415   5.045
25987WAT      O78202   7.749   0.101   4.603
25987WAT     H178203   7.790   0.188   4.631
25987WAT     H278204   7.808   0.058   4.535
25988WAT      O78205   8.821   0.002   2.879
25988WAT     H178206   8.753   0.073   2.862
25988WAT     H278207   8.783  -0.067   2.940
25989WAT      O78208   8.495   0.987   9.355
25989WAT     H178209   8.531   0.948   9.270
25989WAT     H278210   8.522   0.929   9.432
25990WAT      O78211   1.599   4.495   0.421
25990WAT     H178212   1.678   4.543   0.382
25990WAT     H278213   1.522   4.500   0.358
25991WAT      O78214   3.097   9.552   1.948
25991WAT     H178215   3.068   9.602   2.029
25991WAT     H278216   3.109   9.616   1.872
25992WAT      O78217   7.362   6.653   0.713
25992WAT     H178218   7.409   6.735   0.747
25992WAT     H278219   7.430   6.585   0.684
25993WAT      O78220   6.788   6.889   3.068
25993WAT     H178221   6.839   6.938   3.140
25993WAT     H278222   6.764   6.953   2.995
25994WAT      O78223   8.666   8.267   7.530
25994WAT     H178224   8.602   8.298   7.460
25994WAT     H278225   8.631   8.291   7.620
25995WAT      O78226   4.736   7.212   7.954
25995WAT     H178227   4.687   7.175   8.032
25995WAT     H278228   4.821   7.255   7.986
25996WAT      O78229   0.142   9.408   2.837
25996WAT     H178230   0.239   9.387   2.850
25996WAT     H278231   0.109   9.362   2.755
25997WAT      O78232   6.929   7.516   8.174
25997WAT     H178233   6.940   7.592   8.238
25997WAT     H278234   6.914   7.432   8.225
25998WAT      O78235   2.299   3.027   9.443
25998WAT     H178236   2.369   3.055   9.378
25998WAT     H278237   2.289   3.097   9.514
25999WAT      O78238   8.130   1.018   4.587
25999WAT     H178239   8.112   1.030   4.685
25999WAT     H278240   8.065   1.072   4.534
26000WAT      O78241   0.712   1.100   3.750
26000WAT     H178242   0.798   1.106   3.801
26000WAT     H278243   0.699   1.007   3.716
26001WAT      O78244   7.564   1.734   4.485
26001WAT     H178245   7.531   1.824   4.513
26001WAT     H278246   7.504   1.664   4.523
26002WAT      O78247   4.150   0.058   3.245
26002WAT     H178248   4.233   0.040   3.192
26002WAT     H278249   4.103   0.138   3.208
26003WAT      O78250   2.629   7.339   3.119
26003WAT     H178251   2.655   7.343   3.215
26003WAT     H278252   2.615   7.244   3.091
26004WAT      O78253   3.590   1.035   6.020
26004WAT     H178254   3.647   1.033   6.102
26004WAT     H278255   3.505   0.984   6.037
26005WAT      O78256   0.876   3.601   7.589
26005WAT     H178257   0.809   3.584   7.661
26005WAT     H278258   0.840   3.567   7.501
26006WAT      O78259   2.064   6.697   1.664
26006WAT     H178260   2.089   6.683   1.760
26006WAT     H278261   2.047   6.794   1.648
26007WAT      O78262   9.089   4.369   0.283
26007WAT     H178263   9.041   4.299   0.230
26007WAT     H278264   9.051   4.374   0.375
26008WAT      O78265   4.885   2.961   7.888
26008WAT     H178266   4.805   2.909   7.861
26008WAT     H278267   4.856   3.046   7.933
26009WAT      O78268   6.808   4.683   0.951
26009WAT     H178269   6.759   4.633   0.880
26009WAT     H278270   6.904   4.653   0.953
26010WAT      O78271   3.159   2.387   0.301
26010WAT     H178272   3.257   2.370   0.310
26010WAT     H278273   3.129   2.362   0.209
26011WAT      O78274   2.806   0.374   4.867
26011WAT     H178275   2.760   0.356   4.780
26011WAT     H278276   2.806   0.472   4.885
26012WAT      O78277   6.144   3.505   9.343
26012WAT     H178278   6.158   3.410   9.318
26012WAT     H278279   6.089   3.511   9.427
26013WAT      O78280   8.265   2.302   1.769
26013WAT     H178281   8.363   2.287   1.755
26013WAT     H278282   8.214   2.250   1.700
26014WAT      O78283   5.616   0.915   0.027
26014WAT     H178284   5.647   0.935  -0.066
26014WAT     H278285   5.536   0.971   0.049
26015WAT      O78286   7.462   0.214   9.532
26015WAT     H178287   7.502   0.289   9.480
26015WAT     H278288   7.505   0.208   9.621
26016WAT      O78289   1.394   6.970   8.471
26016WAT     H178290   1.424   7.003   8.560
26016WAT     H278291   1.341   7.041   8.424
26017WAT      O78292   9.338   1.566   6.170
26017WAT     H178293   9.261   1.562   6.234
26017WAT     H278294   9.387   1.479   6.172
26018WAT      O78295   5.289   7.201   4.200
26018WAT     H178296   5.275   7.234   4.293
26018WAT     H278297   5.203   7.204   4.150
26019WAT      O78298   3.458   1.721   8.661
26019WAT     H178299   3.435   1.802   8.715
26019WAT     H278300   3.390   1.649   8.676
26020WAT      O78301   7.151   1.618   1.013
26020WAT     H178302   7.248   1.593   1.008
26020WAT     H278303   7.113   1.585   1.099
26021WAT      O78304   2.527   3.140   9.348
26021WAT     H178305   2.565   3.048   9.347
26021WAT     H278306   2.557   3.187   9.432
26022WAT      O78307   3.682   8.982   7.474
26022WAT     H178308   3.672   9.045   7.552
26022WAT     H278309   3.635   8.896   7.494
26023WAT      O78310   4.716   0.651   4.455
26023WAT     H178311   4.656   0.678   4.380
26023WAT     H278312   4.738   0.731   4.511
26024WAT      O78313   2.292   0.142   8.417
26024WAT     H178314   2.247   0.220   8.460
26024WAT     H278315   2.274   0.143   8.318
26025WAT      O78316   4.364   8.419   7.316
26025WAT     H178317   4.339   8.464   7.402
26025WAT     H278318   4.426   8.478   7.265
26026WAT      O78319   2.917   7.159   3.353
26026WAT     H178320   2.909   7.059   3.358
26026WAT     H278321   2.825   7.199   3.351
26027WAT      O78322   4.066   4.938   7.288
26027WAT     H178323   4.141   5.001   7.265
26027WAT     H278324   4.083   4.849   7.245
26028WAT      O78325   1.851   2.254   7.751
26028WAT     H178326   1.832   2.270   7.654
26028WAT     H278327   1.859   2.342   7.798
26029WAT      O78328   0.827   1.060   8.747
26029WAT     H178329   0.744   1.072   8.693
26029WAT     H278330   0.859   0.966   8.738
26030WAT      O78331   4.261   6.576   1.778
26030WAT     H178332   4.259   6.651   1.844
26030WAT     H278333   4.213   6.603   1.695
26031WAT      O78334   8.844   4.293   1.866
26031WAT     H178335   8.902   4.214   1.845
26031WAT     H278336   8.870   4.370   1.809
26032WAT      O78337   2.702   9.663   0.209
26032WAT     H178338   2.701   9.604   0.289
26032WAT     H278339   2.794   9.667   0.170
26033WAT      O78340   6.525   0.344   7.413
26033WAT     H178341   6.534   0.388   7.502
26033WAT     H278342   6.511   0.414   7.343
26034WAT      O78343   5.870   3.984   8.796
26034WAT     H178344   5.956   3.941   8.822
26034WAT     H278345   5.823   4.017   8.878
26035WAT      O78346   6.190   2.439   9.619
26035WAT     H178347   6.259   2.385   9.667
26035WAT     H278348   6.176   2.526   9.668
26036WAT      O78349   0.338   9.764   2.312
26036WAT     H178350   0.301   9.777   2.219
26036WAT     H278351   0.387   9.678   2.316
26037WAT      O78352   3.582   6.009   7.354
26037WAT     H178353   3.610   5.959   7.436
26037WAT     H278354   3.609   6.105   7.363
26038WAT      O78355   5.367   4.421   7.847
26038WAT     H178356   5.466   4.409   7.841
26038WAT     H278357   5.325   4.397   7.760
26039WAT      O78358   9.554   7.599   1.117
26039WAT     H178359   9.579   7.554   1.202
26039WAT     H278360   9.495   7.539   1.064
26040WAT      O78361   6.337   7.710   0.636
26040WAT     H178362   6.263   7.643   0.628
26040WAT     H278363   6.336   7.769   0.555
26041WAT      O78364   5.966   7.449   8.121
26041WAT     H178365   6.007   7.382   8.060
26041WAT     H278366   6.029   7.467   8.197
26042WAT      O78367   2.930   1.476   9.670
26042WAT     H178368   3.030   1.470   9.664
26042WAT     H278369   2.894   1.391   9.710
26043WAT      O78370   7.764   4.934   1.566
26043WAT     H178371   7.697   4.861   1.584
26043WAT     H278372   7.755   5.005   1.635
26044WAT      O78373   3.496   5.284   2.007
26044WAT     H178374   3.505   5.331   2.095
26044WAT     H278375   3.441   5.338   1.945
26045WAT      O78376   0.048   3.430   3.630
26045WAT     H178377   0.135   3.476   3.641
26045WAT     H278378  -0.027   3.494   3.645
26046WAT      O78379   7.795   2.786   7.160
26046WAT     H178380   7.854   2.864   7.141
26046WAT     H278381   7.843   2.721   7.220
26047WAT      O78382   2.496   2.080   5.974
26047WAT     H178383   2.434   2.104   5.899
26047WAT     H278384   2.464   2.123   6.058
26048WAT      O78385   3.535   2.281   4.920
26048WAT     H178386   3.469   2.235   4.980
26048WAT     H278387   3.627   2.272   4.959
26049WAT      O78388   4.073   7.818   0.959
26049WAT     H178389   4.054   7.880   1.035
26049WAT     H278390   4.068   7.869   0.873
26050WAT      O78391   2.078   0.698   1.339
26050WAT     H178392   1.992   0.673   1.384
26050WAT     H278393   2.067   0.693   1.240
26051WAT      O78394   1.331   4.100   0.106
26051WAT     H178395   1.311   4.002   0.104
26051WAT     H278396   1.409   4.119   0.046
26052WAT      O78397   4.575   4.088   0.597
26052WAT     H178398   4.612   4.101   0.505
26052WAT     H278399   4.534   4.174   0.629
26053WAT      O78400   0.373   8.706   8.082
26053WAT     H178401   0.287   8.690   8.132
26053WAT     H278402   0.382   8.804   8.064
26054WAT      O78403   4.363   7.696   2.065
26054WAT     H178404   4.303   7.775   2.053
26054WAT     H278405   4.433   7.697   1.993
26055WAT      O78406   4.630   8.201   6.704
26055WAT     H178407   4.703   8.138   6.679
26055WAT     H278408   4.661   8.261   6.778
26056WAT      O78409   6.032   7.424   6.636
26056WAT     H178410   6.100   7.351   6.634
26056WAT     H278411   5.941   7.385   6.652
26057WAT      O78412   9.709   0.885   4.547
26057WAT     H178413   9.751   0.872   4.457
26057WAT     H278414   9.750   0.965   4.591
26058WAT      O78415   6.025   8.646   9.583
26058WAT     H178416   6.070   8.734   9.573
26058WAT     H278417   6.083   8.574   9.545
26059WAT      O78418   3.546   7.677   3.937
26059WAT     H178419   3.513   7.755   3.991
26059WAT     H278420   3.600   7.616   3.995
26060WAT      O78421   4.277   8.461   9.597
26060WAT     H178422   4.327   8.527   9.540
26060WAT     H278423   4.225   8.510   9.667
26061WAT      O78424   7.864   7.825   8.523
26061WAT     H178425   7.811   7.815   8.439
26061WAT     H278426   7.819   7.891   8.583
26062WAT      O78427   2.610   7.471   4.979
26062WAT     H178428   2.657   7.404   5.037
26062WAT     H278429   2.516   7.442   4.964
26063WAT      O78430   2.290   1.331   7.297
26063WAT     H178431   2.225   1.260   7.269
26063WAT     H278432   2.368   1.289   7.344
26064WAT      O78433   1.440   4.750   7.841
26064WAT     H178434   1.510   4.691   7.880
26064WAT     H278435   1.362   4.757   7.903
26065WAT      O78436   2.390   5.355   7.422
26065WAT     H178437   2.397   5.288   7.348
26065WAT     H278438   2.297   5.393   7.424
26066WAT      O78439   2.065   8.782   7.846
26066WAT     H178440   1.979   8.731   7.855
26066WAT     H278441   2.101   8.770   7.754
26067WAT      O78442   2.887   5.377   3.790
26067WAT     H178443   2.941   5.305   3.833
26067WAT     H278444   2.868   5.351   3.695
26068WAT      O78445   4.806   1.372   7.796
26068WAT     H178446   4.801   1.426   7.712
26068WAT     H278447   4.724   1.388   7.851
26069WAT      O78448   0.260   3.325   8.489
26069WAT     H178449   0.265   3.418   8.527
26069WAT     H278450   0.299   3.325   8.397
26070WAT      O78451   6.608   7.690   6.923
26070WAT     H178452   6.654   7.602   6.912
26070WAT     H278453   6.582   7.702   7.019
26071WAT      O78454   6.179   8.568   1.261
26071WAT     H178455   6.226   8.480   1.252
26071WAT     H278456   6.139   8.594   1.174
26072WAT      O78457   0.948   2.442   0.285
26072WAT     H178458   0.877   2.464   0.352
26072WAT     H278459   0.921   2.361   0.233
26073WAT      O78460   1.663   9.312   7.711
26073WAT     H178461   1.603   9.295   7.789
26073WAT     H278462   1.658   9.235   7.648
26074WAT      O78463   3.918   4.289   2.795
26074WAT     H178464   3.995   4.349   2.776
26074WAT     H278465   3.938   4.234   2.876
26075WAT      O78466   7.942   5.469   9.219
26075WAT     H178467   7.948   5.371   9.238
26075WAT     H278468   7.853   5.504   9.251
26076WAT      O78469   3.291   7.932   3.616
26076WAT     H178470   3.246   7.843   3.617
26076WAT     H278471   3.230   8.001   3.654
26077WAT      O78472   5.731   6.386   2.181
26077WAT     H178473   5.682   6.346   2.259
26077WAT     H278474   5.720   6.327   2.101
26078WAT      O78475   8.768   9.616   6.301
26078WAT     H178476   8.816   9.574   6.224
26078WAT     H278477   8.811   9.703   6.324
26079WAT      O78478   3.802   5.049   8.726
26079WAT     H178479   3.785   4.993   8.645
26079WAT     H278480   3.745   5.132   8.721
26080WAT      O78481   3.012   9.041   2.318
26080WAT     H178482   3.018   8.951   2.363
26080WAT     H278483   3.103   9.067   2.285
26081WAT      O78484   2.548   9.168   2.609
26081WAT     H178485   2.463   9.140   2.565
26081WAT     H278486   2.529   9.240   2.676
26082WAT      O78487   7.296   1.726   6.761
26082WAT     H178488   7.266   1.820   6.778
26082WAT     H278489   7.220   1.673   6.724
26083WAT      O78490   2.295   3.176   1.730
26083WAT     H178491   2.248   3.256   1.769
26083WAT     H278492   2.342   3.127   1.804
26084WAT      O78493   1.186   7.138   1.830
26084WAT     H178494   1.111   7.141   1.763
26084WAT     H278495   1.244   7.218   1.819
26085WAT      O78496   4.848   3.310   3.023
26085WAT     H178497   4.900   3.225   3.022
26085WAT     H278498   4.882   3.369   3.096
26086WAT      O78499   0.368   7.289   1.001
26086WAT     H178500   0.376   7.196   0.965
26086WAT     H278501   0.362   7.353   0.925
26087WAT      O78502   0.516   8.205   5.224
26087WAT     H178503   0.556   8.287   5.264
26087WAT     H278504   0.425   8.189   5.263
26088WAT      O78505   4.937   5.838   2.625
26088WAT     H178506   4.970   5.746   2.645
26088WAT     H278507   4.903   5.841   2.531
26089WAT      O78508   2.563   0.233   8.059
26089WAT     H178509   2.614   0.172   7.998
26089WAT     H278510   2.478   0.260   8.013
26090WAT      O78511   3.504   5.400   5.560
26090WAT     H178512   3.571   5.391   5.634
26090WAT     H278513   3.526   5.479   5.504
26091WAT      O78514   3.678   9.254   3.263
26091WAT     H178515   3.671   9.353   3.273
26091WAT     H278516   3.624   9.209   3.335
26092WAT      O78517   8.287   4.470   2.448
26092WAT     H178518   8.223   4.467   2.371
26092WAT     H278519   8.307   4.377   2.479
26093WAT      O78520   1.245   1.191   1.450
26093WAT     H178521   1.243   1.148   1.540
26093WAT     H278522   1.321   1.153   1.396
26094WAT      O78523   3.518   6.092   3.750
26094WAT     H178524   3.574   6.009   3.747
26094WAT     H278525   3.567   6.167   3.705
26095WAT      O78526   9.851   8.707   0.805
26095WAT     H178527   9.808   8.660   0.882
26095WAT     H278528   9.911   8.644   0.756
26096WAT      O78529   8.791   8.746   0.972
26096WAT     H178530   8.816   8.650   0.963
26096WAT     H278531   8.720   8.755   1.042
26097WAT      O78532   6.389   3.617   9.572
26097WAT     H178533   6.301   3.641   9.613
26097WAT     H278534   6.410   3.682   9.498
26098WAT      O78535   5.600   5.535   6.953
26098WAT     H178536   5.684   5.585   6.972
26098WAT     H278537   5.567   5.557   6.862
26099WAT      O78538   4.221   4.652   6.272
26099WAT     H178539   4.251   4.711   6.197
26099WAT     H278540   4.285   4.576   6.282
26100WAT      O78541   2.594   3.907   9.427
26100WAT     H178542   2.615   3.860   9.341
26100WAT     H278543   2.653   3.988   9.436
26101WAT      O78544   8.046   3.511   6.662
26101WAT     H178545   8.127   3.568   6.666
26101WAT     H278546   7.996   3.518   6.748
26102WAT      O78547   3.800   8.267   9.589
26102WAT     H178548   3.750   8.354   9.585
26102WAT     H278549   3.867   8.264   9.514
26103WAT      O78550   2.771   0.488   9.332
26103WAT     H178551   2.860   0.519   9.366
26103WAT     H278552   2.773   0.389   9.319
26104WAT      O78553   1.108   7.343   0.947
26104WAT     H178554   1.131   7.272   1.013
26104WAT     H278555   1.188   7.400   0.930
26105WAT      O78556   3.226   5.666   0.792
26105WAT     H178557   3.214   5.656   0.890
26105WAT     H278558   3.200   5.582   0.745
26106WAT      O78559   5.694   3.869   2.031
26106WAT     H178560   5.735   3.894   2.119
26106WAT     H278561   5.637   3.787   2.043
26107WAT      O78562   9.544   0.665   3.038
26107WAT     H178563   9.502   0.642   3.126
26107WAT     H278564   9.502   0.749   3.002
26108WAT      O78565   3.215   5.800   0.203
26108WAT     H178566   3.169   5.808   0.292
26108WAT     H278567   3.297   5.744   0.213
26109WAT      O78568   7.222   5.148   1.671
26109WAT     H178569   7.230   5.175   1.767
26109WAT     H278570   7.257   5.055   1.660
26110WAT      O78571   2.862   6.585   5.535
26110WAT     H178572   2.936   6.584   5.467
26110WAT     H278573   2.878   6.660   5.599
26111WAT      O78574   4.525   5.092   8.948
26111WAT     H178575   4.551   5.189   8.953
26111WAT     H278576   4.595   5.042   8.897
26112WAT      O78577   2.798   0.591   0.193
26112WAT     H178578   2.891   0.620   0.168
26112WAT     H278579   2.798   0.493   0.211
26113WAT      O78580   6.280   4.581   0.093
26113WAT     H178581   6.322   4.503   0.140
26113WAT     H278582   6.302   4.577  -0.005
26114WAT      O78583   5.547   0.319   1.051
26114WAT     H178584   5.465   0.310   1.107
26114WAT     H278585   5.596   0.403   1.077
26115WAT      O78586   6.908   7.425   4.186
26115WAT     H178587   6.854   7.397   4.265
26115WAT     H278588   6.895   7.523   4.170
26116WAT      O78589   6.068   2.409   0.444
26116WAT     H178590   6.102   2.437   0.354
26116WAT     H278591   6.012   2.482   0.483
26117WAT      O78592   7.834   3.668   3.884
26117WAT     H178593   7.808   3.588   3.938
26117WAT     H278594   7.769   3.743   3.901
26118WAT      O78595   3.248   8.438   7.948
26118WAT     H178596   3.193   8.513   7.910
26118WAT     H278597   3.225   8.353   7.901
26119WAT      O78598   1.295   3.266   8.105
26119WAT     H178599   1.219   3.304   8.052
26119WAT     H278600   1.358   3.339   8.130
26120WAT      O78601   5.012   8.476   9.828
26120WAT     H178602   5.015   8.575   9.818
26120WAT     H278603   5.103   8.438   9.814
26121WAT      O78604   4.140   0.618   0.934
26121WAT     H178605   4.086   0.542   0.969
26121WAT     H278606   4.238   0.595   0.938
26122WAT      O78607   1.789   5.936   8.708
26122WAT     H178608   1.830   5.871   8.772
26122WAT     H278609   1.838   5.935   8.622
26123WAT      O78610   6.400   9.752   4.855
26123WAT     H178611   6.440   9.842   4.837
26123WAT     H278612   6.474   9.685   4.864
26124WAT      O78613   8.616   3.207   1.591
26124WAT     H178614   8.584   3.114   1.612
26124WAT     H278615   8.588   3.269   1.664
26125WAT      O78616   9.876   0.907   8.556
26125WAT     H178617   9.835   0.906   8.464
26125WAT     H278618   9.810   0.873   8.622
26126WAT      O78619   1.849   4.061   7.763
26126WAT     H178620   1.941   4.055   7.800
26126WAT     H278621   1.853   4.088   7.667
26127WAT      O78622   9.364   7.028   6.442
26127WAT     H178623   9.356   6.944   6.389
26127WAT     H278624   9.437   7.084   6.404
26128WAT      O78625   9.762   8.561   0.136
26128WAT     H178626   9.818   8.613   0.200
26128WAT     H278627   9.735   8.619   0.060
26129WAT      O78628   4.430   3.881   6.076
26129WAT     H178629   4.457   3.971   6.042
26129WAT     H278630   4.447   3.812   6.006
26130WAT      O78631   7.497   4.887   3.143
26130WAT     H178632   7.519   4.901   3.047
26130WAT     H278633   7.413   4.936   3.166
26131WAT      O78634   0.590   5.616   5.386
26131WAT     H178635   0.513   5.620   5.322
26131WAT     H278636   0.633   5.706   5.392
26132WAT      O78637   5.245   3.220   3.674
26132WAT     H178638   5.210   3.306   3.710
26132WAT     H278639   5.181   3.146   3.694
26133WAT      O78640   1.655   9.813   9.512
26133WAT     H178641   1.662   9.733   9.571
26133WAT     H278642   1.605   9.789   9.429
26134WAT      O78643   3.220   5.052   3.092
26134WAT     H178644   3.282   5.003   3.030
26134WAT     H278645   3.260   5.054   3.184
26135WAT      O78646   0.342   6.857   9.085
26135WAT     H178647   0.419   6.821   9.138
26135WAT     H278648   0.369   6.943   9.042
26136WAT      O78649   0.641   2.698   2.142
26136WAT     H178650   0.552   2.701   2.187
26136WAT     H278651   0.656   2.782   2.090
26137WAT      O78652   8.818   7.730   5.594
26137WAT     H178653   8.774   7.741   5.505
26137WAT     H278654   8.887   7.801   5.606
26138WAT      O78655   6.491   8.773   6.034
26138WAT     H178656   6.451   8.754   5.944
26138WAT     H278657   6.428   8.830   6.086
26139WAT      O78658   0.222   3.751   5.068
26139WAT     H178659   0.274   3.715   5.145
26139WAT     H278660   0.284   3.787   4.999
26140WAT      O78661   6.725   7.499   4.430
26140WAT     H178662   6.682   7.532   4.346
26140WAT     H278663   6.680   7.415   4.460
26141WAT      O78664   9.657   3.376   6.183
26141WAT     H178665   9.689   3.409   6.272
26141WAT     H278666   9.670   3.447   6.114
26142WAT      O78667   4.378   7.465   1.287
26142WAT     H178668   4.349   7.449   1.192
26142WAT     H278669   4.434   7.388   1.318
26143WAT      O78670   6.501   2.375   4.354
26143WAT     H178671   6.573   2.444   4.357
26143WAT     H278672   6.413   2.419   4.333
26144WAT      O78673   7.675   9.780   3.800
26144WAT     H178674   7.697   9.864   3.752
26144WAT     H278675   7.722   9.703   3.756
26145WAT      O78676   2.597   4.633   1.453
26145WAT     H178677   2.567   4.567   1.521
26145WAT     H278678   2.517   4.670   1.405
26146WAT      O78679   8.924   7.975   6.918
26146WAT     H178680   8.914   7.944   6.823
26146WAT     H278681   9.014   7.948   6.952
26147WAT      O78682   4.451   1.645   0.027
26147WAT     H178683   4.408   1.704  -0.042
26147WAT     H278684   4.426   1.677   0.119
26148WAT      O78685   8.524   2.707   6.474
26148WAT     H178686   8.473   2.728   6.391
26148WAT     H278687   8.573   2.620   6.462
26149WAT      O78688   7.266   7.109   9.589
26149WAT     H178689   7.203   7.035   9.611
26149WAT     H278690   7.345   7.106   9.650
26150WAT      O78691   8.607   5.489   5.800
26150WAT     H178692   8.524   5.508   5.851
26150WAT     H278693   8.680   5.460   5.863
26151WAT      O78694   8.636   3.032   2.075
26151WAT     H178695   8.569   3.032   2.001
26151WAT     H278696   8.595   3.073   2.156
26152WAT      O78697   7.668   1.890   2.614
26152WAT     H178698   7.643   1.960   2.547
26152WAT     H278699   7.639   1.919   2.705
26153WAT      O78700   6.867   0.120   4.120
26153WAT     H178701   6.820   0.196   4.165
26153WAT     H278702   6.966   0.135   4.126
26154WAT      O78703   3.587   2.065   7.362
26154WAT     H178704   3.580   1.972   7.399
26154WAT     H278705   3.628   2.062   7.271
26155WAT      O78706   9.098   3.724   9.674
26155WAT     H178707   9.178   3.687   9.628
26155WAT     H278708   9.094   3.823   9.661
26156WAT      O78709   1.684   9.582   9.665
26156WAT     H178710   1.605   9.535   9.704
26156WAT     H278711   1.747   9.606   9.739
26157WAT      O78712   7.880   0.673   3.256
26157WAT     H178713   7.819   0.668   3.176
26157WAT     H278714   7.974   0.684   3.225
26158WAT      O78715   6.475   7.100   2.579
26158WAT     H178716   6.458   7.186   2.532
26158WAT     H278717   6.554   7.054   2.537
26159WAT      O78718   0.397   7.566   5.435
26159WAT     H178719   0.373   7.554   5.339
26159WAT     H278720   0.494   7.588   5.442
26160WAT      O78721   0.886   5.113   5.444
26160WAT     H178722   0.924   5.200   5.412
26160WAT     H278723   0.960   5.052   5.472
26161WAT      O78724   7.648   5.925   1.096
26161WAT     H178725   7.653   5.829   1.122
26161WAT     H278726   7.648   5.982   1.178
26162WAT      O78727   0.878   5.021   9.314
26162WAT     H178728   0.951   4.953   9.313
26162WAT     H278729   0.895   5.088   9.385
26163WAT      O78730   7.384   0.318   7.728
26163WAT     H178731   7.303   0.371   7.756
26163WAT     H278732   7.439   0.296   7.809
26164WAT      O78733   0.921   5.825   4.756
26164WAT     H178734   0.918   5.799   4.659
26164WAT     H278735   0.901   5.745   4.812
26165WAT      O78736   8.303   8.704   5.734
26165WAT     H178737   8.349   8.720   5.646
26165WAT     H278738   8.232   8.635   5.723
26166WAT      O78739   6.240   0.309   7.137
26166WAT     H178740   6.206   0.378   7.073
26166WAT     H278741   6.334   0.330   7.161
26167WAT      O78742   5.810   7.583   8.412
26167WAT     H178743   5.904   7.600   8.384
26167WAT     H278744   5.747   7.612   8.339
26168WAT      O78745   0.015   4.401   5.588
26168WAT     H178746   0.098   4.455   5.580
26168WAT     H278747   0.031   4.323   5.648
26169WAT      O78748   6.541   6.450   7.510
26169WAT     H178749   6.628   6.460   7.461
26169WAT     H278750   6.482   6.528   7.489
26170WAT      O78751   1.035   2.571   5.699
26170WAT     H178752   1.061   2.604   5.608
26170WAT     H278753   1.015   2.473   5.694
26171WAT      O78754   4.735   5.553   6.557
26171WAT     H178755   4.833   5.534   6.560
26171WAT     H278756   4.720   5.652   6.560
26172WAT      O78757   4.122   7.055   9.873
26172WAT     H178758   4.192   6.984   9.886
26172WAT     H278759   4.137   7.101   9.785
26173WAT      O78760   3.260   5.981   1.802
26173WAT     H178761   3.220   5.992   1.893
26173WAT     H278762   3.326   5.906   1.803
26174WAT      O78763   9.718   2.840   9.583
26174WAT     H178764   9.744   2.818   9.677
26174WAT     H278765   9.737   2.937   9.565
26175WAT      O78766   6.169   8.619   7.154
26175WAT     H178767   6.165   8.664   7.065
26175WAT     H278768   6.098   8.655   7.213
26176WAT      O78769   6.804   8.739   6.915
26176WAT     H178770   6.887   8.683   6.908
26176WAT     H278771   6.738   8.710   6.846
26177WAT      O78772   4.165   5.946   2.723
26177WAT     H178773   4.194   5.908   2.635
26177WAT     H278774   4.219   6.027   2.744
26178WAT      O78775   8.340   3.375   8.801
26178WAT     H178776   8.285   3.428   8.865
26178WAT     H278777   8.437   3.394   8.816
26179WAT      O78778   1.528   0.570   6.648
26179WAT     H178779   1.520   0.501   6.576
26179WAT     H278780   1.505   0.529   6.736
26180WAT      O78781   7.750   2.467   9.137
26180WAT     H178782   7.809   2.541   9.168
26180WAT     H278783   7.772   2.444   9.043
26181WAT      O78784   2.964   9.153   6.778
26181WAT     H178785   2.937   9.092   6.704
26181WAT     H278786   2.884   9.174   6.835
26182WAT      O78787   0.694   9.173   6.671
26182WAT     H178788   0.711   9.272   6.665
26182WAT     H278789   0.600   9.153   6.647
26183WAT      O78790   3.650   3.264   9.848
26183WAT     H178791   3.699   3.252   9.934
26183WAT     H278792   3.551   3.263   9.865
26184WAT      O78793   7.716   7.961   5.356
26184WAT     H178794   7.620   7.954   5.382
26184WAT     H278795   7.738   8.056   5.336
26185WAT      O78796   1.872   1.190   4.819
26185WAT     H178797   1.815   1.231   4.890
26185WAT     H278798   1.876   1.091   4.832
26186WAT      O78799   1.808   4.604   0.976
26186WAT     H178800   1.894   4.632   0.933
26186WAT     H278801   1.739   4.589   0.906
26187WAT      O78802   0.139   6.592   1.645
26187WAT     H178803   0.099   6.506   1.613
26187WAT     H278804   0.093   6.669   1.600
26188WAT      O78805   6.733   2.077   6.593
26188WAT     H178806   6.638   2.051   6.580
26188WAT     H278807   6.793   2.003   6.562
26189WAT      O78808   9.783   6.507   2.945
26189WAT     H178809   9.742   6.550   2.864
26189WAT     H278810   9.715   6.449   2.990
26190WAT      O78811   4.823   1.112   4.134
26190WAT     H178812   4.881   1.140   4.057
26190WAT     H278813   4.834   1.177   4.209
26191WAT      O78814   2.932   7.230   4.632
26191WAT     H178815   2.960   7.299   4.699
26191WAT     H278816   2.997   7.228   4.556
26192WAT      O78817   4.291   8.202   0.611
26192WAT     H178818   4.302   8.194   0.512
26192WAT     H278819   4.375   8.174   0.656
26193WAT      O78820   5.389   9.768   3.127
26193WAT     H178821   5.353   9.857   3.098
26193WAT     H278822   5.313   9.711   3.160
26194WAT      O78823   1.631   4.031   9.276
26194WAT     H178824   1.539   4.009   9.244
26194WAT     H278825   1.694   4.029   9.198
26195WAT      O78826   7.907   8.778   2.169
26195WAT     H178827   7.937   8.841   2.240
26195WAT     H278828   7.856   8.828   2.099
26196WAT      O78829   6.371   5.146   3.508
26196WAT     H178830   6.422   5.153   3.594
26196WAT     H278831   6.430   5.172   3.432
26197WAT      O78832   3.537   5.116   6.665
26197WAT     H178833   3.591   5.171   6.602
26197WAT     H278834   3.586   5.032   6.687
26198WAT      O78835   3.698   2.654   6.159
26198WAT     H178836   3.679   2.647   6.061
26198WAT     H278837   3.745   2.571   6.190
26199WAT      O78838   9.471   1.750   4.999
26199WAT     H178839   9.380   1.714   5.021
26199WAT     H278840   9.463   1.810   4.919
26200WAT      O78841   5.179   0.174   7.674
26200WAT     H178842   5.160   0.254   7.731
26200WAT     H278843   5.278   0.161   7.666
26201WAT      O78844   8.603   4.808   2.505
26201WAT     H178845   8.644   4.741   2.568
26201WAT     H278846   8.578   4.763   2.420
26202WAT      O78847   6.375   8.391   1.183
26202WAT     H178848   6.390   8.348   1.272
26202WAT     H278849   6.437   8.469   1.172
26203WAT      O78850   7.394   2.266   7.865
26203WAT     H178851   7.389   2.179   7.816
26203WAT     H278852   7.325   2.328   7.829
26204WAT      O78853   5.170   4.323   2.956
26204WAT     H178854   5.079   4.299   2.991
26204WAT     H278855   5.187   4.420   2.973
26205WAT      O78856   4.975   5.579   7.538
26205WAT     H178857   5.003   5.636   7.615
26205WAT     H278858   4.989   5.482   7.560
26206WAT      O78859   7.086   5.943   9.004
26206WAT     H178860   7.052   5.849   9.013
26206WAT     H278861   7.152   5.961   9.076
26207WAT      O78862   6.550   0.140   1.277
26207WAT     H178863   6.560   0.236   1.250
26207WAT     H278864   6.594   0.082   1.209
26208WAT      O78865   9.099   2.074   1.486
26208WAT     H178866   9.070   2.132   1.411
26208WAT     H278867   9.197   2.087   1.503
26209WAT      O78868   2.337   2.245   5.789
26209WAT     H178869   2.387   2.322   5.750
26209WAT     H278870   2.247   2.239   5.745
26210WAT      O78871   7.811   2.404   8.615
26210WAT     H178872   7.768   2.351   8.543
26210WAT     H278873   7.765   2.493   8.624
26211WAT      O78874   4.353   4.381   6.016
26211WAT     H178875   4.340   4.441   5.937
26211WAT     H278876   4.309   4.293   5.997
26212WAT      O78877   4.994   6.480   1.255
26212WAT     H178878   5.073   6.421   1.241
26212WAT     H278879   4.950   6.456   1.342
26213WAT      O78880   0.421   6.317   9.859
26213WAT     H178881   0.483   6.240   9.847
26213WAT     H278882   0.440   6.362   9.946
26214WAT      O78883   1.951   0.766   8.623
26214WAT     H178884   1.946   0.866   8.626
26214WAT     H278885   1.865   0.730   8.586
26215WAT      O78886   8.638   6.842   0.949
26215WAT     H178887   8.691   6.905   0.892
26215WAT     H278888   8.557   6.812   0.899
26216WAT      O78889   2.351   9.661   7.177
26216WAT     H178890   2.277   9.691   7.118
26216WAT     H278891   2.374   9.733   7.242
26217WAT      O78892   9.235   5.066   0.937
26217WAT     H178893   9.283   4.991   0.892
26217WAT     H278894   9.299   5.114   0.998
26218WAT      O78895   6.073   1.123   8.215
26218WAT     H178896   5.977   1.151   8.203
26218WAT     H278897   6.133   1.200   8.196
26219WAT      O78898   8.121   7.707   9.053
26219WAT     H178899   8.175   7.759   9.119
26219WAT     H278900   8.105   7.762   8.971
26220WAT      O78901   9.452   3.533   2.340
26220WAT     H178902   9.485   3.546   2.434
26220WAT     H278903   9.516   3.474   2.291
26221WAT      O78904   7.303   2.823   2.972
26221WAT     H178905   7.319   2.854   2.878
26221WAT     H278906   7.279   2.901   3.029
26222WAT      O78907   7.138   3.437   4.371
26222WAT     H178908   7.048   3.401   4.395
26222WAT     H278909   7.147   3.441   4.272
26223WAT      O78910   8.316   0.839   8.607
26223WAT     H178911   8.271   0.766   8.556
26223WAT     H278912   8.363   0.801   8.686
26224WAT      O78913   4.419   2.327   0.475
26224WAT     H178914   4.398   2.246   0.530
26224WAT     H278915   4.380   2.317   0.384
26225WAT      O78916   0.457   5.817   0.948
26225WAT     H178917   0.399   5.892   0.915
26225WAT     H278918   0.406   5.731   0.946
26226WAT      O78919   3.974   2.169   3.740
26226WAT     H178920   3.993   2.213   3.652
26226WAT     H278921   4.032   2.089   3.750
26227WAT      O78922   6.603   5.478   6.920
26227WAT     H178923   6.666   5.514   6.988
26227WAT     H278924   6.571   5.552   6.861
26228WAT      O78925   5.302   1.445   9.338
26228WAT     H178926   5.274   1.530   9.292
26228WAT     H278927   5.392   1.418   9.304
26229WAT      O78928   2.445   5.652   4.730
26229WAT     H178929   2.505   5.607   4.796
26229WAT     H278930   2.405   5.733   4.772
26230WAT      O78931   8.494   2.500   4.179
26230WAT     H178932   8.453   2.567   4.118
26230WAT     H278933   8.578   2.465   4.138
26231WAT      O78934   0.786   1.398   6.523
26231WAT     H178935   0.839   1.314   6.516
26231WAT     H278936   0.698   1.386   6.476
26232WAT      O78937   7.343   8.014   2.021
26232WAT     H178938   7.348   7.922   2.061
26232WAT     H278939   7.371   8.081   2.089
26233WAT      O78940   8.201   2.382   9.554
26233WAT     H178941   8.210   2.472   9.597
26233WAT     H278942   8.142   2.389   9.474
26234WAT      O78943   3.706   4.031   0.225
26234WAT     H178944   3.737   3.996   0.314
26234WAT     H278945   3.682   4.128   0.234
26235WAT      O78946   4.279   9.197   5.175
26235WAT     H178947   4.379   9.187   5.177
26235WAT     H278948   4.238   9.109   5.154
26236WAT      O78949   1.913   1.244   0.727
26236WAT     H178950   1.952   1.322   0.775
26236WAT     H278951   1.956   1.235   0.637
26237WAT      O78952   5.633   1.086   1.193
26237WAT     H178953   5.631   1.028   1.111
26237WAT     H278954   5.609   1.031   1.273
26238WAT      O78955   1.892   3.027   0.513
26238WAT     H178956   1.935   3.082   0.441
26238WAT     H278957   1.815   2.977   0.474
26239WAT      O78958   4.929   7.687   5.934
26239WAT     H178959   4.833   7.716   5.933
26239WAT     H278960   4.934   7.588   5.922
26240WAT      O78961   4.426   8.155   5.555
26240WAT     H178962   4.400   8.152   5.458
26240WAT     H278963   4.391   8.073   5.601
26241WAT      O78964   3.829   1.822   7.106
26241WAT     H178965   3.809   1.746   7.044
26241WAT     H278966   3.899   1.794   7.171
26242WAT      O78967   9.464   6.758   3.025
26242WAT     H178968   9.481   6.675   3.076
26242WAT     H278969   9.379   6.749   2.973
26243WAT      O78970   9.659   5.524   5.708
26243WAT     H178971   9.753   5.511   5.676
26243WAT     H278972   9.659   5.534   5.808
26244WAT      O78973   2.125   0.839   7.433
26244WAT     H178974   2.157   0.827   7.339
26244WAT     H278975   2.190   0.895   7.484
26245WAT      O78976   0.952   2.455   0.662
26245WAT     H178977   0.886   2.388   0.695
26245WAT     H278978   0.904   2.526   0.610
26246WAT      O78979   5.155   1.270   0.338
26246WAT     H178980   5.222   1.242   0.407
26246WAT     H278981   5.183   1.358   0.299
26247WAT      O78982   3.678   4.315   0.332
26247WAT     H178983   3.654   4.280   0.422
26247WAT     H278984   3.604   4.373   0.297
26248WAT      O78985   2.392   4.902   0.330
26248WAT     H178986   2.356   4.994   0.340
26248WAT     H278987   2.359   4.863   0.244
26249WAT      O78988   2.991   6.905   3.412
26249WAT     H178989   2.926   6.878   3.483
26249WAT     H278990   3.035   6.824   3.374
26250WAT      O78991   4.690   6.869   3.206
26250WAT     H178992   4.757   6.813   3.157
26250WAT     H278993   4.727   6.962   3.218
26251WAT      O78994   8.599   9.820   2.427
26251WAT     H178995   8.516   9.860   2.390
26251WAT     H278996   8.679   9.868   2.390
26252WAT      O78997   2.226   9.780   2.919
26252WAT     H178998   2.311   9.752   2.962
26252WAT     H278999   2.203   9.873   2.946
26253WAT      O79000   9.543   3.573   7.278
26253WAT     H179001   9.590   3.619   7.202
26253WAT     H279002   9.535   3.475   7.259
26254WAT      O79003   7.435   8.116   0.930
26254WAT     H179004   7.451   8.031   0.980
26254WAT     H279005   7.337   8.134   0.925
26255WAT      O79006   7.300   3.031   6.420
26255WAT     H179007   7.210   3.073   6.433
26255WAT     H279008   7.289   2.932   6.412
26256WAT      O79009   8.797   8.251   6.887
26256WAT     H179010   8.863   8.176   6.897
26256WAT     H279011   8.710   8.225   6.927
26257WAT      O79012   8.980   2.359   4.805
26257WAT     H179013   9.050   2.317   4.747
26257WAT     H279014   8.891   2.354   4.760
26258WAT      O79015   5.933   2.172   0.393
26258WAT     H179016   5.980   2.259   0.400
26258WAT     H279017   5.864   2.177   0.321
26259WAT      O79018   7.171   3.788   5.002
26259WAT     H179019   7.072   3.774   5.012
26259WAT     H279020   7.200   3.756   4.912
26260WAT      O79021   4.318   3.332   5.054
26260WAT     H179022   4.289   3.286   5.138
26260WAT     H279023   4.330   3.429   5.072
26261WAT      O79024   7.536   4.086   9.569
26261WAT     H179025   7.540   4.123   9.661
26261WAT     H279026   7.495   4.153   9.507
26262WAT      O79027   1.451   3.722   8.291
26262WAT     H179028   1.450   3.659   8.369
26262WAT     H279029   1.539   3.768   8.286
26263WAT      O79030   7.740   1.115   2.600
26263WAT     H179031   7.786   1.056   2.666
26263WAT     H279032   7.698   1.193   2.647
26264WAT      O79033   1.782   0.760   4.109
26264WAT     H179034   1.843   0.830   4.145
26264WAT     H279035   1.824   0.670   4.122
26265WAT      O79036   6.439   3.190   7.919
26265WAT     H179037   6.349   3.229   7.898
26265WAT     H279038   6.482   3.245   7.990
26266WAT      O79039   9.222   7.381   1.767
26266WAT     H179040   9.280   7.369   1.686
26266WAT     H279041   9.165   7.463   1.756
26267WAT      O79042   9.130   2.438   1.855
26267WAT     H179043   9.044   2.481   1.883
26267WAT     H279044   9.136   2.439   1.756
26268WAT      O79045   2.740   1.935   5.106
26268WAT     H179046   2.702   1.930   5.014
26268WAT     H279047   2.759   2.030   5.130
26269WAT      O79048   1.733   2.192   1.583
26269WAT     H179049   1.709   2.145   1.668
26269WAT     H279050   1.702   2.287   1.588
26270WAT      O79051   3.593   6.038   4.693
26270WAT     H179052   3.578   5.976   4.616
26270WAT     H279053   3.592   5.986   4.778
26271WAT      O79054   0.373   5.684   7.648
26271WAT     H179055   0.379   5.750   7.573
26271WAT     H279056   0.401   5.728   7.734
26272WAT      O79057   2.701   5.655   0.079
26272WAT     H179058   2.631   5.594   0.116
26272WAT     H279059   2.661   5.746   0.062
26273WAT      O79060   1.843   6.831   9.773
26273WAT     H179061   1.867   6.870   9.862
26273WAT     H279062   1.920   6.779   9.738
26274WAT      O79063   8.424   2.878   0.572
26274WAT     H179064   8.416   2.932   0.655
26274WAT     H279065   8.332   2.850   0.542
26275WAT      O79066   1.006   8.249   4.002
26275WAT     H179067   1.052   8.179   3.947
26275WAT     H279068   1.067   8.328   4.012
26276WAT      O79069   6.265   8.449   3.510
26276WAT     H179070   6.231   8.421   3.600
26276WAT     H279071   6.283   8.547   3.511
26277WAT      O79072   3.731   1.872   3.989
26277WAT     H179073   3.728   1.928   3.907
26277WAT     H279074   3.759   1.779   3.966
26278WAT      O79075   3.590   6.552   9.594
26278WAT     H179076   3.578   6.473   9.654
26278WAT     H279077   3.685   6.583   9.598
26279WAT      O79078   3.731   1.281   5.764
26279WAT     H179079   3.750   1.185   5.783
26279WAT     H279080   3.677   1.319   5.839
26280WAT      O79081   8.967   1.638   4.932
26280WAT     H179082   8.991   1.541   4.927
26280WAT     H279083   8.908   1.653   5.011
26281WAT      O79084   6.160   2.540   0.214
26281WAT     H179085   6.252   2.573   0.195
26281WAT     H279086   6.113   2.606   0.273
26282WAT      O79087   0.480   4.574   3.206
26282WAT     H179088   0.503   4.505   3.274
26282WAT     H279089   0.393   4.550   3.162
26283WAT      O79090   5.507   3.433   1.241
26283WAT     H179091   5.498   3.460   1.337
26283WAT     H279092   5.526   3.515   1.186
26284WAT      O79093   1.956   3.148   0.240
26284WAT     H179094   1.873   3.204   0.234
26284WAT     H279095   1.945   3.066   0.184
26285WAT      O79096   3.506   0.146   4.838
26285WAT     H179097   3.443   0.112   4.908
26285WAT     H279098   3.523   0.244   4.852
26286WAT      O79099   4.493   5.762   0.797
26286WAT     H179100   4.484   5.663   0.807
26286WAT     H279101   4.412   5.807   0.833
26287WAT      O79102   4.708   6.939   9.156
26287WAT     H179103   4.780   6.969   9.094
26287WAT     H279104   4.625   6.994   9.142
26288WAT      O79105   5.733   5.937   6.976
26288WAT     H179106   5.644   5.896   6.956
26288WAT     H279107   5.721   6.018   7.034
26289WAT      O79108   4.643   6.330   8.310
26289WAT     H179109   4.684   6.286   8.230
26289WAT     H279110   4.675   6.284   8.393
26290WAT      O79111   6.152   8.742   8.615
26290WAT     H179112   6.196   8.708   8.532
26290WAT     H279113   6.178   8.838   8.629
26291WAT      O79114   6.431   4.031   1.101
26291WAT     H179115   6.453   4.069   1.011
26291WAT     H279116   6.369   4.093   1.149
26292WAT      O79117   6.221   8.424   5.259
26292WAT     H179118   6.166   8.416   5.343
26292WAT     H279119   6.230   8.520   5.234
26293WAT      O79120   1.979   1.925   2.533
26293WAT     H179121   1.986   2.021   2.561
26293WAT     H279122   1.888   1.891   2.557
26294WAT      O79123   7.672   9.094   1.650
26294WAT     H179124   7.585   9.049   1.628
26294WAT     H279125   7.697   9.074   1.745
26295WAT      O79126   7.091   4.098   0.999
26295WAT     H179127   7.029   4.064   0.928
26295WAT     H279128   7.153   4.025   1.027
26296WAT      O79129   7.891   3.692   9.154
26296WAT     H179130   7.981   3.726   9.182
26296WAT     H279131   7.866   3.732   9.066
26297WAT      O79132   3.553   5.373   0.271
26297WAT     H179133   3.477   5.429   0.304
26297WAT     H279134   3.623   5.433   0.231
26298WAT      O79135   4.184   4.978   5.064
26298WAT     H179136   4.094   4.984   5.022
26298WAT     H279137   4.187   4.901   5.127
26299WAT      O79138   8.882   2.434   1.654
26299WAT     H179139   8.884   2.468   1.748
26299WAT     H279140   8.919   2.342   1.650
26300WAT      O79141   3.179   6.096   3.645
26300WAT     H179142   3.211   6.126   3.735
26300WAT     H279143   3.166   6.176   3.587
26301WAT      O79144   4.473   8.555   2.249
26301WAT     H179145   4.525   8.477   2.283
26301WAT     H279146   4.463   8.548   2.150
26302WAT      O79147   1.991   3.563   0.433
26302WAT     H179148   2.036   3.474   0.434
26302WAT     H279149   1.893   3.551   0.423
26303WAT      O79150   1.899   2.321   3.859
26303WAT     H179151   1.890   2.318   3.959
26303WAT     H279152   1.875   2.413   3.827
26304WAT      O79153   2.239   2.673   0.885
26304WAT     H179154   2.302   2.598   0.866
26304WAT     H279155   2.220   2.723   0.801
26305WAT      O79156   1.763   8.780   7.485
26305WAT     H179157   1.860   8.762   7.504
26305WAT     H279158   1.755   8.851   7.415
26306WAT      O79159   7.261   3.220   0.373
26306WAT     H179160   7.194   3.226   0.299
26306WAT     H279161   7.311   3.134   0.366
26307WAT      O79162   0.622   2.746   7.772
26307WAT     H179163   0.655   2.756   7.866
26307WAT     H279164   0.681   2.799   7.711
26308WAT      O79165   4.935   3.407   7.765
26308WAT     H179166   4.923   3.316   7.725
26308WAT     H279167   4.896   3.408   7.857
26309WAT      O79168   1.154   7.327   3.126
26309WAT     H179169   1.223   7.375   3.180
26309WAT     H279170   1.125   7.244   3.174
26310WAT      O79171   7.426   4.993   6.130
26310WAT     H179172   7.521   4.977   6.106
26310WAT     H279173   7.379   5.035   6.052
26311WAT      O79174   0.582   1.095   8.605
26311WAT     H179175   0.573   1.193   8.621
26311WAT     H279176   0.494   1.059   8.574
26312WAT      O79177   5.033   0.176   2.072
26312WAT     H179178   5.040   0.265   2.027
26312WAT     H279179   4.946   0.133   2.048
26313WAT      O79180   3.104   0.886   1.364
26313WAT     H179181   3.130   0.831   1.285
26313WAT     H279182   3.064   0.828   1.434
26314WAT      O79183   2.635   0.112   2.743
26314WAT     H179184   2.638   0.177   2.666
26314WAT     H279185   2.578   0.034   2.718
26315WAT      O79186   8.468   7.602   5.690
26315WAT     H179187   8.529   7.523   5.697
26315WAT     H279188   8.455   7.624   5.593
26316WAT      O79189   3.641   9.720   7.121
26316WAT     H179190   3.630   9.819   7.137
26316WAT     H279191   3.710   9.685   7.184
26317WAT      O79192   0.780   3.678   4.178
26317WAT     H179193   0.854   3.738   4.147
26317WAT     H279194   0.810   3.583   4.175
26318WAT      O79195   2.913   7.190   0.439
26318WAT     H179196   2.922   7.210   0.537
26318WAT     H279197   2.969   7.110   0.417
26319WAT      O79198   3.336   2.841   0.045
26319WAT     H179199   3.401   2.917   0.054
26319WAT     H279200   3.305   2.813   0.136
26320WAT      O79201   6.218   5.522   2.091
26320WAT     H179202   6.121   5.500   2.087
26320WAT     H279203   6.241   5.555   2.183
26321WAT      O79204   2.183   6.997   1.186
26321WAT     H179205   2.224   7.049   1.111
26321WAT     H279206   2.095   7.036   1.210
26322WAT      O79207   8.033   1.236   4.100
26322WAT     H179208   8.085   1.262   4.018
26322WAT     H279209   7.953   1.296   4.109
26323WAT      O79210   6.480   2.777   3.638
26323WAT     H179211   6.558   2.766   3.576
26323WAT     H279212   6.436   2.866   3.622
26324WAT      O79213   5.073   8.721   3.101
26324WAT     H179214   5.103   8.626   3.102
26324WAT     H279215   5.076   8.756   3.007
26325WAT      O79216   5.434   1.033   8.537
26325WAT     H179217   5.433   0.993   8.629
26325WAT     H279218   5.520   1.010   8.492
26326WAT      O79219   5.866   0.452   3.545
26326WAT     H179220   5.787   0.491   3.497
26326WAT     H279221   5.897   0.515   3.615
26327WAT      O79222   9.164   5.597   1.560
26327WAT     H179223   9.083   5.604   1.502
26327WAT     H279224   9.240   5.562   1.505
26328WAT      O79225   3.296   1.333   1.948
26328WAT     H179226   3.213   1.387   1.933
26328WAT     H279227   3.360   1.385   2.004
26329WAT      O79228   8.442   6.031   8.515
26329WAT     H179229   8.402   5.956   8.462
26329WAT     H279230   8.370   6.081   8.562
26330WAT      O79231   1.665   4.324   7.864
26330WAT     H179232   1.624   4.252   7.921
26330WAT     H279233   1.642   4.307   7.768
26331WAT      O79234   7.734   9.755   1.311
26331WAT     H179235   7.799   9.794   1.377
26331WAT     H279236   7.785   9.713   1.236
26332WAT      O79237   0.962   6.075   3.719
26332WAT     H179238   1.043   6.094   3.663
26332WAT     H279239   0.966   5.980   3.751
26333WAT      O79240   4.070   3.502   8.748
26333WAT     H179241   4.134   3.426   8.758
26333WAT     H279242   4.120   3.587   8.734
26334WAT      O79243   9.193   7.665   3.802
26334WAT     H179244   9.199   7.671   3.901
26334WAT     H279245   9.263   7.603   3.768
26335WAT      O79246   5.143   8.508   6.942
26335WAT     H179247   5.058   8.456   6.944
26335WAT     H279248   5.141   8.573   6.866
26336WAT      O79249   4.978   1.054   2.864
26336WAT     H179250   4.984   0.963   2.821
26336WAT     H279251   4.998   1.046   2.962
26337WAT      O79252   2.310   2.847   3.673
26337WAT     H179253   2.263   2.868   3.759
26337WAT     H279254   2.290   2.918   3.606
26338WAT      O79255   6.785   2.672   4.954
26338WAT     H179256   6.877   2.641   4.980
26338WAT     H279257   6.784   2.693   4.856
26339WAT      O79258   2.067   4.201   2.182
26339WAT     H179259   2.009   4.274   2.145
26339WAT     H279260   2.015   4.148   2.249
26340WAT      O79261   7.309   6.062   8.660
26340WAT     H179262   7.361   6.061   8.746
26340WAT     H279263   7.217   6.026   8.677
26341WAT      O79264   6.859   9.030   4.783
26341WAT     H179265   6.902   9.094   4.847
26341WAT     H279266   6.777   9.071   4.745
26342WAT      O79267   0.304   5.386   0.024
26342WAT     H179268   0.207   5.399   0.005
26342WAT     H279269   0.351   5.356  -0.060
26343WAT      O79270   8.237   5.839   9.157
26343WAT     H179271   8.313   5.902   9.173
26343WAT     H279272   8.161   5.861   9.218
26344WAT      O79273   1.011   1.748   7.127
26344WAT     H179274   1.047   1.658   7.103
26344WAT     H279275   1.079   1.818   7.105
26345WAT      O79276   0.369   6.421   8.283
26345WAT     H179277   0.369   6.386   8.376
26345WAT     H279278   0.462   6.443   8.255
26346WAT      O79279   9.759   5.378   1.185
26346WAT     H179280   9.836   5.397   1.245
26346WAT     H279281   9.775   5.420   1.095
26347WAT      O79282   6.420   6.538   9.484
26347WAT     H179283   6.447   6.508   9.575
26347WAT     H279284   6.501   6.549   9.426
26348WAT      O79285   7.604   5.602   3.923
26348WAT     H179286   7.514   5.559   3.923
26348WAT     H279287   7.673   5.534   3.898
26349WAT      O79288   3.160   7.236   3.221
26349WAT     H179289   3.069   7.217   3.258
26349WAT     H279290   3.152   7.298   3.143
26350WAT      O79291   7.014   5.067   6.155
26350WAT     H179292   6.933   5.102   6.202
26350WAT     H279293   7.093   5.073   6.216
26351WAT      O79294   4.112   0.279   9.776
26351WAT     H179295   4.085   0.361   9.725
26351WAT     H279296   4.194   0.240   9.735
26352WAT      O79297   7.994   6.041   6.478
26352WAT     H179298   7.926   6.106   6.444
26352WAT     H279299   7.983   5.953   6.433
26353WAT      O79300   8.405   9.067   6.813
26353WAT     H179301   8.329   9.002   6.806
26353WAT     H279302   8.382   9.151   6.762
26354WAT      O79303   2.762   3.737   7.644
26354WAT     H179304   2.775   3.655   7.700
26354WAT     H279305   2.791   3.717   7.550
26355WAT      O79306   6.292   6.087   7.409
26355WAT     H179307   6.210   6.095   7.466
26355WAT     H279308   6.282   6.145   7.328
26356WAT      O79309   3.750   4.245   1.983
26356WAT     H179310   3.818   4.181   2.018
26356WAT     H279311   3.683   4.196   1.926
26357WAT      O79312   0.706   4.579   7.106
26357WAT     H179313   0.680   4.649   7.039
26357WAT     H279314   0.644   4.582   7.184
26358WAT      O79315   4.451   4.579   3.599
26358WAT     H179316   4.392   4.647   3.555
26358WAT     H279317   4.543   4.586   3.560
26359WAT      O79318   8.326   7.724   7.824
26359WAT     H179319   8.418   7.763   7.818
26359WAT     H279320   8.328   7.630   7.790
26360WAT      O79321   8.848   0.619   4.107
26360WAT     H179322   8.750   0.613   4.088
26360WAT     H279323   8.862   0.663   4.196
26361WAT      O79324   7.207   0.131   4.309
26361WAT     H179325   7.221   0.036   4.336
26361WAT     H279326   7.218   0.140   4.210
26362WAT      O79327   6.756   9.420   5.169
26362WAT     H179328   6.769   9.418   5.268
26362WAT     H279329   6.665   9.387   5.146
26363WAT      O79330   2.440   8.620   1.422
26363WAT     H179331   2.533   8.617   1.460
26363WAT     H279332   2.445   8.629   1.323
26364WAT      O79333   3.033   7.368   1.087
26364WAT     H179334   3.062   7.435   1.018
26364WAT     H279335   3.029   7.277   1.046
26365WAT      O79336   2.111   8.467   2.378
26365WAT     H179337   2.108   8.368   2.362
26365WAT     H279338   2.206   8.497   2.387
26366WAT      O79339   9.744   2.171   1.296
26366WAT     H179340   9.705   2.151   1.385
26366WAT     H279341   9.752   2.270   1.284
26367WAT      O79342   4.930   9.131   2.168
26367WAT     H179343   4.956   9.213   2.117
26367WAT     H279344   5.011   9.074   2.182
26368WAT      O79345   6.478   2.844   8.379
26368WAT     H179346   6.554   2.871   8.438
26368WAT     H279347   6.431   2.926   8.345
26369WAT      O79348   8.581   6.571   2.381
26369WAT     H179349   8.581   6.621   2.468
26369WAT     H279350   8.636   6.488   2.391
26370WAT      O79351   4.182   4.477   3.454
26370WAT     H179352   4.246   4.459   3.528
26370WAT     H279353   4.158   4.392   3.408
26371WAT      O79354   0.534   7.635   8.385
26371WAT     H179355   0.463   7.630   8.314
26371WAT     H279356   0.619   7.667   8.344
26372WAT      O79357   0.044   8.272   6.579
26372WAT     H179358   0.112   8.213   6.624
26372WAT     H279359  -0.037   8.218   6.558
26373WAT      O79360   2.943   4.301   7.992
26373WAT     H179361   3.030   4.254   8.003
26373WAT     H279362   2.931   4.328   7.896
26374WAT      O79363   7.982   7.060   2.573
26374WAT     H179364   7.912   7.069   2.502
26374WAT     H279365   7.998   6.964   2.592
26375WAT      O79366   4.258   5.371   5.885
26375WAT     H179367   4.227   5.371   5.790
26375WAT     H279368   4.228   5.455   5.930
26376WAT      O79369   7.421   8.310   7.105
26376WAT     H179370   7.412   8.404   7.072
26376WAT     H279371   7.426   8.311   7.205
26377WAT      O79372   8.091   5.199   5.895
26377WAT     H179373   8.032   5.245   5.961
26377WAT     H279374   8.054   5.108   5.874
26378WAT      O79375   7.084   9.808   0.215
26378WAT     H179376   7.075   9.710   0.235
26378WAT     H279377   7.178   9.837   0.234
26379WAT      O79378   5.719   5.027   9.145
26379WAT     H179379   5.686   5.105   9.198
26379WAT     H279380   5.816   5.012   9.165
26380WAT      O79381   8.122   0.712   8.866
26380WAT     H179382   8.054   0.745   8.800
26380WAT     H279383   8.139   0.615   8.851
26381WAT      O79384   9.333   4.200   6.037
26381WAT     H179385   9.247   4.158   6.065
26381WAT     H279386   9.401   4.128   6.018
26382WAT      O79387   0.030   3.039   1.569
26382WAT     H179388   0.027   2.956   1.514
26382WAT     H279389  -0.057   3.050   1.617
26383WAT      O79390   8.862   0.322   6.599
26383WAT     H179391   8.917   0.246   6.563
26383WAT     H279392   8.786   0.341   6.536
26384WAT      O79393   5.941   3.036   7.200
26384WAT     H179394   6.018   2.976   7.179
26384WAT     H279395   5.867   2.983   7.242
26385WAT      O79396   3.354   1.752   7.322
26385WAT     H179397   3.287   1.824   7.343
26385WAT     H279398   3.323   1.666   7.364
26386WAT      O79399   9.196   6.696   7.610
26386WAT     H179400   9.218   6.704   7.708
26386WAT     H279401   9.108   6.648   7.600
26387WAT      O79402   2.162   3.015   7.191
26387WAT     H179403   2.232   3.083   7.215
26387WAT     H279404   2.103   2.999   7.269
26388WAT      O79405   0.810   6.655   3.873
26388WAT     H179406   0.736   6.656   3.941
26388WAT     H279407   0.898   6.665   3.919
26389WAT      O79408   4.479   0.638   7.072
26389WAT     H179409   4.387   0.617   7.105
26389WAT     H279410   4.518   0.712   7.128
26390WAT      O79411   5.724   2.631   3.688
26390WAT     H179412   5.798   2.601   3.749
26390WAT     H279413   5.674   2.706   3.733
26391WAT      O79414   1.629   1.252   1.795
26391WAT     H179415   1.567   1.237   1.872
26391WAT     H279416   1.703   1.312   1.824
26392WAT      O79417   4.993   3.023   3.021
26392WAT     H179418   5.025   2.930   3.006
26392WAT     H279419   5.060   3.074   3.074
26393WAT      O79420   5.620   9.190   4.307
26393WAT     H179421   5.639   9.231   4.217
26393WAT     H279422   5.673   9.106   4.317
26394WAT      O79423   6.624   9.305   6.604
26394WAT     H179424   6.678   9.387   6.587
26394WAT     H279425   6.682   9.233   6.642
26395WAT      O79426   8.356   6.858   4.426
26395WAT     H179427   8.324   6.856   4.521
26395WAT     H279428   8.452   6.886   4.424
26396WAT      O79429   8.505   6.444   0.890
26396WAT     H179430   8.463   6.368   0.840
26396WAT     H279431   8.529   6.414   0.983
26397WAT      O79432   2.857   6.386   0.715
26397WAT     H179433   2.945   6.393   0.763
26397WAT     H279434   2.793   6.453   0.753
26398WAT      O79435   7.749   3.534   8.633
26398WAT     H179436   7.717   3.506   8.723
26398WAT     H279437   7.692   3.491   8.562
26399WAT      O79438   7.448   6.297   2.916
26399WAT     H179439   7.442   6.365   2.989
26399WAT     H279440   7.542   6.264   2.909
26400WAT      O79441   4.049   5.854   9.733
26400WAT     H179442   4.007   5.941   9.707
26400WAT     H279443   3.978   5.786   9.750
26401WAT      O79444   4.460   7.514   6.737
26401WAT     H179445   4.517   7.439   6.771
26401WAT     H279446   4.370   7.509   6.781
26402WAT      O79447   6.844   5.387   5.290
26402WAT     H179448   6.819   5.414   5.383
26402WAT     H279449   6.763   5.356   5.241
26403WAT      O79450   9.320   5.946   4.368
26403WAT     H179451   9.362   6.005   4.436
26403WAT     H279452   9.226   5.976   4.351
26404WAT      O79453   8.258   2.237   6.523
26404WAT     H179454   8.330   2.168   6.522
26404WAT     H279455   8.170   2.194   6.500
26405WAT      O79456   4.174   5.126   8.696
26405WAT     H179457   4.148   5.041   8.649
26405WAT     H279458   4.102   5.194   8.685
26406WAT      O79459   6.631   6.252   8.669
26406WAT     H179460   6.698   6.248   8.743
26406WAT     H279461   6.679   6.259   8.581
26407WAT      O79462   7.018   3.090   6.948
26407WAT     H179463   6.994   3.186   6.931
26407WAT     H279464   7.054   3.082   7.041
26408WAT      O79465   5.648   6.858   4.140
26408WAT     H179466   5.611   6.765   4.131
26408WAT     H279467   5.685   6.870   4.231
26409WAT      O79468   0.104   2.822   7.219
26409WAT     H179469   0.198   2.846   7.194
26409WAT     H279470   0.049   2.905   7.225
26410WAT      O79471   8.378   6.874   8.661
26410WAT     H179472   8.468   6.905   8.633
26410WAT     H279473   8.387   6.797   8.724
26411WAT      O79474   9.470   6.178   0.550
26411WAT     H179475   9.506   6.268   0.578
26411WAT     H279476   9.546   6.116   0.534
26412WAT      O79477   2.499   1.044   0.924
26412WAT     H179478   2.419   1.104   0.931
26412WAT     H279479   2.472   0.958   0.880
26413WAT      O79480   5.812   5.494   1.663
26413WAT     H179481   5.875   5.437   1.716
26413WAT     H279482   5.836   5.487   1.566
26414WAT      O79483   6.805   9.140   6.109
26414WAT     H179484   6.757   9.226   6.094
26414WAT     H279485   6.903   9.153   6.096
26415WAT      O79486   9.222   4.469   0.068
26415WAT     H179487   9.242   4.567   0.077
26415WAT     H279488   9.194   4.432   0.156
26416WAT      O79489   9.825   8.224   4.646
26416WAT     H179490   9.773   8.285   4.587
26416WAT     H279491   9.840   8.268   4.735
26417WAT      O79492   5.804   2.564   1.702
26417WAT     H179493   5.902   2.571   1.684
26417WAT     H279494   5.754   2.622   1.637
26418WAT      O79495   1.380   5.474   5.841
26418WAT     H179496   1.415   5.498   5.932
26418WAT     H279497   1.306   5.535   5.816
26419WAT      O79498   0.260   0.202   1.029
26419WAT     H179499   0.320   0.201   1.109
26419WAT     H279500   0.274   0.119   0.975
26420WAT      O79501   4.443   9.649   9.735
26420WAT     H179502   4.361   9.703   9.754
26420WAT     H279503   4.436   9.560   9.780
26421WAT      O79504   4.007   6.907   1.056
26421WAT     H179505   4.020   6.832   1.120
26421WAT     H279506   4.025   6.875   0.963
26422WAT      O79507   1.793   4.578   2.657
26422WAT     H179508   1.771   4.620   2.570
26422WAT     H279509   1.791   4.647   2.730
26423WAT      O79510   3.018   2.317   3.444
26423WAT     H179511   2.927   2.356   3.458
26423WAT     H279512   3.020   2.270   3.356
26424WAT      O79513   2.079   4.964   1.185
26424WAT     H179514   2.022   5.025   1.240
26424WAT     H279515   2.030   4.879   1.168
26425WAT      O79516   6.721   5.533   6.415
26425WAT     H179517   6.803   5.521   6.472
26425WAT     H279518   6.735   5.612   6.354
26426WAT      O79519   8.838   0.585   9.591
26426WAT     H179520   8.904   0.640   9.540
26426WAT     H279521   8.886   0.515   9.643
26427WAT      O79522   5.392   4.125   9.665
26427WAT     H179523   5.413   4.187   9.740
26427WAT     H279524   5.296   4.136   9.638
26428WAT      O79525   4.636   2.177   1.917
26428WAT     H179526   4.579   2.096   1.908
26428WAT     H279527   4.705   2.162   1.987
26429WAT      O79528   5.759   8.801   1.926
26429WAT     H179529   5.816   8.766   2.000
26429WAT     H279530   5.798   8.774   1.838
26430WAT      O79531   6.066   3.859   0.285
26430WAT     H179532   6.012   3.778   0.309
26430WAT     H279533   6.153   3.856   0.334
26431WAT      O79534   0.250   8.948   2.694
26431WAT     H179535   0.202   8.862   2.710
26431WAT     H279536   0.257   9.000   2.779
26432WAT      O79537   2.931   6.329   1.565
26432WAT     H179538   2.900   6.244   1.524
26432WAT     H279539   2.892   6.406   1.516
26433WAT      O79540   8.332   7.162   8.989
26433WAT     H179541   8.419   7.168   8.941
26433WAT     H279542   8.328   7.230   9.061
26434WAT      O79543   7.105   1.007   4.266
26434WAT     H179544   7.123   1.063   4.346
26434WAT     H279545   7.147   0.916   4.278
26435WAT      O79546   4.349   2.864   1.802
26435WAT     H179547   4.284   2.913   1.860
26435WAT     H279548   4.304   2.786   1.760
26436WAT      O79549   7.831   4.909   8.302
26436WAT     H179550   7.753   4.862   8.344
26436WAT     H279551   7.852   4.865   8.214
26437WAT      O79552   7.362   7.964   1.738
26437WAT     H179553   7.426   7.888   1.731
26437WAT     H279554   7.366   8.002   1.830
26438WAT      O79555   1.087   4.658   0.136
26438WAT     H179556   1.110   4.755   0.123
26438WAT     H279557   1.133   4.603   0.066
26439WAT      O79558   2.698   7.326   3.384
26439WAT     H179559   2.634   7.263   3.428
26439WAT     H279560   2.711   7.407   3.442
26440WAT      O79561   0.919   9.478   1.008
26440WAT     H179562   0.964   9.537   1.074
26440WAT     H279563   0.976   9.471   0.926
26441WAT      O79564   8.337   7.623   6.879
26441WAT     H179565   8.343   7.542   6.937
26441WAT     H279566   8.368   7.703   6.930
26442WAT      O79567   4.306   0.918   4.110
26442WAT     H179568   4.375   0.882   4.048
26442WAT     H279569   4.344   0.927   4.201
26443WAT      O79570   1.535   4.517   8.538
26443WAT     H179571   1.483   4.578   8.478
26443WAT     H279572   1.472   4.454   8.583
26444WAT      O79573   6.676   9.265   2.438
26444WAT     H179574   6.664   9.255   2.339
26444WAT     H279575   6.746   9.200   2.469
26445WAT      O79576   1.460   8.891   6.626
26445WAT     H179577   1.422   8.805   6.592
26445WAT     H279578   1.417   8.968   6.579
26446WAT      O79579   8.417   4.438   0.062
26446WAT     H179580   8.356   4.441  -0.018
26446WAT     H279581   8.408   4.524   0.113
26447WAT      O79582   7.579   6.139   5.151
26447WAT     H179583   7.538   6.086   5.077
26447WAT     H279584   7.628   6.077   5.213
26448WAT      O79585   3.336   3.373   3.245
26448WAT     H179586   3.354   3.410   3.153
26448WAT     H279587   3.272   3.296   3.237
26449WAT      O79588   3.360   8.523   6.802
26449WAT     H179589   3.413   8.592   6.753
26449WAT     H279590   3.379   8.433   6.763
26450WAT      O79591   0.374   5.579   6.008
26450WAT     H179592   0.282   5.573   5.969
26450WAT     H279593   0.394   5.496   6.059
26451WAT      O79594   3.202   0.322   4.447
26451WAT     H179595   3.139   0.246   4.434
26451WAT     H279596   3.221   0.333   4.544
26452WAT      O79597   6.937   1.765   6.831
26452WAT     H179598   6.845   1.726   6.818
26452WAT     H279599   6.936   1.860   6.800
26453WAT      O79600   7.372   6.442   2.003
26453WAT     H179601   7.379   6.345   1.982
26453WAT     H279602   7.379   6.455   2.102
26454WAT      O79603   8.428   7.096   5.979
26454WAT     H179604   8.408   7.024   5.913
26454WAT     H279605   8.482   7.059   6.054
26455WAT      O79606   2.690   9.790   3.318
26455WAT     H179607   2.789   9.797   3.324
26455WAT     H279608   2.665   9.698   3.287
26456WAT      O79609   6.822   0.070   8.055
26456WAT     H179610   6.790  -0.021   8.081
26456WAT     H279611   6.917   0.081   8.083
26457WAT      O79612   4.437   3.881   4.707
26457WAT     H179613   4.437   3.811   4.778
26457WAT     H279614   4.516   3.942   4.721
26458WAT      O79615   7.976   3.078   4.996
26458WAT     H179616   8.024   3.166   4.999
26458WAT     H279617   7.909   3.075   5.071
26459WAT      O79618   0.440   1.733   5.475
26459WAT     H179619   0.472   1.797   5.545
26459WAT     H279620   0.408   1.784   5.395
26460WAT      O79621   7.024   0.847   6.535
26460WAT     H179622   7.065   0.756   6.546
26460WAT     H279623   7.056   0.908   6.607
26461WAT      O79624   1.838   4.892   3.114
26461WAT     H179625   1.779   4.966   3.146
26461WAT     H279626   1.933   4.925   3.110
26462WAT      O79627   4.514   6.834   5.039
26462WAT     H179628   4.496   6.746   4.995
26462WAT     H279629   4.430   6.888   5.040
26463WAT      O79630   0.117   3.837   1.745
26463WAT     H179631   0.144   3.931   1.723
26463WAT     H279632   0.168   3.806   1.825
26464WAT      O79633   2.936   4.235   7.378
26464WAT     H179634   2.890   4.313   7.336
26464WAT     H279635   2.989   4.185   7.309
26465WAT      O79636   6.831   9.497   1.151
26465WAT     H179637   6.829   9.560   1.074
26465WAT     H279638   6.910   9.435   1.141
26466WAT      O79639   7.572   8.587   9.305
26466WAT     H179640   7.495   8.646   9.331
26466WAT     H279641   7.548   8.535   9.223
26467WAT      O79642   2.677   4.185   7.178
26467WAT     H179643   2.745   4.257   7.167
26467WAT     H279644   2.587   4.220   7.150
26468WAT      O79645   1.461   2.083   7.192
26468WAT     H179646   1.499   2.160   7.242
26468WAT     H279647   1.469   2.000   7.247
26469WAT      O79648   1.581   5.698   4.033
26469WAT     H179649   1.634   5.782   4.021
26469WAT     H279650   1.642   5.620   4.039
26470WAT      O79651   5.968   5.578   0.467
26470WAT     H179652   6.012   5.658   0.508
26470WAT     H279653   5.980   5.499   0.527
26471WAT      O79654   4.123   1.422   7.116
26471WAT     H179655   4.163   1.335   7.088
26471WAT     H279656   4.156   1.446   7.207
26472WAT      O79657   5.199   8.061   0.580
26472WAT     H179658   5.122   7.998   0.584
26472WAT     H279659   5.212   8.105   0.669
26473WAT      O79660   1.408   7.596   4.975
26473WAT     H179661   1.320   7.602   4.928
26473WAT     H279662   1.417   7.673   5.038
26474WAT      O79663   1.932   9.687   2.363
26474WAT     H179664   1.972   9.628   2.433
26474WAT     H279665   1.846   9.725   2.396
26475WAT      O79666   0.737   2.238   6.936
26475WAT     H179667   0.693   2.324   6.909
26475WAT     H279668   0.686   2.161   6.899
26476WAT      O79669   1.219   2.389   3.304
26476WAT     H179670   1.237   2.486   3.294
26476WAT     H279671   1.120   2.374   3.312
26477WAT      O79672   8.069   6.248   0.358
26477WAT     H179673   8.067   6.285   0.451
26477WAT     H279674   8.116   6.312   0.297
26478WAT      O79675   7.397   8.215   4.982
26478WAT     H179676   7.346   8.301   4.979
26478WAT     H279677   7.356   8.149   4.919
26479WAT      O79678   0.379   1.668   4.271
26479WAT     H179679   0.435   1.751   4.269
26479WAT     H279680   0.439   1.588   4.261
26480WAT      O79681   0.592   7.016   2.273
26480WAT     H179682   0.620   7.001   2.179
26480WAT     H279683   0.544   7.104   2.280
26481WAT      O79684   0.720   5.033   6.540
26481WAT     H179685   0.813   5.024   6.576
26481WAT     H279686   0.660   5.070   6.611
26482WAT      O79687   8.972   6.519   6.493
26482WAT     H179688   8.955   6.421   6.490
26482WAT     H279689   8.884   6.568   6.493
26483WAT      O79690   4.980   0.958   9.100
26483WAT     H179691   4.961   0.942   9.197
26483WAT     H279692   5.075   0.935   9.080
26484WAT      O79693   1.664   1.936   3.391
26484WAT     H179694   1.689   1.937   3.488
26484WAT     H279695   1.565   1.941   3.381
26485WAT      O79696   3.403   1.586   6.646
26485WAT     H179697   3.500   1.598   6.664
26485WAT     H279698   3.388   1.578   6.547
26486WAT      O79699   5.355   7.166   6.094
26486WAT     H179700   5.422   7.174   6.020
26486WAT     H279701   5.381   7.090   6.153
26487WAT      O79702   0.060   4.983   7.954
26487WAT     H179703   0.003   4.956   7.876
26487WAT     H279704   0.027   4.938   8.037
26488WAT      O79705   0.603   7.204   4.136
26488WAT     H179706   0.701   7.185   4.127
26488WAT     H279707   0.559   7.197   4.047
26489WAT      O79708   3.483   0.099   0.726
26489WAT     H179709   3.423   0.023   0.702
26489WAT     H279710   3.436   0.161   0.789
26490WAT      O79711   5.355   4.370   0.924
26490WAT     H179712   5.301   4.420   0.856
26490WAT     H279713   5.382   4.433   0.998
26491WAT      O79714   4.401   6.982   7.639
26491WAT     H179715   4.368   7.073   7.665
26491WAT     H279716   4.330   6.933   7.588
26492WAT      O79717   2.305   6.283   5.925
26492WAT     H179718   2.357   6.206   5.889
26492WAT     H279719   2.226   6.249   5.977
26493WAT      O79720   7.839   1.359   1.881
26493WAT     H179721   7.750   1.325   1.852
26493WAT     H279722   7.828   1.441   1.937
26494WAT      O79723   4.915   3.959   8.901
26494WAT     H179724   4.957   3.899   8.968
26494WAT     H279725   4.958   4.049   8.905
26495WAT      O79726   6.208   6.161   9.125
26495WAT     H179727   6.306   6.178   9.129
26495WAT     H279728   6.191   6.068   9.093
26496WAT      O79729   1.623   0.894   6.048
26496WAT     H179730   1.676   0.970   6.011
26496WAT     H279731   1.534   0.890   6.003
26497WAT      O79732   7.323   4.752   4.774
26497WAT     H179733   7.356   4.779   4.684
26497WAT     H279734   7.351   4.820   4.842
26498WAT      O79735   8.262   5.394   1.512
26498WAT     H179736   8.339   5.436   1.464
26498WAT     H279737   8.282   5.297   1.529
26499WAT      O79738   7.438   2.986   5.214
26499WAT     H179739   7.460   2.890   5.195
26499WAT     H279740   7.339   2.996   5.223
26500WAT      O79741   8.129   6.817   2.668
26500WAT     H179742   8.220   6.851   2.693
26500WAT     H279743   8.096   6.755   2.739
26501WAT      O79744   9.566   4.534   1.666
26501WAT     H179745   9.540   4.581   1.751
26501WAT     H279746   9.523   4.580   1.588
26502WAT      O79747   3.680   0.389   9.352
26502WAT     H179748   3.698   0.397   9.450
26502WAT     H279749   3.695   0.294   9.322
26503WAT      O79750   2.455   4.317   7.067
26503WAT     H179751   2.469   4.260   6.986
26503WAT     H279752   2.360   4.306   7.099
26504WAT      O79753   9.510   8.448   2.605
26504WAT     H179754   9.454   8.531   2.610
26504WAT     H279755   9.453   8.369   2.628
26505WAT      O79756   2.052   7.466   8.312
26505WAT     H179757   2.072   7.374   8.346
26505WAT     H279758   2.042   7.464   8.213
26506WAT      O79759   2.842   9.768   4.741
26506WAT     H179760   2.769   9.757   4.674
26506WAT     H279761   2.808   9.822   4.819
26507WAT      O79762   9.129   5.067   4.556
26507WAT     H179763   9.216   5.019   4.556
26507WAT     H279764   9.122   5.124   4.637
26508WAT      O79765   3.227   6.640   4.237
26508WAT     H179766   3.135   6.652   4.275
26508WAT     H279767   3.289   6.707   4.278
26509WAT      O79768   3.121   1.020   0.285
26509WAT     H179769   3.194   1.088   0.294
26509WAT     H279770   3.043   1.062   0.239
26510WAT      O79771   5.120   6.381   4.760
26510WAT     H179772   5.029   6.376   4.801
26510WAT     H279773   5.112   6.390   4.661
26511WAT      O79774   4.291   9.578   4.367
26511WAT     H179775   4.297   9.508   4.438
26511WAT     H279776   4.337   9.661   4.399
26512WAT      O79777   2.313   0.423   2.051
26512WAT     H179778   2.348   0.469   1.969
26512WAT     H279779   2.226   0.379   2.031
26513WAT      O79780   1.756   6.807   0.817
26513WAT     H179781   1.853   6.791   0.832
26513WAT     H279782   1.708   6.810   0.905
26514WAT      O79783   8.983   2.405   5.234
26514WAT     H179784   9.008   2.310   5.215
26514WAT     H279785   9.004   2.462   5.154
26515WAT      O79786   1.056   0.457   4.434
26515WAT     H179787   1.026   0.535   4.380
26515WAT     H279788   1.150   0.472   4.466
26516WAT      O79789   4.497   8.054   4.869
26516WAT     H179790   4.496   7.966   4.916
26516WAT     H279791   4.575   8.058   4.807
26517WAT      O79792   8.086   3.488   1.361
26517WAT     H179793   8.015   3.553   1.332
26517WAT     H279794   8.103   3.499   1.459
26518WAT      O79795   3.892   1.949   4.918
26518WAT     H179796   3.870   1.989   4.829
26518WAT     H279797   3.987   1.917   4.918
26519WAT      O79798   5.917   5.899   2.413
26519WAT     H179799   5.875   5.971   2.357
26519WAT     H279800   6.003   5.870   2.370
26520WAT      O79801   7.840   6.392   0.130
26520WAT     H179802   7.820   6.381   0.227
26520WAT     H279803   7.841   6.302   0.086
26521WAT      O79804   2.655   0.567   2.693
26521WAT     H179805   2.706   0.482   2.702
26521WAT     H279806   2.559   0.547   2.675
26522WAT      O79807   9.697   1.101   9.870
26522WAT     H179808   9.639   1.070   9.946
26522WAT     H279809   9.749   1.023   9.835
26523WAT      O79810   6.748   5.868   2.830
26523WAT     H179811   6.699   5.892   2.746
26523WAT     H279812   6.780   5.952   2.875
26524WAT      O79813   4.782   6.303   5.236
26524WAT     H179814   4.859   6.287   5.174
26524WAT     H279815   4.739   6.216   5.258
26525WAT      O79816   6.657   2.678   6.695
26525WAT     H179817   6.586   2.729   6.646
26525WAT     H279818   6.615   2.623   6.767
26526WAT      O79819   6.696   5.953   8.451
26526WAT     H179820   6.787   5.980   8.482
26526WAT     H279821   6.691   5.853   8.445
26527WAT      O79822   2.296   5.569   7.883
26527WAT     H179823   2.367   5.555   7.813
26527WAT     H279824   2.334   5.619   7.960
26528WAT      O79825   8.434   4.966   0.849
26528WAT     H179826   8.484   4.880   0.843
26528WAT     H279827   8.425   5.007   0.758
26529WAT      O79828   8.492   6.731   6.341
26529WAT     H179829   8.414   6.784   6.375
26529WAT     H279830   8.470   6.633   6.345
26530WAT      O79831   2.813   6.115   0.867
26530WAT     H179832   2.821   6.186   0.797
26530WAT     H279833   2.800   6.026   0.822
26531WAT      O79834   0.295   2.714   6.861
26531WAT     H179835   0.285   2.659   6.777
26531WAT     H279836   0.265   2.808   6.843
26532WAT      O79837   2.341   3.078   5.550
26532WAT     H179838   2.346   2.978   5.549
26532WAT     H279839   2.254   3.107   5.512
26533WAT      O79840   6.976   2.039   0.314
26533WAT     H179841   6.910   2.035   0.239
26533WAT     H279842   6.967   1.956   0.369
26534WAT      O79843   1.084   6.208   7.090
26534WAT     H179844   1.041   6.215   7.000
26534WAT     H279845   1.159   6.274   7.097
26535WAT      O79846   1.581   8.904   0.586
26535WAT     H179847   1.622   8.904   0.677
26535WAT     H279848   1.501   8.965   0.586
26536WAT      O79849   5.822   7.283   4.774
26536WAT     H179850   5.726   7.297   4.796
26536WAT     H279851   5.832   7.199   4.719
26537WAT      O79852   5.636   5.022   9.591
26537WAT     H179853   5.657   5.015   9.689
26537WAT     H279854   5.584   4.942   9.562
26538WAT      O79855   1.852   6.908   3.090
26538WAT     H179856   1.796   6.958   3.023
26538WAT     H279857   1.942   6.952   3.097
26539WAT      O79858   9.741   7.052   9.525
26539WAT     H179859   9.706   7.050   9.431
26539WAT     H279860   9.674   7.096   9.584
26540WAT      O79861   8.905   0.360   2.133
26540WAT     H179862   8.843   0.383   2.207
26540WAT     H279863   9.000   0.366   2.165
26541WAT      O79864   8.246   5.786   2.681
26541WAT     H179865   8.204   5.781   2.772
26541WAT     H279866   8.337   5.827   2.690
26542WAT      O79867   6.429   7.971   2.170
26542WAT     H179868   6.415   7.955   2.072
26542WAT     H279869   6.341   7.977   2.216
26543WAT      O79870   5.490   9.120   6.079
26543WAT     H179871   5.425   9.062   6.029
26543WAT     H279872   5.540   9.064   6.144
26544WAT      O79873   6.865   8.514   0.721
26544WAT     H179874   6.911   8.601   0.739
26544WAT     H279875   6.826   8.516   0.629
26545WAT      O79876   8.878   1.302   8.484
26545WAT     H179877   8.951   1.343   8.429
26545WAT     H279878   8.798   1.361   8.482
26546WAT      O79879   7.600   8.236   9.311
26546WAT     H179880   7.524   8.287   9.352
26546WAT     H279881   7.651   8.188   9.383
26547WAT      O79882   0.288   5.431   5.248
26547WAT     H179883   0.198   5.397   5.220
26547WAT     H279884   0.346   5.441   5.167
26548WAT      O79885   9.292   8.170   5.072
26548WAT     H179886   9.362   8.212   5.015
26548WAT     H279887   9.202   8.202   5.043
26549WAT      O79888   6.874   6.288   3.149
26549WAT     H179889   6.967   6.324   3.150
26549WAT     H279890   6.859   6.230   3.229
26550WAT      O79891   9.754   3.028   0.491
26550WAT     H179892   9.752   3.071   0.581
26550WAT     H279893   9.662   2.999   0.466
26551WAT      O79894   7.336   3.486   0.465
26551WAT     H179895   7.413   3.486   0.529
26551WAT     H279896   7.324   3.394   0.428
26552WAT      O79897   9.652   1.153   9.349
26552WAT     H179898   9.659   1.244   9.310
26552WAT     H279899   9.678   1.085   9.280
26553WAT      O79900   7.435   2.981   0.367
26553WAT     H179901   7.533   2.964   0.354
26553WAT     H279902   7.387   2.956   0.283
26554WAT      O79903   8.480   1.157   1.706
26554WAT     H179904   8.396   1.127   1.662
26554WAT     H279905   8.515   1.239   1.660
26555WAT      O79906   0.171   2.152   1.404
26555WAT     H179907   0.143   2.180   1.495
26555WAT     H279908   0.109   2.080   1.371
26556WAT      O79909   8.562   0.778   3.817
26556WAT     H179910   8.640   0.729   3.778
26556WAT     H279911   8.483   0.767   3.756
26557WAT      O79912   9.368   3.166   1.987
26557WAT     H179913   9.444   3.102   1.985
26557WAT     H279914   9.398   3.256   1.954
26558WAT      O79915   5.122   7.042   3.523
26558WAT     H179916   5.175   7.121   3.492
26558WAT     H279917   5.026   7.068   3.534
26559WAT      O79918   3.700   0.907   9.777
26559WAT     H179919   3.721   0.874   9.869
26559WAT     H279920   3.668   1.002   9.782
26560WAT      O79921   0.188   4.569   4.303
26560WAT     H179922   0.118   4.499   4.292
26560WAT     H279923   0.158   4.636   4.371
26561WAT      O79924   0.501   0.504   6.400
26561WAT     H179925   0.571   0.471   6.464
26561WAT     H279926   0.431   0.553   6.451
26562WAT      O79927   6.126   2.620   5.706
26562WAT     H179928   6.071   2.564   5.644
26562WAT     H279929   6.217   2.632   5.668
26563WAT      O79930   9.497   7.470   7.928
26563WAT     H179931   9.578   7.421   7.961
26563WAT     H279932   9.417   7.410   7.933
26564WAT      O79933   3.583   9.585   0.242
26564WAT     H179934   3.613   9.490   0.228
26564WAT     H279935   3.485   9.585   0.263
26565WAT      O79936   0.395   1.186   2.995
26565WAT     H179937   0.398   1.131   2.912
26565WAT     H279938   0.386   1.282   2.971
26566WAT      O79939   2.346   1.358   4.879
26566WAT     H179940   2.387   1.387   4.793
26566WAT     H279941   2.383   1.413   4.954
26567WAT      O79942   0.280   8.932   7.207
26567WAT     H179943   0.288   8.868   7.130
26567WAT     H279944   0.321   9.020   7.182
26568WAT      O79945   3.576   1.233   8.903
26568WAT     H179946   3.613   1.198   8.818
26568WAT     H279947   3.582   1.333   8.904
26569WAT      O79948   7.494   5.460   8.366
26569WAT     H179949   7.574   5.414   8.328
26569WAT     H279950   7.441   5.395   8.420
26570WAT      O79951   3.958   0.780   5.445
26570WAT     H179952   3.861   0.800   5.457
26570WAT     H279953   3.975   0.683   5.466
26571WAT      O79954   2.302   6.837   8.745
26571WAT     H179955   2.268   6.931   8.751
26571WAT     H279956   2.316   6.812   8.649
26572WAT      O79957   4.688   7.900   0.548
26572WAT     H179958   4.671   7.815   0.599
26572WAT     H279959   4.752   7.957   0.599
26573WAT      O79960   1.220   6.481   7.409
26573WAT     H179961   1.247   6.531   7.491
26573WAT     H279962   1.125   6.501   7.387
26574WAT      O79963   6.990   7.398   5.941
26574WAT     H179964   7.029   7.355   5.859
26574WAT     H279965   7.060   7.456   5.984
26575WAT      O79966   9.638   2.931   2.980
26575WAT     H179967   9.667   2.844   3.020
26575WAT     H279968   9.702   2.958   2.908
26576WAT      O79969   8.309   0.125   1.343
26576WAT     H179970   8.313   0.224   1.353
26576WAT     H279971   8.389   0.084   1.388
26577WAT      O79972   5.844   7.416   2.138
26577WAT     H179973   5.865   7.321   2.116
26577WAT     H279974   5.776   7.451   2.073
26578WAT      O79975   7.074   4.135   4.829
26578WAT     H179976   7.156   4.185   4.857
26578WAT     H279977   7.003   4.148   4.898
26579WAT      O79978   0.201   2.335   8.247
26579WAT     H179979   0.117   2.383   8.270
26579WAT     H279980   0.261   2.395   8.193
26580WAT      O79981   2.409   8.206   5.461
26580WAT     H179982   2.426   8.299   5.493
26580WAT     H279983   2.330   8.206   5.400
26581WAT      O79984   7.463   4.239   5.491
26581WAT     H179985   7.520   4.171   5.446
26581WAT     H279986   7.468   4.227   5.591
26582WAT      O79987   2.969   4.497   0.436
26582WAT     H179988   2.876   4.465   0.453
26582WAT     H279989   2.994   4.564   0.506
26583WAT      O79990   9.393   6.301   6.598
26583WAT     H179991   9.354   6.239   6.530
26583WAT     H279992   9.319   6.349   6.645
26584WAT      O79993   6.500   2.499   1.017
26584WAT     H179994   6.443   2.449   0.952
26584WAT     H279995   6.451   2.508   1.104
26585WAT      O79996   6.284   8.116   9.289
26585WAT     H179997   6.248   8.143   9.379
26585WAT     H279998   6.245   8.028   9.263
26586WAT      O79999   8.588   9.135   6.140
26586WAT     H180000   8.614   9.088   6.224
26586WAT     H280001   8.555   9.069   6.073
26587WAT      O80002   8.591   6.049   8.264
26587WAT     H180003   8.686   6.022   8.246
26587WAT     H280004   8.579   6.065   8.361
26588WAT      O80005   6.463   5.218   0.178
26588WAT     H180006   6.382   5.168   0.211
26588WAT     H280007   6.545   5.165   0.199
26589WAT      O80008   4.063   0.767   0.020
26589WAT     H180009   4.042   0.789  -0.075
26589WAT     H280010   3.985   0.720   0.062
26590WAT      O80011   6.505   3.924   0.569
26590WAT     H180012   6.595   3.923   0.526
26590WAT     H280013   6.490   4.013   0.612
26591WAT      O80014   3.247   1.090   3.517
26591WAT     H180015   3.342   1.117   3.502
26591WAT     H280016   3.231   1.001   3.475
26592WAT      O80017   0.330   9.398   7.209
26592WAT     H180018   0.396   9.466   7.179
26592WAT     H280019   0.238   9.429   7.186
26593WAT      O80020   4.788   0.980   3.795
26593WAT     H180021   4.837   0.900   3.829
26593WAT     H280022   4.852   1.044   3.753
26594WAT      O80023   5.737   4.366   0.392
26594WAT     H180024   5.681   4.388   0.312
26594WAT     H280025   5.807   4.436   0.405
26595WAT      O80026   2.566   5.502   7.268
26595WAT     H180027   2.514   5.584   7.243
26595WAT     H280028   2.509   5.443   7.325
26596WAT      O80029   2.190   5.736   6.448
26596WAT     H180030   2.169   5.831   6.468
26596WAT     H280031   2.105   5.683   6.444
26597WAT      O80032   7.914   9.116   9.018
26597WAT     H180033   7.889   9.192   9.078
26597WAT     H280034   7.861   9.121   8.934
26598WAT      O80035   3.095   0.492   3.770
26598WAT     H180036   3.178   0.438   3.759
26598WAT     H280037   3.041   0.456   3.845
26599WAT      O80038   6.842   0.268   2.108
26599WAT     H180039   6.756   0.232   2.070
26599WAT     H280040   6.917   0.207   2.083
26600WAT      O80041   1.833   8.167   6.480
26600WAT     H180042   1.749   8.215   6.505
26600WAT     H280043   1.837   8.080   6.529
26601WAT      O80044   1.250   0.159   8.739
26601WAT     H180045   1.348   0.176   8.742
26601WAT     H280046   1.204   0.239   8.699
26602WAT      O80047   0.694   1.799   0.225
26602WAT     H180048   0.633   1.859   0.173
26602WAT     H280049   0.757   1.855   0.278
26603WAT      O80050   2.817   8.983   5.219
26603WAT     H180051   2.749   8.948   5.155
26603WAT     H280052   2.772   9.043   5.285
26604WAT      O80053   1.772   5.752   4.381
26604WAT     H180054   1.849   5.760   4.318
26604WAT     H280055   1.722   5.839   4.384
26605WAT      O80056   5.081   9.006   8.644
26605WAT     H180057   5.133   8.942   8.701
26605WAT     H280058   5.028   9.067   8.702
26606WAT      O80059   8.897   7.498   6.133
26606WAT     H180060   8.848   7.453   6.058
26606WAT     H280061   8.902   7.596   6.115
26607WAT      O80062   3.481   8.354   9.274
26607WAT     H180063   3.536   8.280   9.236
26607WAT     H280064   3.466   8.339   9.372
26608WAT      O80065   9.125   1.066   4.251
26608WAT     H180066   9.058   1.126   4.208
26608WAT     H280067   9.199   1.046   4.186
26609WAT      O80068   0.464   5.314   8.893
26609WAT     H180069   0.520   5.239   8.856
26609WAT     H280070   0.426   5.367   8.817
26610WAT      O80071   6.826   4.893   7.445
26610WAT     H180072   6.876   4.970   7.405
26610WAT     H280073   6.882   4.810   7.439
26611WAT      O80074   2.407   4.090   0.489
26611WAT     H180075   2.394   4.000   0.530
26611WAT     H280076   2.402   4.161   0.559
26612WAT      O80077   4.876   6.802   0.155
26612WAT     H180078   4.828   6.835   0.236
26612WAT     H280079   4.975   6.809   0.169
26613WAT      O80080   7.083   8.898   4.701
26613WAT     H180081   7.094   8.882   4.603
26613WAT     H280082   6.997   8.945   4.718
26614WAT      O80083   3.194   7.603   0.764
26614WAT     H180084   3.239   7.662   0.696
26614WAT     H280085   3.198   7.508   0.732
26615WAT      O80086   7.859   2.337   6.371
26615WAT     H180087   7.923   2.261   6.382
26615WAT     H280088   7.792   2.336   6.446
26616WAT      O80089   8.476   8.036   2.357
26616WAT     H180090   8.394   7.994   2.395
26616WAT     H280091   8.466   8.136   2.359
26617WAT      O80092   6.965   7.727   1.317
26617WAT     H180093   6.880   7.747   1.268
26617WAT     H280094   7.032   7.800   1.298
26618WAT      O80095   3.077   7.576   2.875
26618WAT     H180096   3.080   7.543   2.970
26618WAT     H280097   3.045   7.503   2.815
26619WAT      O80098   1.486   6.508   8.664
26619WAT     H180099   1.445   6.555   8.585
26619WAT     H280100   1.574   6.470   8.638
26620WAT      O80101   1.107   1.535   0.987
26620WAT     H180102   1.094   1.561   1.082
26620WAT     H280103   1.200   1.558   0.958
26621WAT      O80104   8.368   5.506   2.148
26621WAT     H180105   8.325   5.561   2.077
26621WAT     H280106   8.438   5.447   2.107
26622WAT      O80107   9.711   3.199   7.411
26622WAT     H180108   9.777   3.252   7.465
26622WAT     H280109   9.711   3.232   7.317
26623WAT      O80110   3.105   1.511   1.889
26623WAT     H180111   3.021   1.497   1.835
26623WAT     H280112   3.082   1.562   1.972
26624WAT      O80113   6.441   5.319   7.060
26624WAT     H180114   6.487   5.381   6.996
26624WAT     H280115   6.491   5.232   7.063
26625WAT      O80116   2.464   0.851   0.008
26625WAT     H180117   2.504   0.835  -0.082
26625WAT     H280118   2.370   0.882  -0.002
26626WAT      O80119   2.422   2.192   2.388
26626WAT     H180120   2.352   2.160   2.451
26626WAT     H280121   2.495   2.238   2.439
26627WAT      O80122   8.791   1.753   1.368
26627WAT     H180123   8.889   1.772   1.358
26627WAT     H280124   8.762   1.689   1.296
26628WAT      O80125   7.715   4.889   7.773
26628WAT     H180126   7.687   4.927   7.861
26628WAT     H280127   7.772   4.955   7.725
26629WAT      O80128   5.502   1.590   7.096
26629WAT     H180129   5.527   1.502   7.056
26629WAT     H280130   5.578   1.626   7.149
26630WAT      O80131   1.139   4.612   6.221
26630WAT     H180132   1.049   4.595   6.181
26630WAT     H280133   1.150   4.710   6.239
26631WAT      O80134   3.704   7.572   5.278
26631WAT     H180135   3.727   7.630   5.200
26631WAT     H280136   3.717   7.623   5.363
26632WAT      O80137   6.890   7.534   3.013
26632WAT     H180138   6.876   7.439   3.040
26632WAT     H280139   6.941   7.538   2.927
26633WAT      O80140   8.420   8.026   4.435
26633WAT     H180141   8.389   8.008   4.528
26633WAT     H280142   8.490   8.097   4.436
26634WAT      O80143   7.437   0.523   4.355
26634WAT     H180144   7.354   0.477   4.323
26634WAT     H280145   7.476   0.577   4.280
26635WAT      O80146   2.910   2.351   1.230
26635WAT     H180147   2.855   2.330   1.310
26635WAT     H280148   2.913   2.271   1.170
26636WAT      O80149   0.967   3.503   5.986
26636WAT     H180150   0.992   3.600   5.987
26636WAT     H280151   1.017   3.456   5.914
26637WAT      O80152   7.806   7.677   9.862
26637WAT     H180153   7.766   7.689   9.771
26637WAT     H280154   7.792   7.582   9.892
26638WAT      O80155   0.101   3.173   5.679
26638WAT     H180156   0.023   3.231   5.701
26638WAT     H280157   0.115   3.172   5.580
26639WAT      O80158   4.396   2.481   6.882
26639WAT     H180159   4.333   2.441   6.815
26639WAT     H280160   4.490   2.461   6.855
26640WAT      O80161   4.821   4.141   6.706
26640WAT     H180162   4.798   4.044   6.713
26640WAT     H280163   4.920   4.152   6.708
26641WAT      O80164   7.287   5.366   9.455
26641WAT     H180165   7.297   5.444   9.517
26641WAT     H280166   7.346   5.379   9.375
26642WAT      O80167   2.351   3.830   1.300
26642WAT     H180168   2.340   3.745   1.352
26642WAT     H280169   2.349   3.908   1.364
26643WAT      O80170   1.349   6.008   0.177
26643WAT     H180171   1.429   5.960   0.214
26643WAT     H280172   1.298   6.050   0.253
26644WAT      O80173   8.803   4.489   5.369
26644WAT     H180174   8.891   4.443   5.357
26644WAT     H280175   8.783   4.546   5.289
26645WAT      O80176   0.944   7.742   0.280
26645WAT     H180177   0.906   7.833   0.299
26645WAT     H280178   0.950   7.690   0.365
26646WAT      O80179   5.563   3.734   2.934
26646WAT     H180180   5.518   3.808   2.884
26646WAT     H280181   5.559   3.753   3.032
26647WAT      O80182   3.697   6.180   7.890
26647WAT     H180183   3.750   6.251   7.843
26647WAT     H280184   3.722   6.179   7.987
26648WAT      O80185   7.102   2.539   9.615
26648WAT     H180186   7.095   2.600   9.536
26648WAT     H280187   7.092   2.444   9.585
26649WAT      O80188   2.919   5.953   9.253
26649WAT     H180189   2.965   5.972   9.339
26649WAT     H280190   2.862   5.871   9.263
26650WAT      O80191   1.829   4.242   5.297
26650WAT     H180192   1.834   4.267   5.200
26650WAT     H280193   1.838   4.143   5.307
26651WAT      O80194   7.608   3.076   8.136
26651WAT     H180195   7.559   3.060   8.222
26651WAT     H280196   7.688   3.133   8.153
26652WAT      O80197   5.752   8.955   3.840
26652WAT     H180198   5.683   9.027   3.847
26652WAT     H280199   5.706   8.867   3.827
26653WAT      O80200   9.776   0.633   4.173
26653WAT     H180201   9.750   0.656   4.267
26653WAT     H280202   9.871   0.659   4.157
26654WAT      O80203   8.682   3.569   0.702
26654WAT     H180204   8.623   3.512   0.758
26654WAT     H280205   8.770   3.523   0.688
26655WAT      O80206   1.827   1.552   3.849
26655WAT     H180207   1.896   1.553   3.777
26655WAT     H280208   1.751   1.493   3.822
26656WAT      O80209   4.472   3.984   5.759
26656WAT     H180210   4.528   4.009   5.838
26656WAT     H280211   4.525   3.926   5.698
26657WAT      O80212   2.906   8.268   0.501
26657WAT     H180213   2.961   8.300   0.578
26657WAT     H280214   2.956   8.282   0.416
26658WAT      O80215   9.318   8.155   2.896
26658WAT     H180216   9.336   8.173   2.799
26658WAT     H280217   9.323   8.056   2.912
26659WAT      O80218   4.088   0.010   4.757
26659WAT     H180219   4.046   0.072   4.690
26659WAT     H280220   4.171   0.052   4.793
26660WAT      O80221   0.244   3.655   7.267
26660WAT     H180222   0.324   3.665   7.208
26660WAT     H280223   0.207   3.746   7.288
26661WAT      O80224   6.380   1.484   7.395
26661WAT     H180225   6.476   1.506   7.413
26661WAT     H280226   6.375   1.406   7.333
26662WAT      O80227   7.744   0.959   7.272
26662WAT     H180228   7.791   0.961   7.184
26662WAT     H280229   7.756   0.868   7.313
26663WAT      O80230   6.578   9.627   1.201
26663WAT     H180231   6.665   9.592   1.167
26663WAT     H280232   6.572   9.612   1.300
26664WAT      O80233   3.657   6.946   2.605
26664WAT     H180234   3.653   6.847   2.596
26664WAT     H280235   3.586   6.987   2.548
26665WAT      O80236   5.192   2.971   4.397
26665WAT     H180237   5.154   2.999   4.309
26665WAT     H280238   5.267   2.906   4.382
26666WAT      O80239   8.168   8.920   6.204
26666WAT     H180240   8.076   8.880   6.210
26666WAT     H280241   8.195   8.927   6.108
26667WAT      O80242   4.161   4.174   9.382
26667WAT     H180243   4.232   4.182   9.312
26667WAT     H280244   4.078   4.220   9.350
26668WAT      O80245   6.885   5.504   5.786
26668WAT     H180246   6.922   5.412   5.801
26668WAT     H280247   6.806   5.519   5.845
26669WAT      O80248   3.857   7.333   5.634
26669WAT     H180249   3.944   7.350   5.679
26669WAT     H280250   3.868   7.340   5.535
26670WAT      O80251   4.800   6.585   9.388
26670WAT     H180252   4.704   6.559   9.384
26670WAT     H280253   4.856   6.512   9.348
26671WAT      O80254   5.112   1.674   5.705
26671WAT     H180255   5.198   1.624   5.701
26671WAT     H280256   5.121   1.760   5.654
26672WAT      O80257   2.030   7.808   7.773
26672WAT     H180258   2.067   7.720   7.742
26672WAT     H280259   2.090   7.846   7.843
26673WAT      O80260   9.126   6.145   6.761
26673WAT     H180261   9.127   6.243   6.742
26673WAT     H280262   9.070   6.127   6.842
26674WAT      O80263   1.276   3.561   0.263
26674WAT     H180264   1.274   3.583   0.361
26674WAT     H280265   1.183   3.562   0.227
26675WAT      O80266   7.496   6.587   4.713
26675WAT     H180267   7.589   6.604   4.682
26675WAT     H280268   7.471   6.655   4.782
26676WAT      O80269   9.256   3.630   3.892
26676WAT     H180270   9.309   3.712   3.913
26676WAT     H280271   9.315   3.549   3.897
26677WAT      O80272   8.597   3.096   4.135
26677WAT     H180273   8.697   3.099   4.138
26677WAT     H280274   8.567   3.002   4.116
26678WAT      O80275   0.592   9.017   0.796
26678WAT     H180276   0.506   9.047   0.755
26678WAT     H280277   0.652   9.095   0.808
26679WAT      O80278   8.660   1.825   5.600
26679WAT     H180279   8.747   1.864   5.629
26679WAT     H280280   8.587   1.892   5.614
26680WAT      O80281   6.736   3.962   3.132
26680WAT     H180282   6.827   3.966   3.091
26680WAT     H280283   6.719   3.869   3.167
26681WAT      O80284   2.261   5.256   9.561
26681WAT     H180285   2.300   5.164   9.551
26681WAT     H280286   2.190   5.269   9.492
26682WAT      O80287   6.917   2.226   5.106
26682WAT     H180288   6.903   2.285   5.185
26682WAT     H280289   6.829   2.209   5.061
26683WAT      O80290   0.620   6.549   4.638
26683WAT     H180291   0.715   6.545   4.667
26683WAT     H280292   0.612   6.513   4.545
26684WAT      O80293   4.655   7.066   5.720
26684WAT     H180294   4.723   7.030   5.785
26684WAT     H280295   4.702   7.108   5.643
26685WAT      O80296   2.749   1.048   4.429
26685WAT     H180297   2.800   1.058   4.344
26685WAT     H280298   2.785   0.971   4.481
26686WAT      O80299   7.736   8.715   6.833
26686WAT     H180300   7.801   8.648   6.869
26686WAT     H280301   7.663   8.667   6.785
26687WAT      O80302   2.993   6.307   2.143
26687WAT     H180303   2.909   6.311   2.089
26687WAT     H280304   2.972   6.275   2.235
26688WAT      O80305   3.537   5.704   8.709
26688WAT     H180306   3.552   5.801   8.728
26688WAT     H280307   3.589   5.678   8.627
26689WAT      O80308   3.013   9.236   6.403
26689WAT     H180309   3.089   9.196   6.454
26689WAT     H280310   2.971   9.165   6.345
26690WAT      O80311   2.892   9.207   1.107
26690WAT     H180312   2.854   9.254   1.027
26690WAT     H280313   2.940   9.274   1.165
26691WAT      O80314   4.860   6.232   3.162
26691WAT     H180315   4.761   6.220   3.166
26691WAT     H280316   4.898   6.173   3.090
26692WAT      O80317   1.297   6.387   7.160
26692WAT     H180318   1.320   6.397   7.257
26692WAT     H280319   1.340   6.461   7.108
26693WAT      O80320   2.324   6.653   5.463
26693WAT     H180321   2.226   6.669   5.474
26693WAT     H280322   2.360   6.711   5.390
26694WAT      O80323   9.428   7.425   5.011
26694WAT     H180324   9.371   7.343   5.022
26694WAT     H280325   9.432   7.450   4.915
26695WAT      O80326   5.561   8.890   0.110
26695WAT     H180327   5.567   8.953   0.032
26695WAT     H280328   5.563   8.942   0.195
26696WAT      O80329   9.444   2.342   1.464
26696WAT     H180330   9.390   2.384   1.537
26696WAT     H280331   9.450   2.404   1.386
26697WAT      O80332   0.113   0.014   2.742
26697WAT     H180333   0.047   0.043   2.672
26697WAT     H280334   0.191  -0.030   2.698
26698WAT      O80335   3.242   3.309   6.997
26698WAT     H180336   3.305   3.249   7.046
26698WAT     H280337   3.277   3.327   6.905
26699WAT      O80338   6.291   5.248   6.726
26699WAT     H180339   6.258   5.291   6.810
26699WAT     H280340   6.248   5.292   6.647
26700WAT      O80341   9.110   5.896   7.580
26700WAT     H180342   9.091   5.985   7.538
26700WAT     H280343   9.024   5.847   7.594
26701WAT      O80344   5.673   9.183   8.503
26701WAT     H180345   5.748   9.133   8.548
26701WAT     H280346   5.646   9.261   8.560
26702WAT      O80347   7.405   5.783   0.576
26702WAT     H180348   7.403   5.809   0.480
26702WAT     H280349   7.468   5.844   0.625
26703WAT      O80350   8.080   6.883   3.719
26703WAT     H180351   7.988   6.862   3.753
26703WAT     H280352   8.073   6.940   3.638
26704WAT      O80353   3.806   4.641   2.917
26704WAT     H180354   3.867   4.690   2.979
26704WAT     H280355   3.765   4.563   2.965
26705WAT      O80356   1.589   5.140   4.748
26705WAT     H180357   1.540   5.197   4.814
26705WAT     H280358   1.532   5.127   4.667
26706WAT      O80359   5.437   9.189   5.007
26706WAT     H180360   5.471   9.283   5.009
26706WAT     H280361   5.352   9.183   5.060
26707WAT      O80362   9.128   5.669   4.201
26707WAT     H180363   9.154   5.756   4.242
26707WAT     H280364   9.065   5.621   4.262
26708WAT      O80365   7.441   2.076   8.639
26708WAT     H180366   7.453   1.980   8.665
26708WAT     H280367   7.531   2.119   8.631
26709WAT      O80368   6.291   3.420   1.335
26709WAT     H180369   6.282   3.418   1.236
26709WAT     H280370   6.372   3.472   1.361
26710WAT      O80371   1.192   4.780   7.258
26710WAT     H180372   1.194   4.832   7.343
26710WAT     H280373   1.151   4.690   7.275
26711WAT      O80374   2.792   5.669   4.111
26711WAT     H180375   2.831   5.754   4.146
26711WAT     H280376   2.812   5.595   4.176
26712WAT      O80377   4.055   7.315   6.983
26712WAT     H180378   3.971   7.351   7.023
26712WAT     H280379   4.042   7.220   6.957
26713WAT      O80380   6.767   5.428   9.605
26713WAT     H180381   6.768   5.499   9.535
26713WAT     H280382   6.771   5.338   9.562
26714WAT      O80383   2.052   3.331   5.035
26714WAT     H180384   2.126   3.313   4.971
26714WAT     H280385   2.045   3.429   5.052
26715WAT      O80386   1.041   9.092   2.277
26715WAT     H180387   1.052   9.165   2.210
26715WAT     H280388   0.966   9.032   2.250
26716WAT      O80389   6.535   6.857   8.788
26716WAT     H180390   6.626   6.822   8.768
26716WAT     H280391   6.469   6.782   8.781
26717WAT      O80392   7.182   3.742   9.879
26717WAT     H180393   7.148   3.769   9.789
26717WAT     H280394   7.111   3.760   9.948
26718WAT      O80395   0.063   6.837   3.737
26718WAT     H180396   0.066   6.867   3.642
26718WAT     H280397  -0.032   6.840   3.770
26719WAT      O80398   3.473   3.700   7.044
26719WAT     H180399   3.498   3.638   6.969
26719WAT     H280400   3.377   3.685   7.068
26720WAT      O80401   9.562   7.871   9.380
26720WAT     H180402   9.638   7.875   9.315
26720WAT     H280403   9.485   7.923   9.342
26721WAT      O80404   1.249   5.502   3.424
26721WAT     H180405   1.162   5.546   3.448
26721WAT     H280406   1.244   5.405   3.448
26722WAT      O80407   3.464   8.916   2.930
26722WAT     H180408   3.539   8.894   2.993
26722WAT     H280409   3.496   8.985   2.865
26723WAT      O80410   6.046   8.193   6.578
26723WAT     H180411   6.029   8.281   6.621
26723WAT     H280412   5.966   8.166   6.524
26724WAT      O80413   1.461   5.677   9.790
26724WAT     H180414   1.493   5.716   9.704
26724WAT     H280415   1.380   5.727   9.821
26725WAT      O80416   4.434   0.916   7.317
26725WAT     H180417   4.517   0.898   7.370
26725WAT     H280418   4.354   0.907   7.376
26726WAT      O80419   5.782   3.394   4.697
26726WAT     H180420   5.842   3.474   4.688
26726WAT     H280421   5.793   3.355   4.788
26727WAT      O80422   0.884   2.709   9.519
26727WAT     H180423   0.825   2.632   9.544
26727WAT     H280424   0.969   2.675   9.479
26728WAT      O80425   3.928   9.252   8.814
26728WAT     H180426   3.842   9.209   8.789
26728WAT     H280427   4.003   9.188   8.800
26729WAT      O80428   7.837   9.154   7.191
26729WAT     H180429   7.744   9.121   7.206
26729WAT     H280430   7.844   9.249   7.223
26730WAT      O80431   6.285   2.326   6.918
26730WAT     H180432   6.215   2.267   6.877
26730WAT     H280433   6.240   2.403   6.964
26731WAT      O80434   1.358   5.531   7.524
26731WAT     H180435   1.369   5.441   7.567
26731WAT     H280436   1.286   5.527   7.455
26732WAT      O80437   8.471   9.697   0.152
26732WAT     H180438   8.445   9.691   0.055
26732WAT     H280439   8.478   9.605   0.190
26733WAT      O80440   0.377   3.263   4.000
26733WAT     H180441   0.294   3.252   3.946
26733WAT     H280442   0.390   3.182   4.057
26734WAT      O80443   3.781   5.383   6.264
26734WAT     H180444   3.722   5.435   6.202
26734WAT     H280445   3.834   5.446   6.320
26735WAT      O80446   2.053   9.296   2.494
26735WAT     H180447   2.060   9.386   2.537
26735WAT     H280448   2.120   9.234   2.535
26736WAT      O80449   9.666   2.676   8.674
26736WAT     H180450   9.718   2.610   8.728
26736WAT     H280451   9.629   2.747   8.734
26737WAT      O80452   3.486   2.192   2.062
26737WAT     H180453   3.563   2.254   2.046
26737WAT     H280454   3.459   2.196   2.158
26738WAT      O80455   5.245   7.033   5.126
26738WAT     H180456   5.277   6.945   5.162
26738WAT     H280457   5.148   7.026   5.103
26739WAT      O80458   4.599   6.022   3.400
26739WAT     H180459   4.692   5.986   3.405
26739WAT     H280460   4.583   6.059   3.309
26740WAT      O80461   5.711   7.863   5.830
26740WAT     H180462   5.763   7.872   5.745
26740WAT     H280463   5.634   7.801   5.817
26741WAT      O80464   6.916   0.620   8.986
26741WAT     H180465   6.887   0.563   9.064
26741WAT     H280466   6.836   0.650   8.935
26742WAT      O80467   4.614   9.236   1.800
26742WAT     H180468   4.629   9.230   1.899
26742WAT     H280469   4.553   9.162   1.772
26743WAT      O80470   7.757   7.903   5.623
26743WAT     H180471   7.750   7.926   5.526
26743WAT     H280472   7.766   7.987   5.677
26744WAT      O80473   4.369   4.916   0.965
26744WAT     H180474   4.433   4.983   1.001
26744WAT     H280475   4.401   4.824   0.986
26745WAT      O80476   2.157   1.357   9.857
26745WAT     H180477   2.168   1.271   9.808
26745WAT     H280478   2.197   1.431   9.802
26746WAT      O80479   0.745   5.121   2.622
26746WAT     H180480   0.818   5.052   2.627
26746WAT     H280481   0.665   5.081   2.579
26747WAT      O80482   8.744   2.929   8.805
26747WAT     H180483   8.731   3.021   8.842
26747WAT     H280484   8.678   2.867   8.848
26748WAT      O80485   9.252   0.525   0.756
26748WAT     H180486   9.330   0.567   0.710
26748WAT     H280487   9.187   0.596   0.782
26749WAT      O80488   8.623   5.789   4.106
26749WAT     H180489   8.587   5.862   4.164
26749WAT     H280490   8.670   5.722   4.163
26750WAT      O80491   2.353   3.849   0.608
26750WAT     H180492   2.286   3.777   0.627
26750WAT     H280493   2.394   3.880   0.694
26751WAT      O80494   3.280   0.769   0.078
26751WAT     H180495   3.338   0.848   0.094
26751WAT     H280496   3.285   0.707   0.156
26752WAT      O80497   7.842   7.919   1.744
26752WAT     H180498   7.756   7.948   1.785
26752WAT     H280499   7.840   7.938   1.645
26753WAT      O80500   1.010   5.788   6.109
26753WAT     H180501   1.005   5.745   6.199
26753WAT     H280502   1.106   5.803   6.084
26754WAT      O80503   4.488   7.910   8.512
26754WAT     H180504   4.512   8.001   8.478
26754WAT     H280505   4.457   7.917   8.606
26755WAT      O80506   7.407   3.718   7.905
26755WAT     H180507   7.353   3.636   7.926
26755WAT     H280508   7.398   3.740   7.808
26756WAT      O80509   2.444   6.887   2.022
26756WAT     H180510   2.478   6.794   2.030
26756WAT     H280511   2.481   6.930   1.940
26757WAT      O80512   7.275   0.888   3.553
26757WAT     H180513   7.275   0.860   3.649
26757WAT     H280514   7.369   0.891   3.519
26758WAT      O80515   8.464   5.978   7.808
26758WAT     H180516   8.374   5.986   7.851
26758WAT     H280517   8.476   6.051   7.741
26759WAT      O80518   8.821   2.250   8.422
26759WAT     H180519   8.721   2.261   8.420
26759WAT     H280520   8.861   2.299   8.344
26760WAT      O80521   3.004   9.441   7.635
26760WAT     H180522   3.060   9.412   7.713
26760WAT     H280523   2.931   9.502   7.667
26761WAT      O80524   5.752   9.663   4.104
26761WAT     H180525   5.834   9.718   4.084
26761WAT     H280526   5.673   9.706   4.059
26762WAT      O80527   8.209   1.368   3.903
26762WAT     H180528   8.204   1.468   3.901
26762WAT     H280529   8.305   1.340   3.897
26763WAT      O80530   1.379   8.396   0.533
26763WAT     H180531   1.372   8.451   0.616
26763WAT     H280532   1.300   8.335   0.527
26764WAT      O80533   9.546   2.605   2.733
26764WAT     H180534   9.592   2.565   2.813
26764WAT     H280535   9.447   2.610   2.751
26765WAT      O80536   3.492   2.395   4.168
26765WAT     H180537   3.552   2.351   4.235
26765WAT     H280538   3.547   2.450   4.106
26766WAT      O80539   2.888   3.862   6.428
26766WAT     H180540   2.853   3.880   6.520
26766WAT     H280541   2.828   3.905   6.361
26767WAT      O80542   6.414   5.637   7.842
26767WAT     H180543   6.439   5.565   7.907
26767WAT     H280544   6.478   5.713   7.850
26768WAT      O80545   8.187   2.802   0.451
26768WAT     H180546   8.252   2.734   0.417
26768WAT     H280547   8.108   2.754   0.490
26769WAT      O80548   8.470   5.772   6.915
26769WAT     H180549   8.498   5.857   6.870
26769WAT     H280550   8.382   5.786   6.959
26770WAT      O80551   2.866   4.452   2.617
26770WAT     H180552   2.951   4.428   2.570
26770WAT     H280553   2.788   4.428   2.560
26771WAT      O80554   5.491   1.731   3.630
26771WAT     H180555   5.574   1.688   3.664
26771WAT     H280556   5.428   1.748   3.706
26772WAT      O80557   5.607   8.174   1.111
26772WAT     H180558   5.543   8.150   1.184
26772WAT     H280559   5.631   8.271   1.117
26773WAT      O80560   7.539   6.236   3.411
26773WAT     H180561   7.591   6.320   3.403
26773WAT     H280562   7.500   6.229   3.503
26774WAT      O80563   4.569   8.060   2.482
26774WAT     H180564   4.575   8.135   2.549
26774WAT     H280565   4.524   8.092   2.399
26775WAT      O80566   9.593   6.347   7.851
26775WAT     H180567   9.511   6.392   7.815
26775WAT     H280568   9.619   6.272   7.790
26776WAT      O80569   0.027   3.461   7.242
26776WAT     H180570   0.105   3.519   7.263
26776WAT     H280571   0.058   3.367   7.226
26777WAT      O80572   9.574   3.811   1.783
26777WAT     H180573   9.656   3.777   1.737
26777WAT     H280574   9.501   3.742   1.777
26778WAT      O80575   9.624   6.504   4.079
26778WAT     H180576   9.529   6.528   4.058
26778WAT     H280577   9.635   6.405   4.076
26779WAT      O80578   3.670   0.011   0.077
26779WAT     H180579   3.613  -0.061   0.116
26779WAT     H280580   3.759   0.012   0.122
26780WAT      O80581   7.023   3.314   8.319
26780WAT     H180582   7.044   3.390   8.380
26780WAT     H280583   6.939   3.270   8.350
26781WAT      O80584   7.132   0.145   4.598
26781WAT     H180585   7.157   0.134   4.502
26781WAT     H280586   7.201   0.201   4.644
26782WAT      O80587   4.124   4.011   3.087
26782WAT     H180588   4.140   3.917   3.054
26782WAT     H280589   4.028   4.035   3.074
26783WAT      O80590   5.972   0.917   6.654
26783WAT     H180591   5.935   1.001   6.615
26783WAT     H280592   6.059   0.936   6.699
26784WAT      O80593   2.232   6.789   5.745
26784WAT     H180594   2.142   6.829   5.764
26784WAT     H280595   2.228   6.690   5.757
26785WAT      O80596   2.626   5.006   2.429
26785WAT     H180597   2.619   5.068   2.351
26785WAT     H280598   2.709   4.950   2.420
26786WAT      O80599   3.605   2.387   3.143
26786WAT     H180600   3.598   2.305   3.086
26786WAT     H280601   3.630   2.465   3.086
26787WAT      O80602   7.871   2.358   8.872
26787WAT     H180603   7.968   2.331   8.870
26787WAT     H280604   7.841   2.378   8.779
26788WAT      O80605   1.052   9.250   5.479
26788WAT     H180606   1.151   9.260   5.488
26788WAT     H280607   1.008   9.338   5.500
26789WAT      O80608   7.749   3.380   5.721
26789WAT     H180609   7.803   3.453   5.765
26789WAT     H280610   7.805   3.336   5.651
26790WAT      O80611   1.551   7.585   6.539
26790WAT     H180612   1.586   7.673   6.569
26790WAT     H280613   1.490   7.597   6.460
26791WAT      O80614   5.615   5.802   2.679
26791WAT     H180615   5.539   5.821   2.741
26791WAT     H280616   5.699   5.841   2.716
26792WAT      O80617   3.719   3.169   3.079
26792WAT     H180618   3.773   3.252   3.092
26792WAT     H280619   3.768   3.106   3.019
26793WAT      O80620   7.463   9.421   9.436
26793WAT     H180621   7.521   9.483   9.489
26793WAT     H280622   7.375   9.410   9.483
26794WAT      O80623   3.573   7.888   0.622
26794WAT     H180624   3.642   7.846   0.682
26794WAT     H280625   3.619   7.933   0.545
26795WAT      O80626   9.347   7.068   4.452
26795WAT     H180627   9.378   7.079   4.546
26795WAT     H280628   9.410   7.116   4.391
26796WAT      O80629   5.487   9.618   4.527
26796WAT     H180630   5.503   9.655   4.435
26796WAT     H280631   5.570   9.574   4.560
26797WAT      O80632   8.458   7.783   5.218
26797WAT     H180633   8.541   7.783   5.163
26797WAT     H280634   8.380   7.760   5.160
26798WAT      O80635   8.658   8.945   0.859
26798WAT     H180636   8.643   8.948   0.761
26798WAT     H280637   8.726   8.875   0.881
26799WAT      O80638   0.950   7.119   5.352
26799WAT     H180639   0.920   7.026   5.375
26799WAT     H280640   1.020   7.148   5.418
26800WAT      O80641   6.364   2.688   7.786
26800WAT     H180642   6.365   2.720   7.691
26800WAT     H280643   6.269   2.687   7.819
26801WAT      O80644   1.716   7.042   8.494
26801WAT     H180645   1.684   7.055   8.400
26801WAT     H280646   1.638   7.035   8.556
26802WAT      O80647   5.418   4.028   9.103
26802WAT     H180648   5.504   4.037   9.054
26802WAT     H280649   5.342   4.053   9.043
26803WAT      O80650   9.125   6.804   9.762
26803WAT     H180651   9.093   6.710   9.769
26803WAT     H280652   9.066   6.864   9.816
26804WAT      O80653   0.617   0.899   4.718
26804WAT     H180654   0.661   0.989   4.721
26804WAT     H280655   0.653   0.847   4.641
26805WAT      O80656   2.283   6.689   6.597
26805WAT     H180657   2.246   6.701   6.505
26805WAT     H280658   2.285   6.778   6.643
26806WAT      O80659   1.729   4.933   6.805
26806WAT     H180660   1.771   4.895   6.723
26806WAT     H280661   1.710   4.859   6.870
26807WAT      O80662   0.818   5.848   1.528
26807WAT     H180663   0.728   5.881   1.499
26807WAT     H280664   0.807   5.780   1.600
26808WAT      O80665   3.405   4.629   7.934
26808WAT     H180666   3.422   4.727   7.945
26808WAT     H280667   3.376   4.611   7.841
26809WAT      O80668   1.602   7.708   3.343
26809WAT     H180669   1.512   7.746   3.319
26809WAT     H280670   1.671   7.743   3.281
26810WAT      O80671   9.436   6.331   2.014
26810WAT     H180672   9.376   6.409   1.994
26810WAT     H280673   9.496   6.315   1.935
26811WAT      O80674   1.256   0.905   1.327
26811WAT     H180675   1.332   0.939   1.273
26811WAT     H280676   1.180   0.882   1.266
26812WAT      O80677   2.153   2.037   6.167
26812WAT     H180678   2.183   2.125   6.204
26812WAT     H280679   2.066   2.048   6.120
26813WAT      O80680   5.091   6.380   4.491
26813WAT     H180681   5.136   6.445   4.430
26813WAT     H280682   5.028   6.323   4.439
26814WAT      O80683   2.527   2.147   1.154
26814WAT     H180684   2.545   2.128   1.057
26814WAT     H280685   2.507   2.062   1.202
26815WAT      O80686   8.481   3.868   5.338
26815WAT     H180687   8.515   3.774   5.345
26815WAT     H280688   8.512   3.909   5.252
26816WAT      O80689   1.015   6.551   8.028
26816WAT     H180690   0.952   6.627   8.045
26816WAT     H280691   0.985   6.471   8.081
26817WAT      O80692   4.456   6.903   1.663
26817WAT     H180693   4.479   6.944   1.751
26817WAT     H280694   4.492   6.810   1.658
26818WAT      O80695   8.768   2.649   0.607
26818WAT     H180696   8.779   2.591   0.526
26818WAT     H280697   8.674   2.644   0.639
26819WAT      O80698   0.089   5.162   9.736
26819WAT     H180699   0.079   5.259   9.714
26819WAT     H280700   0.043   5.143   9.823
26820WAT      O80701   9.184   8.883   2.721
26820WAT     H180702   9.150   8.941   2.647
26820WAT     H280703   9.269   8.920   2.757
26821WAT      O80704   8.844   9.798   4.163
26821WAT     H180705   8.781   9.850   4.221
26821WAT     H280706   8.936   9.838   4.170
26822WAT      O80707   2.450   3.007   1.910
26822WAT     H180708   2.505   3.035   1.989
26822WAT     H280709   2.393   2.929   1.936
26823WAT      O80710   0.453   2.130   2.150
26823WAT     H180711   0.539   2.081   2.167
26823WAT     H280712   0.472   2.214   2.100
26824WAT      O80713   6.422   4.453   1.592
26824WAT     H180714   6.348   4.442   1.658
26824WAT     H280715   6.453   4.549   1.593
26825WAT      O80716   7.201   5.956   6.927
26825WAT     H180717   7.146   6.004   6.995
26825WAT     H280718   7.142   5.903   6.867
26826WAT      O80719   1.821   9.611   2.785
26826WAT     H180720   1.838   9.694   2.838
26826WAT     H280721   1.725   9.610   2.755
26827WAT      O80722   0.427   7.542   1.626
26827WAT     H180723   0.449   7.525   1.530
26827WAT     H280724   0.505   7.517   1.683
26828WAT      O80725   8.116   9.670   9.820
26828WAT     H180726   8.043   9.604   9.803
26828WAT     H280727   8.123   9.688   9.918
26829WAT      O80728   1.156   2.364   2.926
26829WAT     H180729   1.060   2.367   2.900
26829WAT     H280730   1.185   2.269   2.936
26830WAT      O80731   9.025   3.579   4.059
26830WAT     H180732   9.106   3.585   4.001
26830WAT     H280733   8.943   3.587   4.003
26831WAT      O80734   2.899   5.146   2.623
26831WAT     H180735   2.809   5.171   2.660
26831WAT     H280736   2.953   5.102   2.694
26832WAT      O80737   8.979   0.960   7.698
26832WAT     H180738   9.064   0.997   7.660
26832WAT     H280739   8.929   0.912   7.626
26833WAT      O80740   1.642   6.352   0.171
26833WAT     H180741   1.612   6.344   0.266
26833WAT     H280742   1.650   6.260   0.131
26834WAT      O80743   8.608   0.179   1.633
26834WAT     H180744   8.593   0.250   1.564
26834WAT     H280745   8.633   0.222   1.720
26835WAT      O80746   8.024   7.629   8.721
26835WAT     H180747   8.057   7.542   8.756
26835WAT     H280748   8.019   7.626   8.621
26836WAT      O80749   0.580   4.811   1.631
26836WAT     H180750   0.528   4.752   1.570
26836WAT     H280751   0.530   4.823   1.717
26837WAT      O80752   5.854   3.836   7.579
26837WAT     H180753   5.779   3.774   7.600
26837WAT     H280754   5.926   3.787   7.530
26838WAT      O80755   5.556   8.104   7.815
26838WAT     H180756   5.456   8.104   7.806
26838WAT     H280757   5.582   8.151   7.900
26839WAT      O80758   9.180   0.062   6.829
26839WAT     H180759   9.202   0.142   6.885
26839WAT     H280760   9.224   0.071   6.739
26840WAT      O80761   3.562   8.472   0.445
26840WAT     H180762   3.462   8.467   0.446
26840WAT     H280763   3.596   8.477   0.539
26841WAT      O80764   2.527   7.858   3.331
26841WAT     H180765   2.524   7.810   3.418
26841WAT     H280766   2.434   7.869   3.296
26842WAT      O80767   6.858   3.719   1.571
26842WAT     H180768   6.932   3.654   1.590
26842WAT     H280769   6.873   3.802   1.625
26843WAT      O80770   7.536   6.975   4.515
26843WAT     H180771   7.506   6.966   4.610
26843WAT     H280772   7.597   6.900   4.492
26844WAT      O80773   4.207   1.803   5.503
26844WAT     H180774   4.290   1.781   5.555
26844WAT     H280775   4.143   1.726   5.508
26845WAT      O80776   2.215   2.012   4.219
26845WAT     H180777   2.221   2.108   4.246
26845WAT     H280778   2.145   2.001   4.149
26846WAT      O80779   2.322   3.480   2.968
26846WAT     H180780   2.354   3.480   2.874
26846WAT     H280781   2.383   3.425   3.025
26847WAT      O80782   4.050   9.446   8.681
26847WAT     H180783   4.033   9.431   8.584
26847WAT     H280784   3.990   9.387   8.735
26848WAT      O80785   3.901   4.950   5.208
26848WAT     H180786   3.916   4.984   5.115
26848WAT     H280787   3.926   5.021   5.274
26849WAT      O80788   3.772   0.626   4.079
26849WAT     H180789   3.709   0.626   4.156
26849WAT     H280790   3.736   0.685   4.006
26850WAT      O80791   1.997   0.643   1.053
26850WAT     H180792   1.948   0.641   0.966
26850WAT     H280793   1.968   0.567   1.110
26851WAT      O80794   7.679   7.153   6.677
26851WAT     H180795   7.669   7.056   6.698
26851WAT     H280796   7.746   7.163   6.603
26852WAT      O80797   3.506   3.366   5.893
26852WAT     H180798   3.501   3.309   5.975
26852WAT     H280799   3.414   3.385   5.860
26853WAT      O80800   5.782   4.067   8.550
26853WAT     H180801   5.820   4.069   8.642
26853WAT     H280802   5.682   4.071   8.555
26854WAT      O80803   4.575   9.326   7.736
26854WAT     H180804   4.611   9.403   7.787
26854WAT     H280805   4.592   9.339   7.638
26855WAT      O80806   0.775   3.912   1.103
26855WAT     H180807   0.712   3.988   1.086
26855WAT     H280808   0.852   3.944   1.159
26856WAT      O80809   8.873   3.821   6.539
26856WAT     H180810   8.906   3.740   6.490
26856WAT     H280811   8.927   3.833   6.622
26857WAT      O80812   3.719   7.196   4.548
26857WAT     H180813   3.786   7.168   4.617
26857WAT     H280814   3.767   7.235   4.469
26858WAT      O80815   6.700   4.311   7.232
26858WAT     H180816   6.657   4.307   7.322
26858WAT     H280817   6.709   4.218   7.195
26859WAT      O80818   7.561   5.131   1.341
26859WAT     H180819   7.646   5.122   1.393
26859WAT     H280820   7.529   5.225   1.345
26860WAT      O80821   6.811   0.018   3.472
26860WAT     H180822   6.898  -0.016   3.438
26860WAT     H280823   6.772   0.084   3.407
26861WAT      O80824   6.830   4.677   7.872
26861WAT     H180825   6.912   4.723   7.837
26861WAT     H280826   6.849   4.579   7.882
26862WAT      O80827   8.904   1.207   2.199
26862WAT     H180828   8.854   1.221   2.113
26862WAT     H280829   8.841   1.220   2.276
26863WAT      O80830   2.462   5.169   0.999
26863WAT     H180831   2.520   5.246   1.025
26863WAT     H280832   2.460   5.103   1.073
26864WAT      O80833   7.281   5.067   3.170
26864WAT     H180834   7.285   5.119   3.085
26864WAT     H280835   7.310   5.125   3.246
26865WAT      O80836   1.504   1.903   9.230
26865WAT     H180837   1.586   1.957   9.249
26865WAT     H280838   1.529   1.807   9.219
26866WAT      O80839   2.647   7.766   5.469
26866WAT     H180840   2.597   7.777   5.555
26866WAT     H280841   2.719   7.698   5.482
26867WAT      O80842   8.555   8.670   1.133
26867WAT     H180843   8.491   8.662   1.209
26867WAT     H280844   8.513   8.635   1.049
26868WAT      O80845   5.180   3.611   8.020
26868WAT     H180846   5.095   3.614   8.072
26868WAT     H280847   5.182   3.528   7.964
26869WAT      O80848   9.768   0.334   3.550
26869WAT     H180849   9.809   0.244   3.563
26869WAT     H280850   9.814   0.381   3.474
26870WAT      O80851   3.521   5.327   7.602
26870WAT     H180852   3.594   5.313   7.536
26870WAT     H280853   3.552   5.301   7.693
26871WAT      O80854   0.858   8.100   5.555
26871WAT     H180855   0.789   8.047   5.505
26871WAT     H280856   0.936   8.041   5.576
26872WAT      O80857   5.450   5.519   6.452
26872WAT     H180858   5.409   5.437   6.492
26872WAT     H280859   5.495   5.496   6.366
26873WAT      O80860   5.810   3.908   0.853
26873WAT     H180861   5.825   3.981   0.920
26873WAT     H280862   5.722   3.865   0.870
26874WAT      O80863   3.907   2.873   7.958
26874WAT     H180864   3.891   2.970   7.944
26874WAT     H280865   3.903   2.852   8.055
26875WAT      O80866   0.028   3.386   0.183
26875WAT     H180867  -0.048   3.322   0.174
26875WAT     H280868  -0.004   3.480   0.169
26876WAT      O80869   4.211   1.975   3.680
26876WAT     H180870   4.165   1.906   3.736
26876WAT     H280871   4.261   2.039   3.739
26877WAT      O80872   6.736   8.875   4.426
26877WAT     H180873   6.737   8.793   4.482
26877WAT     H280874   6.800   8.864   4.350
26878WAT      O80875   0.760   8.618   0.908
26878WAT     H180876   0.753   8.713   0.939
26878WAT     H280877   0.830   8.570   0.963
26879WAT      O80878   7.000   1.602   4.216
26879WAT     H180879   6.996   1.509   4.254
26879WAT     H280880   6.908   1.641   4.213
26880WAT      O80881   7.626   7.730   0.267
26880WAT     H180882   7.702   7.666   0.275
26880WAT     H280883   7.540   7.683   0.290
26881WAT      O80884   5.936   8.345   9.492
26881WAT     H180885   5.936   8.376   9.397
26881WAT     H280886   5.848   8.365   9.534
26882WAT      O80887   9.629   0.036   1.182
26882WAT     H180888   9.585   0.122   1.158
26882WAT     H280889   9.570  -0.016   1.244
26883WAT      O80890   5.349   2.086   5.500
26883WAT     H180891   5.395   2.001   5.477
26883WAT     H280892   5.336   2.141   5.417
26884WAT      O80893   6.639   9.586   2.674
26884WAT     H180894   6.595   9.674   2.694
26884WAT     H280895   6.606   9.550   2.587
26885WAT      O80896   9.316   8.392   9.283
26885WAT     H180897   9.339   8.298   9.256
26885WAT     H280898   9.306   8.449   9.202
26886WAT      O80899   7.445   8.570   7.010
26886WAT     H180900   7.500   8.632   7.066
26886WAT     H280901   7.497   8.541   6.930
26887WAT      O80902   4.808   1.355   6.627
26887WAT     H180903   4.821   1.454   6.637
26887WAT     H280904   4.780   1.335   6.533
26888WAT      O80905   8.913   2.983   7.660
26888WAT     H180906   8.855   2.902   7.652
26888WAT     H280907   8.885   3.052   7.592
26889WAT      O80908   2.443   5.026   8.339
26889WAT     H180909   2.425   5.047   8.243
26889WAT     H280910   2.542   5.024   8.354
26890WAT      O80911   7.328   6.660   5.342
26890WAT     H180912   7.279   6.584   5.384
26890WAT     H280913   7.305   6.665   5.245
26891WAT      O80914   9.316   1.333   4.890
26891WAT     H180915   9.404   1.378   4.871
26891WAT     H280916   9.288   1.279   4.811
26892WAT      O80917   8.641   7.368   8.267
26892WAT     H180918   8.549   7.401   8.246
26892WAT     H280919   8.703   7.446   8.277
26893WAT      O80920   5.187   2.499   7.278
26893WAT     H180921   5.174   2.422   7.215
26893WAT     H280922   5.100   2.520   7.323
26894WAT      O80923   5.290   1.772   8.098
26894WAT     H180924   5.259   1.743   8.007
26894WAT     H280925   5.387   1.794   8.094
26895WAT      O80926   6.148   5.295   8.974
26895WAT     H180927   6.078   5.284   9.045
26895WAT     H280928   6.230   5.243   8.999
26896WAT      O80929   4.464   5.885   2.477
26896WAT     H180930   4.373   5.849   2.499
26896WAT     H280931   4.502   5.835   2.399
26897WAT      O80932   0.002   2.567   6.578
26897WAT     H180933   0.093   2.604   6.596
26897WAT     H280934  -0.034   2.604   6.493
26898WAT      O80935   6.979   9.548   4.248
26898WAT     H180936   7.039   9.468   4.238
26898WAT     H280937   7.033   9.626   4.280
26899WAT      O80938   4.229   9.090   7.189
26899WAT     H180939   4.136   9.052   7.186
26899WAT     H280940   4.264   9.085   7.283
26900WAT      O80941   2.896   0.786   4.088
26900WAT     H180942   2.898   0.787   3.988
26900WAT     H280943   2.982   0.750   4.123
26901WAT      O80944   6.951   6.922   8.081
26901WAT     H180945   6.912   6.990   8.019
26901WAT     H280946   6.914   6.935   8.173
26902WAT      O80947   1.697   3.846   3.116
26902WAT     H180948   1.743   3.931   3.139
26902WAT     H280949   1.758   3.769   3.133
26903WAT      O80950   4.474   0.591   0.072
26903WAT     H180951   4.391   0.613   0.123
26903WAT     H280952   4.490   0.661   0.003
26904WAT      O80953   1.579   0.000   3.385
26904WAT     H180954   1.507   0.065   3.407
26904WAT     H280955   1.563  -0.037   3.293
26905WAT      O80956   4.874   7.706   9.711
26905WAT     H180957   4.903   7.754   9.793
26905WAT     H280958   4.908   7.755   9.630
26906WAT      O80959   0.899   4.751   7.444
26906WAT     H180960   0.927   4.695   7.366
26906WAT     H280961   0.912   4.847   7.422
26907WAT      O80962   6.504   7.490   3.553
26907WAT     H180963   6.565   7.542   3.493
26907WAT     H280964   6.520   7.516   3.648
26908WAT      O80965   0.236   8.482   6.785
26908WAT     H180966   0.278   8.552   6.842
26908WAT     H280967   0.235   8.513   6.690
26909WAT      O80968   6.123   7.180   8.400
26909WAT     H180969   6.127   7.081   8.383
26909WAT     H280970   6.053   7.221   8.341
26910WAT      O80971   1.793   8.690   7.139
26910WAT     H180972   1.722   8.718   7.204
26910WAT     H280973   1.775   8.597   7.107
26911WAT      O80974   7.408   6.490   1.069
26911WAT     H180975   7.472   6.565   1.051
26911WAT     H280976   7.425   6.452   1.159
26912WAT      O80977   3.332   7.599   6.474
26912WAT     H180978   3.280   7.631   6.395
26912WAT     H280979   3.428   7.628   6.465
26913WAT      O80980   8.958   0.212   1.188
26913WAT     H180981   8.940   0.229   1.285
26913WAT     H280982   8.874   0.185   1.143
26914WAT      O80983   2.463   4.102   3.348
26914WAT     H180984   2.519   4.185   3.339
26914WAT     H280985   2.459   4.056   3.259
26915WAT      O80986   7.775   2.994   8.782
26915WAT     H180987   7.750   3.078   8.830
26915WAT     H280988   7.711   2.922   8.805
26916WAT      O80989   2.264   3.542   2.230
26916WAT     H180990   2.340   3.531   2.294
26916WAT     H280991   2.298   3.547   2.137
26917WAT      O80992   1.394   0.850   4.632
26917WAT     H180993   1.484   0.892   4.630
26917WAT     H280994   1.327   0.912   4.591
26918WAT      O80995   5.000   7.180   7.067
26918WAT     H180996   4.929   7.158   7.135
26918WAT     H280997   5.089   7.184   7.112
26919WAT      O80998   8.521   1.644   1.045
26919WAT     H180999   8.488   1.734   1.072
26919WAT     H281000   8.577   1.605   1.119
26920WAT      O81001   7.668   4.178   3.053
26920WAT     H181002   7.596   4.173   3.123
26920WAT     H281003   7.722   4.261   3.066
26921WAT      O81004   7.960   1.753   5.271
26921WAT     H181005   7.986   1.803   5.188
26921WAT     H281006   7.919   1.665   5.246
26922WAT      O81007   7.400   6.649   6.503
26922WAT     H181008   7.496   6.618   6.503
26922WAT     H281009   7.345   6.586   6.450
26923WAT      O81010   5.830   2.824   1.201
26923WAT     H181011   5.848   2.869   1.288
26923WAT     H281012   5.912   2.775   1.171
26924WAT      O81013   7.799   6.368   0.433
26924WAT     H181014   7.858   6.325   0.501
26924WAT     H281015   7.705   6.334   0.443
26925WAT      O81016   6.293   4.633   7.972
26925WAT     H181017   6.297   4.628   7.872
26925WAT     H281018   6.307   4.727   8.002
26926WAT      O81019   4.043   0.434   2.685
26926WAT     H181020   4.012   0.464   2.595
26926WAT     H281021   4.122   0.373   2.675
26927WAT      O81022   7.510   2.373   0.351
26927WAT     H181023   7.561   2.427   0.417
26927WAT     H281024   7.523   2.275   0.371
26928WAT      O81025   4.668   6.980   6.427
26928WAT     H181026   4.601   6.966   6.500
26928WAT     H281027   4.752   7.016   6.466
26929WAT      O81028   3.148   1.669   7.095
26929WAT     H181029   3.131   1.572   7.113
26929WAT     H281030   3.238   1.694   7.131
26930WAT      O81031   0.413   3.597   1.460
26930WAT     H181032   0.355   3.670   1.424
26930WAT     H281033   0.358   3.532   1.512
26931WAT      O81034   8.026   2.889   1.757
26931WAT     H181035   7.969   2.827   1.812
26931WAT     H281036   7.972   2.925   1.681
26932WAT      O81037   4.487   4.728   2.025
26932WAT     H181038   4.446   4.725   1.934
26932WAT     H281039   4.586   4.743   2.017
26933WAT      O81040   6.704   3.778   8.896
26933WAT     H181041   6.678   3.771   8.800
26933WAT     H281042   6.623   3.793   8.952
26934WAT      O81043   5.930   1.766   0.986
26934WAT     H181044   5.962   1.860   0.977
26934WAT     H281045   6.008   1.703   0.976
26935WAT      O81046   6.523   1.463   9.194
26935WAT     H181047   6.563   1.554   9.198
26935WAT     H281048   6.423   1.470   9.203
26936WAT      O81049   8.443   9.042   7.806
26936WAT     H181050   8.491   8.962   7.842
26936WAT     H281051   8.355   9.052   7.852
26937WAT      O81052   8.903   4.035   8.339
26937WAT     H181053   8.934   3.965   8.404
26937WAT     H281054   8.814   4.009   8.302
26938WAT      O81055   4.939   9.192   5.738
26938WAT     H181056   4.856   9.196   5.683
26938WAT     H281057   4.982   9.282   5.740
26939WAT      O81058   9.303   9.435   0.558
26939WAT     H181059   9.372   9.471   0.620
26939WAT     H281060   9.234   9.385   0.610
26940WAT      O81061   9.700   1.008   9.129
26940WAT     H181062   9.721   0.925   9.182
26940WAT     H281063   9.699   0.986   9.032
26941WAT      O81064   6.060   0.950   7.048
26941WAT     H181065   6.124   0.967   7.122
26941WAT     H281066   6.088   1.003   6.967
26942WAT      O81067   8.962   6.584   5.920
26942WAT     H181068   8.964   6.534   5.833
26942WAT     H281069   8.872   6.574   5.962
26943WAT      O81070   1.130   6.613   9.819
26943WAT     H181071   1.222   6.639   9.790
26943WAT     H281072   1.080   6.573   9.742
26944WAT      O81073   9.736   7.592   8.581
26944WAT     H181074   9.817   7.649   8.591
26944WAT     H281075   9.656   7.641   8.617
26945WAT      O81076   9.493   8.326   7.594
26945WAT     H181077   9.446   8.260   7.653
26945WAT     H281078   9.555   8.277   7.532
26946WAT      O81079   2.404   1.068   5.565
26946WAT     H181080   2.466   1.037   5.637
26946WAT     H281081   2.392   1.167   5.572
26947WAT      O81082   5.539   4.160   3.996
26947WAT     H181083   5.487   4.184   3.914
26947WAT     H281084   5.501   4.077   4.037
26948WAT      O81085   0.745   4.908   2.930
26948WAT     H181086   0.742   5.003   2.962
26948WAT     H281087   0.840   4.878   2.924
26949WAT      O81088   7.837   5.206   1.506
26949WAT     H181089   7.819   5.204   1.605
26949WAT     H281090   7.901   5.133   1.483
26950WAT      O81091   3.583   7.386   6.898
26950WAT     H181092   3.619   7.435   6.819
26950WAT     H281093   3.485   7.404   6.906
26951WAT      O81094   6.596   8.200   2.969
26951WAT     H181095   6.610   8.137   2.893
26951WAT     H281096   6.498   8.206   2.990
26952WAT      O81097   8.747   1.407   5.134
26952WAT     H181098   8.809   1.343   5.089
26952WAT     H281099   8.653   1.381   5.116
26953WAT      O81100   6.324   5.464   0.556
26953WAT     H181101   6.336   5.465   0.457
26953WAT     H281102   6.227   5.454   0.578
26954WAT      O81103   0.500   8.620   4.097
26954WAT     H181104   0.532   8.540   4.046
26954WAT     H281105   0.540   8.619   4.189
26955WAT      O81106   7.423   4.670   3.941
26955WAT     H181107   7.449   4.578   3.914
26955WAT     H281108   7.472   4.737   3.884
26956WAT      O81109   8.847   5.545   3.540
26956WAT     H181110   8.860   5.449   3.518
26956WAT     H281111   8.762   5.579   3.499
26957WAT      O81112   9.303   6.569   4.881
26957WAT     H181113   9.354   6.622   4.948
26957WAT     H281114   9.210   6.554   4.914
26958WAT      O81115   6.811   7.818   2.091
26958WAT     H181116   6.795   7.896   2.030
26958WAT     H281117   6.906   7.816   2.119
26959WAT      O81118   2.748   4.687   8.747
26959WAT     H181119   2.745   4.634   8.662
26959WAT     H281120   2.841   4.685   8.783
26960WAT      O81121   8.956   0.930   2.091
26960WAT     H181122   9.044   0.940   2.044
26960WAT     H281123   8.894   1.003   2.063
26961WAT      O81124   6.914   8.080   2.713
26961WAT     H181125   6.972   8.160   2.702
26961WAT     H281126   6.860   8.066   2.630
26962WAT      O81127   5.746   5.632   3.858
26962WAT     H181128   5.754   5.534   3.877
26962WAT     H281129   5.651   5.653   3.832
26963WAT      O81130   3.173   7.684   3.666
26963WAT     H181131   3.137   7.620   3.599
26963WAT     H281132   3.225   7.634   3.735
26964WAT      O81133   2.937   7.324   8.706
26964WAT     H181134   2.973   7.363   8.621
26964WAT     H281135   2.900   7.233   8.689
26965WAT      O81136   5.252   4.830   1.168
26965WAT     H181137   5.173   4.837   1.107
26965WAT     H281138   5.334   4.860   1.120
26966WAT      O81139   2.964   7.889   8.132
26966WAT     H181140   2.980   7.799   8.172
26966WAT     H281141   2.989   7.960   8.197
26967WAT      O81142   3.303   0.176   3.209
26967WAT     H181143   3.395   0.147   3.182
26967WAT     H281144   3.308   0.218   3.300
26968WAT      O81145   3.523   7.108   4.804
26968WAT     H181146   3.550   7.180   4.867
26968WAT     H281147   3.499   7.025   4.855
26969WAT      O81148   5.154   5.048   0.454
26969WAT     H181149   5.220   5.036   0.380
26969WAT     H281150   5.082   5.111   0.424
26970WAT      O81151   9.080   9.273   2.289
26970WAT     H181152   9.141   9.339   2.246
26970WAT     H281153   9.114   9.180   2.273
26971WAT      O81154   5.974   1.383   1.658
26971WAT     H181155   5.981   1.312   1.728
26971WAT     H281156   5.892   1.367   1.604
26972WAT      O81157   7.747   5.277   5.196
26972WAT     H181158   7.803   5.204   5.156
26972WAT     H281159   7.791   5.310   5.280
26973WAT      O81160   3.363   6.564   0.963
26973WAT     H181161   3.408   6.558   0.874
26973WAT     H281162   3.299   6.641   0.964
26974WAT      O81163   9.321   1.704   8.938
26974WAT     H181164   9.402   1.737   8.889
26974WAT     H281165   9.239   1.750   8.903
26975WAT      O81166   6.134   1.414   8.372
26975WAT     H181167   6.046   1.454   8.346
26975WAT     H281168   6.133   1.393   8.470
26976WAT      O81169   0.788   3.936   8.143
26976WAT     H181170   0.872   3.919   8.092
26976WAT     H281171   0.709   3.906   8.089
26977WAT      O81172   1.597   8.303   9.504
26977WAT     H181173   1.569   8.237   9.435
26977WAT     H281174   1.519   8.323   9.564
26978WAT      O81175   7.292   9.255   8.247
26978WAT     H181176   7.288   9.249   8.347
26978WAT     H281177   7.201   9.276   8.211
26979WAT      O81178   2.440   7.351   1.508
26979WAT     H181179   2.436   7.374   1.411
26979WAT     H281180   2.349   7.359   1.548
26980WAT      O81181   2.008   0.571   7.785
26980WAT     H181182   2.007   0.563   7.685
26980WAT     H281183   2.092   0.617   7.814
26981WAT      O81184   9.812   1.380   1.843
26981WAT     H181185   9.773   1.335   1.763
26981WAT     H281186   9.912   1.373   1.840
26982WAT      O81187   1.455   7.867   2.767
26982WAT     H181188   1.415   7.785   2.808
26982WAT     H281189   1.398   7.947   2.790
26983WAT      O81190   3.090   7.814   5.479
26983WAT     H181191   3.075   7.902   5.524
26983WAT     H281192   3.150   7.827   5.401
26984WAT      O81193   8.167   5.288   3.646
26984WAT     H181194   8.103   5.232   3.592
26984WAT     H281195   8.164   5.382   3.614
26985WAT      O81196   7.793   0.680   2.988
26985WAT     H181197   7.846   0.611   2.939
26985WAT     H281198   7.820   0.771   2.955
26986WAT      O81199   8.343   0.665   1.275
26986WAT     H181200   8.246   0.642   1.288
26986WAT     H281201   8.368   0.739   1.336
26987WAT      O81202   7.867   2.933   8.035
26987WAT     H181203   7.900   2.861   8.095
26987WAT     H281204   7.800   2.989   8.085
26988WAT      O81205   1.313   2.203   3.516
26988WAT     H181206   1.242   2.132   3.509
26988WAT     H281207   1.304   2.266   3.439
26989WAT      O81208   7.654   2.794   0.565
26989WAT     H181209   7.640   2.838   0.476
26989WAT     H281210   7.649   2.694   0.554
26990WAT      O81211   3.893   3.725   4.814
26990WAT     H181212   3.962   3.701   4.745
26990WAT     H281213   3.895   3.658   4.888
26991WAT      O81214   8.682   9.394   4.306
26991WAT     H181215   8.693   9.346   4.393
26991WAT     H281216   8.767   9.391   4.254
26992WAT      O81217   7.963   4.598   3.975
26992WAT     H181218   7.910   4.619   4.057
26992WAT     H281219   7.974   4.499   3.966
26993WAT      O81220   3.438   8.046   0.892
26993WAT     H181221   3.528   8.077   0.922
26993WAT     H281222   3.445   8.001   0.804
26994WAT      O81223   7.974   6.707   2.467
26994WAT     H181224   7.982   6.608   2.466
26994WAT     H281225   8.047   6.747   2.521
26995WAT      O81226   1.658   1.257   2.246
26995WAT     H181227   1.684   1.335   2.188
26995WAT     H281228   1.684   1.172   2.201
26996WAT      O81229   9.563   6.516   0.812
26996WAT     H181230   9.499   6.549   0.880
26996WAT     H281231   9.645   6.574   0.811
26997WAT      O81232   9.596   0.833   7.294
26997WAT     H181233   9.555   0.857   7.205
26997WAT     H281234   9.572   0.739   7.317
26998WAT      O81235   5.006   8.486   3.513
26998WAT     H181236   5.069   8.522   3.582
26998WAT     H281237   5.018   8.534   3.427
26999WAT      O81238   7.195   4.318   4.188
26999WAT     H181239   7.271   4.377   4.162
26999WAT     H281240   7.109   4.369   4.178
27000WAT      O81241   5.881   4.535   3.215
27000WAT     H181242   5.814   4.597   3.175
27000WAT     H281243   5.836   4.474   3.280
27001WAT      O81244   3.586   3.352   2.429
27001WAT     H181245   3.503   3.349   2.484
27001WAT     H281246   3.584   3.277   2.362
27002WAT      O81247   6.587   2.206   6.100
27002WAT     H181248   6.559   2.221   6.005
27002WAT     H281249   6.506   2.191   6.157
27003WAT      O81250   7.978   7.473   1.396
27003WAT     H181251   7.954   7.379   1.419
27003WAT     H281252   8.071   7.492   1.427
27004WAT      O81253   3.736   9.701   4.075
27004WAT     H181254   3.745   9.765   4.151
27004WAT     H281255   3.740   9.607   4.111
27005WAT      O81256   8.553   7.131   0.942
27005WAT     H181257   8.649   7.106   0.942
27005WAT     H281258   8.538   7.208   1.004
27006WAT      O81259   2.180   9.739   8.444
27006WAT     H181260   2.160   9.727   8.542
27006WAT     H281261   2.236   9.821   8.432
27007WAT      O81262   5.521   4.166   0.999
27007WAT     H181263   5.474   4.247   0.965
27007WAT     H281264   5.595   4.194   1.061
27008WAT      O81265   4.562   1.114   3.872
27008WAT     H181266   4.653   1.075   3.857
27008WAT     H281267   4.568   1.214   3.868
27009WAT      O81268   1.725   5.514   7.507
27009WAT     H181269   1.757   5.501   7.600
27009WAT     H281270   1.754   5.603   7.473
27010WAT      O81271   2.947   7.650   4.399
27010WAT     H181272   2.884   7.604   4.336
27010WAT     H281273   3.018   7.585   4.427
27011WAT      O81274   8.482   5.208   8.417
27011WAT     H181275   8.398   5.159   8.393
27011WAT     H281276   8.526   5.163   8.494
27012WAT      O81277   9.380   5.253   0.684
27012WAT     H181278   9.465   5.266   0.632
27012WAT     H281279   9.304   5.237   0.621
27013WAT      O81280   5.829   5.881   3.987
27013WAT     H181281   5.771   5.804   3.960
27013WAT     H281282   5.791   5.965   3.950
27014WAT      O81283   6.639   1.513   4.563
27014WAT     H181284   6.581   1.443   4.605
27014WAT     H281285   6.735   1.494   4.586
27015WAT      O81286   0.929   4.196   3.085
27015WAT     H181287   0.960   4.257   3.013
27015WAT     H281288   0.949   4.237   3.174
27016WAT      O81289   9.695   1.207   8.533
27016WAT     H181290   9.720   1.139   8.464
27016WAT     H281291   9.638   1.278   8.491
27017WAT      O81292   0.940   9.779   7.842
27017WAT     H181293   0.991   9.844   7.787
27017WAT     H281294   0.896   9.826   7.919
27018WAT      O81295   6.495   5.592   5.757
27018WAT     H181296   6.418   5.612   5.817
27018WAT     H281297   6.519   5.674   5.705
27019WAT      O81298   8.149   0.416   3.110
27019WAT     H181299   8.169   0.329   3.155
27019WAT     H281300   8.132   0.487   3.179
27020WAT      O81301   2.179   2.339   5.556
27020WAT     H181302   2.157   2.320   5.460
27020WAT     H281303   2.121   2.412   5.590
27021WAT      O81304   2.772   0.403   7.487
27021WAT     H181305   2.793   0.386   7.584
27021WAT     H281306   2.853   0.381   7.432
27022WAT      O81307   1.143   0.381   8.606
27022WAT     H181308   1.136   0.297   8.554
27022WAT     H281309   1.196   0.449   8.554
27023WAT      O81310   0.326   9.521   5.749
27023WAT     H181311   0.255   9.546   5.683
27023WAT     H281312   0.332   9.422   5.755
27024WAT      O81313   0.565   2.578   1.850
27024WAT     H181314   0.589   2.662   1.899
27024WAT     H281315   0.534   2.601   1.758
27025WAT      O81316   1.406   3.189   3.222
27025WAT     H181317   1.401   3.287   3.236
27025WAT     H281318   1.316   3.153   3.199
27026WAT      O81319   6.364   3.815   1.256
27026WAT     H181320   6.380   3.904   1.213
27026WAT     H281321   6.269   3.809   1.287
27027WAT      O81322   7.192   0.962   2.694
27027WAT     H181323   7.152   0.960   2.786
27027WAT     H281324   7.232   0.873   2.674
27028WAT      O81325   0.621   6.121   9.792
27028WAT     H181326   0.671   6.187   9.735
27028WAT     H281327   0.648   6.028   9.766
27029WAT      O81328   8.506   0.823   6.190
27029WAT     H181329   8.547   0.741   6.151
27029WAT     H281330   8.508   0.896   6.123
27030WAT      O81331   5.997   2.219   3.435
27030WAT     H181332   5.907   2.255   3.412
27030WAT     H281333   6.057   2.223   3.355
27031WAT      O81334   6.896   2.363   5.695
27031WAT     H181335   6.804   2.402   5.691
27031WAT     H281336   6.896   2.272   5.654
27032WAT      O81337   4.650   2.626   4.521
27032WAT     H181338   4.730   2.684   4.505
27032WAT     H281339   4.674   2.531   4.504
27033WAT      O81340   7.990   9.222   5.677
27033WAT     H181341   7.999   9.124   5.698
27033WAT     H281342   7.917   9.235   5.610
27034WAT      O81343   5.891   8.129   3.173
27034WAT     H181344   5.795   8.134   3.200
27034WAT     H281345   5.942   8.202   3.217
27035WAT      O81346   8.261   2.797   8.387
27035WAT     H181347   8.333   2.865   8.405
27035WAT     H281348   8.243   2.744   8.470
27036WAT      O81349   1.945   1.030   3.992
27036WAT     H181350   1.939   0.998   4.087
27036WAT     H281351   1.925   1.128   3.989
27037WAT      O81352   9.248   5.819   0.865
27037WAT     H181353   9.284   5.908   0.836
27037WAT     H281354   9.323   5.752   0.864
27038WAT      O81355   9.039   6.508   9.392
27038WAT     H181356   9.008   6.546   9.479
27038WAT     H281357   8.989   6.424   9.372
27039WAT      O81358   5.855   2.930   9.376
27039WAT     H181359   5.801   2.872   9.316
27039WAT     H281360   5.838   2.905   9.472
27040WAT      O81361   0.329   4.575   4.954
27040WAT     H181362   0.425   4.550   4.969
27040WAT     H281363   0.276   4.553   5.036
27041WAT      O81364   1.232   1.666   3.923
27041WAT     H181365   1.150   1.650   3.868
27041WAT     H281366   1.219   1.745   3.982
27042WAT      O81367   9.809   6.443   1.957
27042WAT     H181368   9.772   6.404   1.873
27042WAT     H281369   9.891   6.496   1.936
27043WAT      O81370   7.523   2.367   1.370
27043WAT     H181371   7.512   2.361   1.469
27043WAT     H281372   7.438   2.341   1.324
27044WAT      O81373   1.760   1.987   6.436
27044WAT     H181374   1.748   2.055   6.364
27044WAT     H281375   1.831   1.922   6.409
27045WAT      O81376   0.134   6.473   6.377
27045WAT     H181377   0.110   6.389   6.329
27045WAT     H281378   0.233   6.476   6.391
27046WAT      O81379   5.499   8.419   8.660
27046WAT     H181380   5.576   8.381   8.610
27046WAT     H281381   5.458   8.349   8.718
27047WAT      O81382   8.406   0.343   8.625
27047WAT     H181383   8.429   0.270   8.561
27047WAT     H281384   8.475   0.415   8.620
27048WAT      O81385   5.729   0.838   8.196
27048WAT     H181386   5.650   0.779   8.184
27048WAT     H281387   5.813   0.783   8.190
27049WAT      O81388   5.969   6.319   1.557
27049WAT     H181389   5.991   6.270   1.473
27049WAT     H281390   5.899   6.388   1.537
27050WAT      O81391   3.644   8.224   9.093
27050WAT     H181392   3.604   8.139   9.058
27050WAT     H281393   3.743   8.218   9.089
27051WAT      O81394   0.512   2.692   9.604
27051WAT     H181395   0.606   2.657   9.595
27051WAT     H281396   0.482   2.728   9.516
27052WAT      O81397   8.558   9.540   5.552
27052WAT     H181398   8.558   9.458   5.608
27052WAT     H281399   8.513   9.615   5.601
27053WAT      O81400   9.229   2.307   3.047
27053WAT     H181401   9.278   2.383   3.089
27053WAT     H281402   9.293   2.250   2.996
27054WAT      O81403   9.327   3.097   1.535
27054WAT     H181404   9.333   3.024   1.467
27054WAT     H281405   9.238   3.094   1.579
27055WAT      O81406   5.614   8.252   2.322
27055WAT     H181407   5.613   8.265   2.421
27055WAT     H281408   5.675   8.177   2.298
27056WAT      O81409   6.853   9.160   8.504
27056WAT     H181410   6.826   9.183   8.410
27056WAT     H281411   6.947   9.191   8.519
27057WAT      O81412   8.007   0.479   2.503
27057WAT     H181413   7.968   0.463   2.593
27057WAT     H281414   8.107   0.469   2.507
27058WAT      O81415   5.852   9.813   2.070
27058WAT     H181416   5.895   9.771   2.150
27058WAT     H281417   5.878   9.909   2.064
27059WAT      O81418   5.954   7.602   3.247
27059WAT     H181419   5.989   7.522   3.198
27059WAT     H281420   5.991   7.686   3.206
27060WAT      O81421   0.169   8.879   4.337
27060WAT     H181422   0.227   8.802   4.364
27060WAT     H281423   0.074   8.848   4.330
27061WAT      O81424   4.091   6.437   7.385
27061WAT     H181425   4.002   6.476   7.361
27061WAT     H281426   4.155   6.450   7.309
27062WAT      O81427   8.076   5.614   0.712
27062WAT     H181428   8.150   5.547   0.724
27062WAT     H281429   8.103   5.700   0.755
27063WAT      O81430   9.546   8.895   2.042
27063WAT     H181431   9.491   8.968   2.081
27063WAT     H281432   9.636   8.930   2.014
27064WAT      O81433   2.119   9.226   5.585
27064WAT     H181434   2.041   9.289   5.598
27064WAT     H281435   2.139   9.179   5.670
27065WAT      O81436   1.123   4.828   4.787
27065WAT     H181437   1.123   4.889   4.866
27065WAT     H281438   1.054   4.858   4.722
27066WAT      O81439   8.077   0.814   2.587
27066WAT     H181440   8.087   0.769   2.676
27066WAT     H281441   8.105   0.751   2.515
27067WAT      O81442   9.676   6.890   4.516
27067WAT     H181443   9.731   6.972   4.497
27067WAT     H281444   9.640   6.895   4.609
27068WAT      O81445   6.619   6.176   5.645
27068WAT     H181446   6.607   6.139   5.553
27068WAT     H281447   6.676   6.113   5.699
27069WAT      O81448   7.616   3.319   0.135
27069WAT     H181449   7.663   3.406   0.148
27069WAT     H281450   7.673   3.259   0.078
27070WAT      O81451   8.074   5.968   0.337
27070WAT     H181452   8.060   6.061   0.370
27070WAT     H281453   8.015   5.905   0.388
27071WAT      O81454   3.901   0.353   3.772
27071WAT     H181455   3.854   0.438   3.746
27071WAT     H281456   3.903   0.291   3.693
27072WAT      O81457   6.287   1.376   9.756
27072WAT     H181458   6.325   1.408   9.843
27072WAT     H281459   6.266   1.455   9.698
27073WAT      O81460   2.917   2.142   9.754
27073WAT     H181461   2.882   2.122   9.846
27073WAT     H281462   2.995   2.084   9.735
27074WAT      O81463   3.757   8.708   2.065
27074WAT     H181464   3.716   8.652   2.137
27074WAT     H281465   3.850   8.732   2.090
27075WAT      O81466   7.084   3.003   3.648
27075WAT     H181467   7.129   3.083   3.607
27075WAT     H281468   7.115   2.992   3.742
27076WAT      O81469   5.551   7.341   4.523
27076WAT     H181470   5.641   7.362   4.486
27076WAT     H281471   5.554   7.252   4.569
27077WAT      O81472   0.578   8.614   3.213
27077WAT     H181473   0.677   8.599   3.214
27077WAT     H281474   0.559   8.711   3.197
27078WAT      O81475   7.825   2.316   1.287
27078WAT     H181476   7.831   2.226   1.244
27078WAT     H281477   7.740   2.361   1.259
27079WAT      O81478   2.512   7.012   7.280
27079WAT     H181479   2.447   7.049   7.214
27079WAT     H281480   2.529   6.915   7.259
27080WAT      O81481   4.742   3.426   1.158
27080WAT     H181482   4.736   3.326   1.160
27080WAT     H281483   4.791   3.459   1.238
27081WAT      O81484   8.692   3.397   9.470
27081WAT     H181485   8.781   3.441   9.455
27081WAT     H281486   8.685   3.317   9.409
27082WAT      O81487   6.306   0.358   2.547
27082WAT     H181488   6.229   0.420   2.536
27082WAT     H281489   6.362   0.387   2.625
27083WAT      O81490   4.649   1.328   1.253
27083WAT     H181491   4.697   1.350   1.167
27083WAT     H281492   4.641   1.411   1.308
27084WAT      O81493   5.252   6.865   3.685
27084WAT     H181494   5.212   6.940   3.633
27084WAT     H281495   5.350   6.878   3.693
27085WAT      O81496   9.012   8.113   9.027
27085WAT     H181497   8.936   8.174   9.047
27085WAT     H281498   9.033   8.058   9.108
27086WAT      O81499   2.135   5.928   9.518
27086WAT     H181500   2.189   5.873   9.455
27086WAT     H281501   2.187   6.009   9.546
27087WAT      O81502   7.323   8.428   0.639
27087WAT     H181503   7.332   8.520   0.602
27087WAT     H281504   7.401   8.408   0.698
27088WAT      O81505   4.258   5.074   8.937
27088WAT     H181506   4.351   5.103   8.960
27088WAT     H281507   4.243   5.083   8.839
27089WAT      O81508   8.379   5.404   0.475
27089WAT     H181509   8.371   5.499   0.445
27089WAT     H281510   8.302   5.381   0.535
27090WAT      O81511   5.044   8.657   6.741
27090WAT     H181512   4.951   8.624   6.728
27090WAT     H281513   5.047   8.719   6.820
27091WAT      O81514   7.895   8.504   7.804
27091WAT     H181515   7.911   8.602   7.812
27091WAT     H281516   7.796   8.486   7.807
27092WAT      O81517   4.731   2.632   8.676
27092WAT     H181518   4.777   2.680   8.602
27092WAT     H281519   4.648   2.681   8.702
27093WAT      O81520   1.858   1.010   2.971
27093WAT     H181521   1.921   0.934   2.985
27093WAT     H281522   1.846   1.060   3.057
27094WAT      O81523   7.292   7.895   1.340
27094WAT     H181524   7.347   7.976   1.364
27094WAT     H281525   7.216   7.923   1.281
27095WAT      O81526   9.447   5.312   5.677
27095WAT     H181527   9.442   5.275   5.770
27095WAT     H281528   9.479   5.406   5.680
27096WAT      O81529   4.064   8.759   4.734
27096WAT     H181530   4.094   8.837   4.680
27096WAT     H281531   3.985   8.785   4.790
27097WAT      O81532   4.356   1.744   6.542
27097WAT     H181533   4.350   1.799   6.625
27097WAT     H281534   4.266   1.706   6.520
27098WAT      O81535   1.843   2.346   2.459
27098WAT     H181536   1.801   2.289   2.530
27098WAT     H281537   1.789   2.429   2.448
27099WAT      O81538   2.051   8.919   2.696
27099WAT     H181539   2.140   8.963   2.704
27099WAT     H281540   2.058   8.837   2.640
27100WAT      O81541   7.815   0.572   6.182
27100WAT     H181542   7.769   0.557   6.269
27100WAT     H281543   7.910   0.600   6.199
27101WAT      O81544   4.125   1.386   9.522
27101WAT     H181545   4.114   1.485   9.533
27101WAT     H281546   4.220   1.360   9.539
27102WAT      O81547   1.227   5.791   2.608
27102WAT     H181548   1.168   5.864   2.574
27102WAT     H281549   1.222   5.788   2.708
27103WAT      O81550   0.280   0.313   6.703
27103WAT     H181551   0.337   0.263   6.638
27103WAT     H281552   0.193   0.338   6.659
27104WAT      O81553   4.982   0.776   7.616
27104WAT     H181554   4.939   0.690   7.645
27104WAT     H281555   4.978   0.842   7.691
27105WAT      O81556   2.011   7.464   7.069
27105WAT     H181557   1.999   7.450   7.167
27105WAT     H281558   1.980   7.555   7.044
27106WAT      O81559   0.128   3.257   8.095
27106WAT     H181560   0.131   3.356   8.079
27106WAT     H281561   0.037   3.223   8.071
27107WAT      O81562   3.290   1.639   9.797
27107WAT     H181563   3.228   1.606   9.868
27107WAT     H281564   3.380   1.596   9.809
27108WAT      O81565   6.492   4.901   8.797
27108WAT     H181566   6.448   4.811   8.803
27108WAT     H281567   6.588   4.890   8.774
27109WAT      O81568   3.402   7.435   2.023
27109WAT     H181569   3.501   7.425   2.010
27109WAT     H281570   3.383   7.451   2.120
27110WAT      O81571   6.877   2.041   5.334
27110WAT     H181572   6.866   2.140   5.326
27110WAT     H281573   6.961   2.013   5.286
27111WAT      O81574   5.927   7.393   7.695
27111WAT     H181575   5.844   7.446   7.707
27111WAT     H281576   5.915   7.302   7.734
27112WAT      O81577   8.314   4.906   8.881
27112WAT     H181578   8.221   4.935   8.903
27112WAT     H281579   8.373   4.922   8.960
27113WAT      O81580   2.082   0.859   6.812
27113WAT     H181581   2.039   0.850   6.722
27113WAT     H281582   2.095   0.956   6.833
27114WAT      O81583   9.234   7.918   0.462
27114WAT     H181584   9.306   7.924   0.392
27114WAT     H281585   9.174   7.998   0.454
27115WAT      O81586   4.876   5.535   5.511
27115WAT     H181587   4.934   5.615   5.518
27115WAT     H281588   4.782   5.564   5.493
27116WAT      O81589   9.198   6.296   2.489
27116WAT     H181590   9.242   6.303   2.578
27116WAT     H281591   9.248   6.231   2.432
27117WAT      O81592   8.042   4.700   8.541
27117WAT     H181593   7.948   4.697   8.575
27117WAT     H281594   8.085   4.787   8.566
27118WAT      O81595   2.230   4.335   6.235
27118WAT     H181596   2.256   4.357   6.329
27118WAT     H281597   2.132   4.354   6.223
27119WAT      O81598   4.233   3.746   8.733
27119WAT     H181599   4.171   3.817   8.701
27119WAT     H281600   4.244   3.753   8.832
27120WAT      O81601   4.609   1.903   9.572
27120WAT     H181602   4.662   1.983   9.542
27120WAT     H281603   4.664   1.820   9.557
27121WAT      O81604   9.797   4.490   8.868
27121WAT     H181605   9.744   4.574   8.851
27121WAT     H281606   9.736   4.419   8.903
27122WAT      O81607   3.293   2.059   1.800
27122WAT     H181608   3.295   1.969   1.844
27122WAT     H281609   3.204   2.073   1.756
27123WAT      O81610   9.174   4.628   5.845
27123WAT     H181611   9.092   4.598   5.795
27123WAT     H281612   9.221   4.547   5.881
27124WAT      O81613   7.502   1.056   7.815
27124WAT     H181614   7.500   1.155   7.826
27124WAT     H281615   7.473   1.032   7.723
27125WAT      O81616   1.709   4.534   7.165
27125WAT     H181617   1.719   4.480   7.249
27125WAT     H281618   1.615   4.525   7.131
27126WAT      O81619   5.480   8.748   4.327
27126WAT     H181620   5.419   8.682   4.282
27126WAT     H281621   5.545   8.784   4.261
27127WAT      O81622   8.287   1.941   2.347
27127WAT     H181623   8.352   1.932   2.422
27127WAT     H281624   8.265   2.038   2.334
27128WAT      O81625   8.847   4.974   7.009
27128WAT     H181626   8.903   5.044   6.964
27128WAT     H281627   8.899   4.889   7.015
27129WAT      O81628   5.158   3.929   2.977
27129WAT     H181629   5.164   3.858   2.907
27129WAT     H281630   5.247   3.973   2.987
27130WAT      O81631   9.590   2.917   8.771
27130WAT     H181632   9.667   2.954   8.719
27130WAT     H281633   9.519   2.886   8.707
27131WAT      O81634   3.169   5.908   0.700
27131WAT     H181635   3.184   5.812   0.725
27131WAT     H281636   3.130   5.957   0.778
27132WAT      O81637   1.261   7.613   5.450
27132WAT     H181638   1.341   7.565   5.487
27132WAT     H281639   1.208   7.652   5.525
27133WAT      O81640   1.978   0.457   0.806
27133WAT     H181641   1.910   0.527   0.786
27133WAT     H281642   1.935   0.384   0.860
27134WAT      O81643   5.536   1.990   4.343
27134WAT     H181644   5.522   1.910   4.401
27134WAT     H281645   5.467   2.059   4.363
27135WAT      O81646   0.007   1.980   9.781
27135WAT     H181647  -0.037   1.941   9.862
27135WAT     H281648   0.069   1.912   9.741
27136WAT      O81649   8.613   6.795   4.189
27136WAT     H181650   8.647   6.880   4.147
27136WAT     H281651   8.659   6.781   4.277
27137WAT      O81652   1.480   5.686   1.613
27137WAT     H181653   1.439   5.693   1.522
27137WAT     H281654   1.578   5.670   1.605
27138WAT      O81655   3.755   1.594   2.658
27138WAT     H181656   3.830   1.651   2.622
27138WAT     H281657   3.772   1.499   2.634
27139WAT      O81658   6.862   1.629   6.292
27139WAT     H181659   6.960   1.633   6.274
27139WAT     H281660   6.817   1.577   6.220
27140WAT      O81661   3.718   4.074   7.038
27140WAT     H181662   3.781   4.020   7.094
27140WAT     H281663   3.672   4.141   7.096
27141WAT      O81664   9.275   3.503   7.686
27141WAT     H181665   9.301   3.500   7.782
27141WAT     H281666   9.357   3.513   7.630
27142WAT      O81667   8.852   4.954   5.193
27142WAT     H181668   8.765   4.967   5.146
27142WAT     H281669   8.884   4.860   5.180
27143WAT      O81670   2.732   3.459   0.377
27143WAT     H181671   2.809   3.516   0.406
27143WAT     H281672   2.761   3.399   0.302
27144WAT      O81673   2.977   6.132   1.394
27144WAT     H181674   2.922   6.132   1.311
27144WAT     H281675   3.000   6.038   1.419
27145WAT      O81676   9.747   2.030   2.763
27145WAT     H181677   9.841   2.038   2.797
27145WAT     H281678   9.739   2.077   2.676
27146WAT      O81679   6.005   7.132   5.778
27146WAT     H181680   5.928   7.072   5.758
27146WAT     H281681   5.971   7.225   5.794
27147WAT      O81682   6.265   2.587   8.493
27147WAT     H181683   6.166   2.590   8.499
27147WAT     H281684   6.305   2.616   8.580
27148WAT      O81685   4.883   9.723   0.992
27148WAT     H181686   4.960   9.689   0.939
27148WAT     H281687   4.906   9.813   1.030
27149WAT      O81688   9.734   3.531   5.382
27149WAT     H181689   9.636   3.512   5.391
27149WAT     H281690   9.784   3.445   5.368
27150WAT      O81691   2.338   1.640   3.752
27150WAT     H181692   2.356   1.547   3.783
27150WAT     H281693   2.417   1.698   3.772
27151WAT      O81694   6.510   1.934   1.099
27151WAT     H181695   6.585   1.950   1.163
27151WAT     H281696   6.460   1.851   1.126
27152WAT      O81697   9.051   7.951   0.234
27152WAT     H181698   9.101   7.880   0.184
27152WAT     H281699   9.114   8.022   0.264
27153WAT      O81700   5.175   4.419   9.154
27153WAT     H181701   5.238   4.489   9.189
27153WAT     H281702   5.165   4.430   9.055
27154WAT      O81703   6.868   3.625   3.909
27154WAT     H181704   6.943   3.678   3.950
27154WAT     H281705   6.873   3.530   3.942
27155WAT      O81706   1.251   3.439   8.374
27155WAT     H181707   1.199   3.389   8.443
27155WAT     H281708   1.269   3.380   8.295
27156WAT      O81709   6.657   3.392   3.087
27156WAT     H181710   6.756   3.392   3.097
27156WAT     H281711   6.616   3.439   3.166
27157WAT      O81712   5.636   9.538   3.755
27157WAT     H181713   5.715   9.477   3.763
27157WAT     H281714   5.666   9.631   3.735
27158WAT      O81715   1.830   3.842   2.736
27158WAT     H181716   1.778   3.763   2.768
27158WAT     H281717   1.922   3.840   2.775
27159WAT      O81718   5.419   8.336   9.598
27159WAT     H181719   5.361   8.338   9.516
27159WAT     H281720   5.362   8.352   9.678
27160WAT      O81721   7.273   1.326   6.281
27160WAT     H181722   7.303   1.387   6.354
27160WAT     H281723   7.306   1.360   6.193
27161WAT      O81724   6.700   3.867   6.701
27161WAT     H181725   6.676   3.862   6.798
27161WAT     H281726   6.755   3.949   6.685
27162WAT      O81727   6.527   1.635   7.020
27162WAT     H181728   6.433   1.661   7.043
27162WAT     H281729   6.573   1.714   6.979
27163WAT      O81730   6.964   1.069   7.619
27163WAT     H181731   6.998   1.162   7.601
27163WAT     H281732   6.893   1.046   7.552
27164WAT      O81733   7.403   3.745   1.275
27164WAT     H181734   7.304   3.734   1.285
27164WAT     H281735   7.444   3.656   1.255
27165WAT      O81736   3.143   6.241   2.524
27165WAT     H181737   3.160   6.303   2.600
27165WAT     H281738   3.224   6.237   2.466
27166WAT      O81739   3.154   9.490   9.759
27166WAT     H181740   3.200   9.451   9.839
27166WAT     H281741   3.200   9.459   9.676
27167WAT      O81742   6.266   4.802   9.351
27167WAT     H181743   6.334   4.734   9.322
27167WAT     H281744   6.299   4.894   9.327
27168WAT      O81745   7.614   1.106   6.092
27168WAT     H181746   7.521   1.089   6.061
27168WAT     H281747   7.676   1.039   6.051
27169WAT      O81748   1.558   5.363   0.079
27169WAT     H181749   1.509   5.288   0.125
27169WAT     H281750   1.630   5.398   0.139
27170WAT      O81751   5.015   5.062   2.400
27170WAT     H181752   5.084   4.998   2.367
27170WAT     H281753   5.050   5.106   2.483
27171WAT      O81754   9.110   2.275   2.639
27171WAT     H181755   9.056   2.250   2.560
27171WAT     H281756   9.145   2.193   2.684
27172WAT      O81757   9.016   0.167   8.462
27172WAT     H181758   8.979   0.103   8.396
27172WAT     H281759   9.108   0.137   8.490
27173WAT      O81760   6.118   9.237   4.584
27173WAT     H181761   6.157   9.148   4.559
27173WAT     H281762   6.187   9.291   4.632
27174WAT      O81763   2.493   6.886   1.109
27174WAT     H181764   2.578   6.925   1.075
27174WAT     H281765   2.478   6.915   1.204
27175WAT      O81766   7.485   7.825   6.043
27175WAT     H181767   7.517   7.763   6.114
27175WAT     H281768   7.531   7.803   5.957
27176WAT      O81769   6.596   2.209   7.213
27176WAT     H181770   6.509   2.253   7.236
27176WAT     H281771   6.579   2.119   7.174
27177WAT      O81772   3.161   0.670   1.205
27177WAT     H181773   3.221   0.598   1.240
27177WAT     H281774   3.164   0.670   1.105
27178WAT      O81775   5.643   2.538   9.384
27178WAT     H181776   5.561   2.546   9.328
27178WAT     H281777   5.650   2.617   9.445
27179WAT      O81778   3.514   9.054   1.900
27179WAT     H181779   3.416   9.035   1.902
27179WAT     H281780   3.537   9.102   1.815
27180WAT      O81781   2.475   4.398   1.184
27180WAT     H181782   2.518   4.479   1.144
27180WAT     H281783   2.409   4.426   1.254
27181WAT      O81784   1.365   6.379   2.195
27181WAT     H181785   1.380   6.476   2.217
27181WAT     H281786   1.450   6.328   2.211
27182WAT      O81787   5.417   8.299   7.135
27182WAT     H181788   5.376   8.387   7.109
27182WAT     H281789   5.465   8.310   7.222
27183WAT      O81790   8.865   5.092   9.189
27183WAT     H181791   8.962   5.085   9.165
27183WAT     H281792   8.826   5.000   9.197
27184WAT      O81793   2.327   4.721   0.005
27184WAT     H181794   2.339   4.805  -0.048
27184WAT     H281795   2.248   4.731   0.066
27185WAT      O81796   9.326   1.429   5.896
27185WAT     H181797   9.291   1.346   5.939
27185WAT     H281798   9.420   1.414   5.866
27186WAT      O81799   6.808   1.638   1.245
27186WAT     H181800   6.760   1.710   1.296
27186WAT     H281801   6.770   1.631   1.153
27187WAT      O81802   2.049   9.084   6.404
27187WAT     H181803   2.029   9.017   6.332
27187WAT     H281804   2.109   9.042   6.472
27188WAT      O81805   8.747   1.306   2.381
27188WAT     H181806   8.685   1.227   2.385
27188WAT     H281807   8.790   1.318   2.471
27189WAT      O81808   4.995   8.745   9.793
27189WAT     H181809   4.949   8.794   9.719
27189WAT     H281810   4.982   8.794   9.879
27190WAT      O81811   1.280   9.203   8.525
27190WAT     H181812   1.213   9.146   8.573
27190WAT     H281813   1.280   9.180   8.428
27191WAT      O81814   0.209   2.463   6.138
27191WAT     H181815   0.193   2.558   6.110
27191WAT     H281816   0.306   2.441   6.128
27192WAT      O81817   5.187   7.185   1.810
27192WAT     H181818   5.212   7.130   1.730
27192WAT     H281819   5.139   7.268   1.780
27193WAT      O81820   0.937   0.249   6.922
27193WAT     H181821   0.930   0.213   6.828
27193WAT     H281822   0.990   0.334   6.921
27194WAT      O81823   6.950   1.550   8.479
27194WAT     H181824   6.877   1.617   8.496
27194WAT     H281825   6.975   1.506   8.565
27195WAT      O81826   9.591   8.724   5.410
27195WAT     H181827   9.540   8.741   5.495
27195WAT     H281828   9.674   8.671   5.431
27196WAT      O81829   8.193   4.905   4.849
27196WAT     H181830   8.166   5.001   4.847
27196WAT     H281831   8.238   4.885   4.936
27197WAT      O81832   0.009   3.304   5.171
27197WAT     H181833   0.009   3.400   5.143
27197WAT     H281834   0.066   3.251   5.108
27198WAT      O81835   8.766   1.180   9.486
27198WAT     H181836   8.855   1.225   9.495
27198WAT     H281837   8.754   1.148   9.392
27199WAT      O81838   2.007   1.281   2.037
27199WAT     H181839   2.079   1.340   2.001
27199WAT     H281840   1.968   1.227   1.962
27200WAT      O81841   3.991   9.325   3.489
27200WAT     H181842   4.021   9.341   3.395
27200WAT     H281843   4.013   9.405   3.545
27201WAT      O81844   5.359   8.081   8.086
27201WAT     H181845   5.275   8.136   8.086
27201WAT     H281846   5.335   7.984   8.095
27202WAT      O81847   7.375   3.107   7.984
27202WAT     H181848   7.455   3.133   8.037
27202WAT     H281849   7.298   3.167   8.008
27203WAT      O81850   1.467   9.168   5.132
27203WAT     H181851   1.540   9.235   5.141
27203WAT     H281852   1.401   9.200   5.063
27204WAT      O81853   0.415   7.532   2.167
27204WAT     H181854   0.356   7.605   2.199
27204WAT     H281855   0.493   7.571   2.118
27205WAT      O81856   0.979   2.162   2.306
27205WAT     H181857   0.970   2.090   2.237
27205WAT     H281858   0.890   2.204   2.323
27206WAT      O81859   9.662   6.806   1.120
27206WAT     H181860   9.595   6.839   1.187
27206WAT     H281861   9.724   6.881   1.096
27207WAT      O81862   7.625   4.576   2.811
27207WAT     H181863   7.701   4.511   2.807
27207WAT     H281864   7.541   4.526   2.837
27208WAT      O81865   6.430   8.095   4.148
27208WAT     H181866   6.482   8.014   4.121
27208WAT     H281867   6.382   8.077   4.235
27209WAT      O81868   0.409   3.844   7.541
27209WAT     H181869   0.466   3.809   7.615
27209WAT     H281870   0.320   3.871   7.577
27210WAT      O81871   4.711   1.073   1.644
27210WAT     H181872   4.644   1.140   1.676
27210WAT     H281873   4.748   1.103   1.555
27211WAT      O81874   1.732   1.248   6.823
27211WAT     H181875   1.735   1.232   6.725
27211WAT     H281876   1.822   1.277   6.855
27212WAT      O81877   2.068   5.717   2.782
27212WAT     H181878   1.992   5.770   2.819
27212WAT     H281879   2.154   5.754   2.818
27213WAT      O81880   7.817   0.444   7.288
27213WAT     H181881   7.845   0.451   7.192
27213WAT     H281882   7.734   0.389   7.295
27214WAT      O81883   9.076   5.568   8.728
27214WAT     H181884   8.992   5.589   8.779
27214WAT     H281885   9.053   5.513   8.648
27215WAT      O81886   9.341   5.313   2.915
27215WAT     H181887   9.290   5.275   2.838
27215WAT     H281888   9.421   5.255   2.934
27216WAT      O81889   5.097   3.150   4.191
27216WAT     H181890   5.032   3.137   4.116
27216WAT     H281891   5.188   3.165   4.154
27217WAT      O81892   4.499   8.345   1.018
27217WAT     H181893   4.599   8.345   1.015
27217WAT     H281894   4.464   8.338   0.924
27218WAT      O81895   9.439   0.723   3.310
27218WAT     H181896   9.402   0.800   3.259
27218WAT     H281897   9.378   0.701   3.386
27219WAT      O81898   9.526   5.071   8.818
27219WAT     H181899   9.510   5.169   8.833
27219WAT     H281900   9.595   5.059   8.748
27220WAT      O81901   1.465   3.367   4.592
27220WAT     H181902   1.516   3.448   4.622
27220WAT     H281903   1.424   3.323   4.672
27221WAT      O81904   9.574   7.184   2.783
27221WAT     H181905   9.653   7.158   2.838
27221WAT     H281906   9.596   7.176   2.686
27222WAT      O81907   8.805   2.740   7.393
27222WAT     H181908   8.852   2.823   7.362
27222WAT     H281909   8.742   2.709   7.322
27223WAT      O81910   9.807   2.000   3.408
27223WAT     H181911   9.733   2.017   3.343
27223WAT     H281912   9.788   2.048   3.494
27224WAT      O81913   4.273   1.521   4.828
27224WAT     H181914   4.232   1.533   4.738
27224WAT     H281915   4.332   1.440   4.828
27225WAT      O81916   8.966   8.508   2.904
27225WAT     H181917   8.873   8.533   2.930
27225WAT     H281918   9.007   8.582   2.851
27226WAT      O81919   5.068   4.952   8.497
27226WAT     H181920   5.115   4.977   8.413
27226WAT     H281921   5.093   5.017   8.570
27227WAT      O81922   4.523   1.275   2.972
27227WAT     H181923   4.436   1.226   2.981
27227WAT     H281924   4.594   1.225   3.022
27228WAT      O81925   2.931   2.238   3.134
27228WAT     H181926   2.938   2.337   3.130
27228WAT     H281927   3.023   2.198   3.130
27229WAT      O81928   6.258   0.052   5.665
27229WAT     H181929   6.223   0.111   5.738
27229WAT     H281930   6.182  -0.002   5.627
27230WAT      O81931   7.893   2.901   9.579
27230WAT     H181932   7.955   2.951   9.519
27230WAT     H281933   7.945   2.834   9.632
27231WAT      O81934   8.365   3.626   1.101
27231WAT     H181935   8.459   3.653   1.121
27231WAT     H281936   8.307   3.707   1.096
27232WAT      O81937   9.324   5.071   4.057
27232WAT     H181938   9.393   5.123   4.108
27232WAT     H281939   9.240   5.124   4.051
27233WAT      O81940   7.794   1.602   2.011
27233WAT     H181941   7.707   1.637   2.048
27233WAT     H281942   7.858   1.678   2.000
27234WAT      O81943   8.313   2.134   6.910
27234WAT     H181944   8.267   2.194   6.844
27234WAT     H281945   8.307   2.173   7.001
27235WAT      O81946   6.111   1.530   7.945
27235WAT     H181947   6.099   1.574   7.855
27235WAT     H281948   6.107   1.431   7.933
27236WAT      O81949   0.143   6.276   8.012
27236WAT     H181950   0.131   6.317   7.921
27236WAT     H281951   0.121   6.344   8.081
27237WAT      O81952   9.201   9.812   4.754
27237WAT     H181953   9.146   9.734   4.727
27237WAT     H281954   9.289   9.781   4.790
27238WAT      O81955   2.813   9.267   4.443
27238WAT     H181956   2.719   9.264   4.477
27238WAT     H281957   2.813   9.259   4.343
27239WAT      O81958   9.614   5.554   3.368
27239WAT     H181959   9.521   5.517   3.372
27239WAT     H281960   9.650   5.543   3.275
27240WAT      O81961   5.741   8.970   8.918
27240WAT     H181962   5.660   9.026   8.934
27240WAT     H281963   5.763   8.920   9.002
27241WAT      O81964   7.581   7.882   9.232
27241WAT     H181965   7.618   7.895   9.324
27241WAT     H281966   7.566   7.785   9.215
27242WAT      O81967   2.930   1.225   4.766
27242WAT     H181968   2.833   1.247   4.767
27242WAT     H281969   2.948   1.148   4.827
27243WAT      O81970   8.031   4.502   6.534
27243WAT     H181971   8.009   4.434   6.464
27243WAT     H281972   7.967   4.579   6.528
27244WAT      O81973   5.522   6.834   3.699
27244WAT     H181974   5.551   6.743   3.730
27244WAT     H281975   5.572   6.904   3.751
27245WAT      O81976   9.261   6.855   5.985
27245WAT     H181977   9.208   6.770   5.993
27245WAT     H281978   9.357   6.832   5.973
27246WAT      O81979   7.582   8.206   7.685
27246WAT     H181980   7.514   8.200   7.758
27246WAT     H281981   7.566   8.287   7.630
27247WAT      O81982   2.054   5.635   6.901
27247WAT     H181983   1.987   5.607   6.833
27247WAT     H281984   2.075   5.732   6.889
27248WAT      O81985   7.783   0.822   9.550
27248WAT     H181986   7.738   0.735   9.526
27248WAT     H281987   7.764   0.844   9.645
27249WAT      O81988   0.503   3.292   7.794
27249WAT     H181989   0.572   3.233   7.836
27249WAT     H281990   0.445   3.238   7.734
27250WAT      O81991   9.373   1.487   7.008
27250WAT     H181992   9.432   1.422   6.959
27250WAT     H281993   9.430   1.549   7.062
27251WAT      O81994   2.210   0.886   3.680
27251WAT     H181995   2.262   0.814   3.725
27251WAT     H281996   2.243   0.975   3.710
27252WAT      O81997   8.091   3.751   5.797
27252WAT     H181998   8.162   3.707   5.742
27252WAT     H281999   8.091   3.712   5.889
27253WAT      O82000   7.736   6.452   3.393
27253WAT     H182001   7.824   6.446   3.440
27253WAT     H282002   7.694   6.540   3.413
27254WAT      O82003   3.039   5.638   9.288
27254WAT     H182004   3.023   5.563   9.352
27254WAT     H282005   3.075   5.718   9.338
27255WAT      O82006   7.324   7.242   3.278
27255WAT     H182007   7.384   7.194   3.342
27255WAT     H282008   7.377   7.275   3.201
27256WAT      O82009   6.970   3.902   2.086
27256WAT     H182010   6.874   3.916   2.112
27256WAT     H282011   6.975   3.838   2.010
27257WAT      O82012   0.143   7.485   8.173
27257WAT     H182013   0.109   7.418   8.107
27257WAT     H282014   0.175   7.438   8.255
27258WAT      O82015   2.431   5.346   0.413
27258WAT     H182016   2.473   5.350   0.504
27258WAT     H282017   2.333   5.366   0.421
27259WAT      O82018   3.102   6.412   9.875
27259WAT     H182019   3.117   6.422   9.974
27259WAT     H282020   3.083   6.316   9.855
27260WAT      O82021   3.828   3.410   3.105
27260WAT     H182022   3.879   3.373   3.182
27260WAT     H282023   3.872   3.494   3.073
27261WAT      O82024   9.253   9.208   9.111
27261WAT     H182025   9.227   9.304   9.115
27261WAT     H282026   9.272   9.174   9.203
27262WAT      O82027   3.569   2.943   4.493
27262WAT     H182028   3.645   2.892   4.534
27262WAT     H282029   3.534   3.009   4.560
27263WAT      O82030   3.120   4.585   6.761
27263WAT     H182031   3.116   4.542   6.670
27263WAT     H282032   3.201   4.642   6.767
27264WAT      O82033   8.139   6.057   0.814
27264WAT     H182034   8.207   6.130   0.822
27264WAT     H282035   8.186   5.969   0.810
27265WAT      O82036   7.363   4.208   3.961
27265WAT     H182037   7.373   4.135   3.894
27265WAT     H282038   7.443   4.212   4.020
27266WAT      O82039   2.913   3.987   0.063
27266WAT     H182040   2.902   3.914   0.132
27266WAT     H282041   2.855   3.966  -0.016
27267WAT      O82042   9.528   2.175   5.495
27267WAT     H182043   9.562   2.151   5.403
27267WAT     H282044   9.443   2.226   5.486
27268WAT      O82045   3.490   3.870   6.443
27268WAT     H182046   3.549   3.851   6.521
27268WAT     H282047   3.477   3.969   6.435
27269WAT      O82048   6.175   9.774   6.612
27269WAT     H182049   6.257   9.774   6.669
27269WAT     H282050   6.158   9.867   6.578
27270WAT      O82051   0.054   4.817   3.744
27270WAT     H182052  -0.041   4.848   3.751
27270WAT     H282053   0.098   4.824   3.834
27271WAT      O82054   6.381   5.625   8.599
27271WAT     H182055   6.418   5.713   8.626
27271WAT     H282056   6.288   5.638   8.563
27272WAT      O82057   6.183   4.487   4.557
27272WAT     H182058   6.133   4.509   4.473
27272WAT     H282059   6.175   4.562   4.622
27273WAT      O82060   8.964   9.462   3.367
27273WAT     H182061   9.027   9.526   3.411
27273WAT     H282062   8.873   9.472   3.407
27274WAT      O82063   0.066   2.639   9.478
27274WAT     H182064   0.013   2.683   9.405
27274WAT     H282065   0.151   2.603   9.440
27275WAT      O82066   2.813   8.932   0.181
27275WAT     H182067   2.885   8.995   0.153
27275WAT     H282068   2.764   8.899   0.100
27276WAT      O82069   1.666   2.393   5.577
27276WAT     H182070   1.691   2.487   5.554
27276WAT     H282071   1.669   2.381   5.676
27277WAT      O82072   9.043   4.086   6.550
27277WAT     H182073   8.975   4.154   6.523
27277WAT     H282074   9.128   4.102   6.499
27278WAT      O82075   7.580   1.281   0.408
27278WAT     H182076   7.551   1.238   0.494
27278WAT     H282077   7.675   1.312   0.417
27279WAT      O82078   2.870   4.963   1.655
27279WAT     H182079   2.892   4.921   1.743
27279WAT     H282080   2.834   5.055   1.670
27280WAT      O82081   3.503   6.415   4.008
27280WAT     H182082   3.471   6.425   4.102
27280WAT     H282083   3.450   6.475   3.948
27281WAT      O82084   0.130   8.146   5.599
27281WAT     H182085   0.038   8.176   5.622
27281WAT     H282086   0.143   8.052   5.629
27282WAT      O82087   3.882   1.513   6.287
27282WAT     H182088   3.876   1.460   6.202
27282WAT     H282089   3.805   1.576   6.292
27283WAT      O82090   0.855   5.126   0.816
27283WAT     H182091   0.826   5.215   0.853
27283WAT     H282092   0.951   5.131   0.789
27284WAT      O82093   7.423   8.996   9.860
27284WAT     H182094   7.502   8.980   9.801
27284WAT     H282095   7.341   8.957   9.817
27285WAT      O82096   9.110   7.692   1.768
27285WAT     H182097   9.151   7.708   1.857
27285WAT     H282098   9.018   7.731   1.767
27286WAT      O82099   0.825   2.679   2.479
27286WAT     H182100   0.734   2.662   2.516
27286WAT     H282101   0.820   2.754   2.413
27287WAT      O82102   2.086   8.921   7.378
27287WAT     H182103   2.007   8.982   7.393
27287WAT     H282104   2.071   8.869   7.294
27288WAT      O82105   7.068   4.394   0.101
27288WAT     H182106   6.971   4.399   0.078
27288WAT     H282107   7.120   4.454   0.040
27289WAT      O82108   7.672   4.777   8.875
27289WAT     H182109   7.650   4.700   8.934
27289WAT     H282110   7.589   4.829   8.855
27290WAT      O82111   2.238   6.653   9.690
27290WAT     H182112   2.183   6.728   9.654
27290WAT     H282113   2.190   6.611   9.767
27291WAT      O82114   0.400   9.023   3.403
27291WAT     H182115   0.390   8.944   3.464
27291WAT     H282116   0.441   8.993   3.316
27292WAT      O82117   2.178   2.899   4.583
27292WAT     H182118   2.218   2.980   4.541
27292WAT     H282119   2.201   2.897   4.680
27293WAT      O82120   3.851   0.004   3.380
27293WAT     H182121   3.949   0.018   3.394
27293WAT     H282122   3.803   0.091   3.388
27294WAT      O82123   4.088   2.106   0.963
27294WAT     H182124   4.002   2.138   1.002
27294WAT     H282125   4.145   2.068   1.036
27295WAT      O82126   6.882   4.123   5.088
27295WAT     H182127   6.891   4.222   5.076
27295WAT     H282128   6.793   4.102   5.129
27296WAT      O82129   0.104   4.423   8.663
27296WAT     H182130   0.058   4.441   8.750
27296WAT     H282131   0.203   4.420   8.677
27297WAT      O82132   4.757   0.313   6.085
27297WAT     H182133   4.856   0.303   6.071
27297WAT     H282134   4.719   0.229   6.122
27298WAT      O82135   1.556   2.847   8.768
27298WAT     H182136   1.464   2.865   8.803
27298WAT     H282137   1.550   2.827   8.670
27299WAT      O82138   7.167   8.251   1.154
27299WAT     H182139   7.176   8.195   1.071
27299WAT     H282140   7.106   8.328   1.137
27300WAT      O82141   6.953   8.204   0.583
27300WAT     H182142   7.003   8.246   0.508
27300WAT     H282143   6.991   8.235   0.670
27301WAT      O82144   0.937   5.378   7.130
27301WAT     H182145   0.904   5.286   7.109
27301WAT     H282146   1.036   5.383   7.114
27302WAT      O82147   7.791   9.576   1.080
27302WAT     H182148   7.814   9.511   1.153
27302WAT     H282149   7.707   9.546   1.035
27303WAT      O82150   6.135   9.770   8.369
27303WAT     H182151   6.047   9.810   8.398
27303WAT     H282152   6.138   9.674   8.397
27304WAT      O82153   4.958   2.503   7.000
27304WAT     H182154   4.999   2.529   6.913
27304WAT     H282155   4.927   2.585   7.048
27305WAT      O82156   1.423   7.674   8.645
27305WAT     H182157   1.366   7.756   8.639
27305WAT     H282158   1.466   7.670   8.735
27306WAT      O82159   2.195   5.837   3.632
27306WAT     H182160   2.171   5.775   3.557
27306WAT     H282161   2.285   5.812   3.668
27307WAT      O82162   9.844   7.400   1.136
27307WAT     H182163   9.858   7.489   1.093
27307WAT     H282164   9.750   7.369   1.119
27308WAT      O82165   7.733   0.836   5.976
27308WAT     H182166   7.792   0.804   6.050
27308WAT     H282167   7.669   0.764   5.950
27309WAT      O82168   4.181   2.825   5.633
27309WAT     H182169   4.218   2.775   5.712
27309WAT     H282170   4.158   2.918   5.661
27310WAT      O82171   3.843   0.147   4.921
27310WAT     H182172   3.779   0.073   4.941
27310WAT     H282173   3.796   0.235   4.928
27311WAT      O82174   7.391   5.432   5.214
27311WAT     H182175   7.477   5.400   5.254
27311WAT     H282176   7.338   5.354   5.181
27312WAT      O82177   2.761   6.163   3.676
27312WAT     H182178   2.825   6.133   3.746
27312WAT     H282179   2.744   6.088   3.612
27313WAT      O82180   9.743   6.482   0.367
27313WAT     H182181   9.829   6.438   0.344
27313WAT     H282182   9.673   6.456   0.299
27314WAT      O82183   1.560   0.482   8.655
27314WAT     H182184   1.483   0.489   8.592
27314WAT     H282185   1.574   0.386   8.679
27315WAT      O82186   2.049   9.096   1.232
27315WAT     H182187   1.989   9.167   1.269
27315WAT     H282188   2.145   9.126   1.240
27316WAT      O82189   7.374   8.722   8.877
27316WAT     H182190   7.290   8.744   8.826
27316WAT     H282191   7.446   8.696   8.813
27317WAT      O82192   9.099   5.439   6.958
27317WAT     H182193   9.128   5.534   6.970
27317WAT     H282194   9.002   5.436   6.936
27318WAT      O82195   8.943   8.870   2.314
27318WAT     H182196   8.998   8.905   2.389
27318WAT     H282197   8.947   8.771   2.313
27319WAT      O82198   3.902   3.300   5.342
27319WAT     H182199   3.881   3.275   5.247
27319WAT     H282200   3.962   3.380   5.343
27320WAT      O82201   5.403   4.485   0.412
27320WAT     H182202   5.424   4.529   0.500
27320WAT     H282203   5.308   4.454   0.411
27321WAT      O82204   6.397   5.118   0.489
27321WAT     H182205   6.319   5.126   0.427
27321WAT     H282206   6.429   5.024   0.491
27322WAT      O82207   3.987   0.174   6.517
27322WAT     H182208   3.961   0.084   6.483
27322WAT     H282209   3.911   0.237   6.505
27323WAT      O82210   7.612   7.837   3.873
27323WAT     H182211   7.600   7.745   3.835
27323WAT     H282212   7.703   7.871   3.848
27324WAT      O82213   9.174   0.676   8.491
27324WAT     H182214   9.132   0.746   8.433
27324WAT     H282215   9.106   0.605   8.513
27325WAT      O82216   4.752   5.790   9.614
27325WAT     H182217   4.695   5.713   9.645
27325WAT     H282218   4.694   5.870   9.601
27326WAT      O82219   2.441   3.375   0.097
27326WAT     H182220   2.341   3.370   0.087
27326WAT     H282221   2.485   3.354   0.010
27327WAT      O82222   0.154   0.274   5.586
27327WAT     H182223   0.091   0.220   5.642
27327WAT     H282224   0.107   0.304   5.503
27328WAT      O82225   3.259   4.919   2.852
27328WAT     H182226   3.159   4.928   2.849
27328WAT     H282227   3.283   4.823   2.865
27329WAT      O82228   5.802   4.766   8.174
27329WAT     H182229   5.790   4.693   8.241
27329WAT     H282230   5.878   4.742   8.112
27330WAT      O82231   9.154   0.182   0.198
27330WAT     H182232   9.094   0.129   0.258
27330WAT     H282233   9.192   0.259   0.249
27331WAT      O82234   3.257   0.959   6.282
27331WAT     H182235   3.276   1.054   6.305
27331WAT     H282236   3.288   0.941   6.188
27332WAT      O82237   7.177   8.430   0.190
27332WAT     H182238   7.256   8.411   0.131
27332WAT     H282239   7.094   8.395   0.147
27333WAT      O82240   3.629   5.127   2.959
27333WAT     H182241   3.567   5.155   2.886
27333WAT     H282242   3.707   5.191   2.962
27334WAT      O82243   9.081   0.792   0.802
27334WAT     H182244   9.157   0.841   0.844
27334WAT     H282245   9.060   0.831   0.713
27335WAT      O82246   0.842   9.426   5.829
27335WAT     H182247   0.760   9.371   5.847
27335WAT     H282248   0.821   9.523   5.842
27336WAT      O82249   2.180   3.484   8.803
27336WAT     H182250   2.226   3.452   8.886
27336WAT     H282251   2.120   3.413   8.768
27337WAT      O82252   1.820   5.413   5.781
27337WAT     H182253   1.785   5.337   5.726
27337WAT     H282254   1.920   5.417   5.772
27338WAT      O82255   9.770   5.952   7.015
27338WAT     H182256   9.683   5.998   6.996
27338WAT     H282257   9.821   6.005   7.082
27339WAT      O82258   6.077   7.026   6.024
27339WAT     H182259   6.035   6.940   6.054
27339WAT     H282260   6.063   7.038   5.926
27340WAT      O82261   7.508   8.317   3.725
27340WAT     H182262   7.465   8.404   3.747
27340WAT     H282263   7.442   8.259   3.676
27341WAT      O82264   7.241   5.553   1.223
27341WAT     H182265   7.202   5.551   1.315
27341WAT     H282266   7.213   5.637   1.177
27342WAT      O82267   5.893   2.560   0.697
27342WAT     H182268   5.955   2.628   0.658
27342WAT     H282269   5.804   2.602   0.716
27343WAT      O82270   7.741   6.114   3.112
27343WAT     H182271   7.646   6.097   3.142
27343WAT     H282272   7.802   6.056   3.165
27344WAT      O82273   3.217   9.786   9.213
27344WAT     H182274   3.295   9.800   9.273
27344WAT     H282275   3.136   9.765   9.268
27345WAT      O82276   9.546   2.208   7.604
27345WAT     H182277   9.573   2.300   7.579
27345WAT     H282278   9.466   2.212   7.664
27346WAT      O82279   3.032   9.538   9.230
27346WAT     H182280   3.128   9.514   9.217
27346WAT     H282281   3.023   9.596   9.311
27347WAT      O82282   0.667   0.899   7.694
27347WAT     H182283   0.667   0.834   7.770
27347WAT     H282284   0.755   0.946   7.690
27348WAT      O82285   7.933   0.575   1.882
27348WAT     H182286   8.025   0.564   1.845
27348WAT     H282287   7.913   0.499   1.944
27349WAT      O82288   4.880   5.071   7.641
27349WAT     H182289   4.793   5.109   7.671
27349WAT     H282290   4.872   4.972   7.629
27350WAT      O82291   8.403   9.090   7.414
27350WAT     H182292   8.320   9.034   7.412
27350WAT     H282293   8.397   9.161   7.344
27351WAT      O82294   0.145   1.343   2.839
27351WAT     H182295   0.106   1.251   2.834
27351WAT     H282296   0.114   1.387   2.924
27352WAT      O82297   6.412   2.703   4.263
27352WAT     H182298   6.339   2.700   4.195
27352WAT     H282299   6.498   2.673   4.220
27353WAT      O82300   1.410   4.238   2.288
27353WAT     H182301   1.332   4.263   2.230
27353WAT     H282302   1.432   4.141   2.275
27354WAT      O82303   2.669   4.890   6.354
27354WAT     H182304   2.753   4.928   6.314
27354WAT     H282305   2.623   4.833   6.286
27355WAT      O82306   2.355   7.752   9.646
27355WAT     H182307   2.368   7.851   9.653
27355WAT     H282308   2.437   7.706   9.681
27356WAT      O82309   4.932   3.955   6.948
27356WAT     H182310   4.946   3.875   7.006
27356WAT     H282311   4.841   3.951   6.907
27357WAT      O82312   3.519   5.708   0.796
27357WAT     H182313   3.558   5.756   0.875
27357WAT     H282314   3.420   5.716   0.798
27358WAT      O82315   3.690   5.906   7.819
27358WAT     H182316   3.678   6.003   7.843
27358WAT     H282317   3.784   5.878   7.840
27359WAT      O82318   8.716   6.322   0.563
27359WAT     H182319   8.636   6.318   0.504
27359WAT     H282320   8.795   6.352   0.510
27360WAT      O82321   8.840   9.558   0.190
27360WAT     H182322   8.805   9.500   0.264
27360WAT     H282323   8.782   9.545   0.109
27361WAT      O82324   2.329   2.592   3.612
27361WAT     H182325   2.368   2.561   3.526
27361WAT     H282326   2.323   2.692   3.612
27362WAT      O82327   0.071   3.162   1.924
27362WAT     H182328   0.088   3.261   1.931
27362WAT     H282329   0.072   3.122   2.015
27363WAT      O82330   2.289   7.321   7.457
27363WAT     H182331   2.325   7.266   7.533
27363WAT     H282332   2.218   7.269   7.410
27364WAT      O82333   5.791   2.394   1.933
27364WAT     H182334   5.876   2.434   1.968
27364WAT     H282335   5.775   2.426   1.839
27365WAT      O82336   8.325   6.516   1.520
27365WAT     H182337   8.322   6.417   1.502
27365WAT     H282338   8.281   6.535   1.608
27366WAT      O82339   0.105   7.503   3.208
27366WAT     H182340   0.192   7.464   3.237
27366WAT     H282341   0.117   7.548   3.119
27367WAT      O82342   8.607   6.725   6.736
27367WAT     H182343   8.627   6.805   6.791
27367WAT     H282344   8.683   6.708   6.672
27368WAT      O82345   8.932   7.289   6.552
27368WAT     H182346   8.966   7.347   6.478
27368WAT     H282347   9.008   7.239   6.593
27369WAT      O82348   3.118   8.857   5.573
27369WAT     H182349   3.119   8.759   5.591
27369WAT     H282350   3.023   8.886   5.556
27370WAT      O82351   5.244   7.036   1.157
27370WAT     H182352   5.330   6.991   1.180
27370WAT     H282353   5.257   7.135   1.152
27371WAT      O82354   4.235   8.890   1.994
27371WAT     H182355   4.265   8.956   2.063
27371WAT     H282356   4.305   8.820   1.982
27372WAT      O82357   2.151   1.449   0.502
27372WAT     H182358   2.233   1.422   0.452
27372WAT     H282359   2.081   1.479   0.437
27373WAT      O82360   3.267   8.133   5.743
27373WAT     H182361   3.296   8.042   5.716
27373WAT     H282362   3.346   8.194   5.745
27374WAT      O82363   2.022   8.421   1.505
27374WAT     H182364   1.986   8.394   1.594
27374WAT     H282365   2.097   8.486   1.517
27375WAT      O82366   9.855   6.664   8.972
27375WAT     H182367   9.838   6.652   9.070
27375WAT     H282368   9.923   6.736   8.958
27376WAT      O82369   3.117   5.366   6.563
27376WAT     H182370   3.098   5.354   6.661
27376WAT     H282371   3.205   5.323   6.541
27377WAT      O82372   5.819   1.961   2.899
27377WAT     H182373   5.856   1.881   2.851
27377WAT     H282374   5.741   1.997   2.847
27378WAT      O82375   1.175   7.016   0.263
27378WAT     H182376   1.177   7.085   0.191
27378WAT     H282377   1.199   6.927   0.225
27379WAT      O82378   5.243   6.910   8.478
27379WAT     H182379   5.184   6.898   8.557
27379WAT     H282380   5.250   6.824   8.428
27380WAT      O82381   7.310   8.098   8.227
27380WAT     H182382   7.222   8.094   8.178
27380WAT     H282383   7.300   8.054   8.316
27381WAT      O82384   6.471   4.539   5.364
27381WAT     H182385   6.477   4.623   5.417
27381WAT     H282386   6.374   4.514   5.353
27382WAT      O82387   3.966   6.839   6.589
27382WAT     H182388   4.052   6.889   6.579
27382WAT     H282389   3.982   6.753   6.636
27383WAT      O82390   8.121   1.519   7.060
27383WAT     H182391   8.103   1.612   7.029
27383WAT     H282392   8.048   1.489   7.122
27384WAT      O82393   0.075   1.093   1.703
27384WAT     H182394  -0.001   1.077   1.641
27384WAT     H282395   0.082   1.017   1.768
27385WAT      O82396   1.721   7.651   4.219
27385WAT     H182397   1.770   7.716   4.160
27385WAT     H282398   1.627   7.643   4.188
27386WAT      O82399   9.334   6.933   8.237
27386WAT     H182400   9.265   6.990   8.193
27386WAT     H282401   9.313   6.836   8.219
27387WAT      O82402   9.462   1.988   8.349
27387WAT     H182403   9.484   1.908   8.293
27387WAT     H282404   9.378   2.031   8.314
27388WAT      O82405   6.734   0.867   8.919
27388WAT     H182406   6.643   0.904   8.899
27388WAT     H282407   6.799   0.900   8.850
27389WAT      O82408   2.619   5.651   6.933
27389WAT     H182409   2.626   5.553   6.912
27389WAT     H282410   2.634   5.704   6.849
27390WAT      O82411   9.204   0.097   7.630
27390WAT     H182412   9.297   0.087   7.597
27390WAT     H282413   9.202   0.164   7.705
27391WAT      O82414   1.426   4.448   8.904
27391WAT     H182415   1.346   4.451   8.964
27391WAT     H282416   1.491   4.380   8.937
27392WAT      O82417   7.769   9.796   5.888
27392WAT     H182418   7.825   9.794   5.805
27392WAT     H282419   7.770   9.706   5.932
27393WAT      O82420   6.763   3.382   7.867
27393WAT     H182421   6.711   3.334   7.938
27393WAT     H282422   6.749   3.337   7.779
27394WAT      O82423   7.896   7.654   1.770
27394WAT     H182424   7.913   7.751   1.755
27394WAT     H282425   7.845   7.617   1.693
27395WAT      O82426   2.195   3.012   0.303
27395WAT     H182427   2.223   2.929   0.255
27395WAT     H282428   2.104   3.039   0.271
27396WAT      O82429   8.297   3.651   4.533
27396WAT     H182430   8.388   3.653   4.574
27396WAT     H282431   8.292   3.578   4.465
27397WAT      O82432   4.678   4.687   2.291
27397WAT     H182433   4.668   4.779   2.252
27397WAT     H282434   4.590   4.657   2.328
27398WAT      O82435   5.160   5.238   4.131
27398WAT     H182436   5.084   5.233   4.067
27398WAT     H282437   5.145   5.173   4.206
27399WAT      O82438   1.375   8.285   2.383
27399WAT     H182439   1.465   8.329   2.372
27399WAT     H282440   1.313   8.349   2.427
27400WAT      O82441   7.121   6.535   6.781
27400WAT     H182442   7.098   6.521   6.685
27400WAT     H282443   7.192   6.606   6.788
27401WAT      O82444   1.924   5.104   0.959
27401WAT     H182445   1.828   5.077   0.961
27401WAT     H282446   1.969   5.072   1.043
27402WAT      O82447   8.259   5.959   7.942
27402WAT     H182448   8.217   6.045   7.969
27402WAT     H282449   8.302   5.916   8.021
27403WAT      O82450   6.070   6.588   2.924
27403WAT     H182451   6.006   6.516   2.895
27403WAT     H282452   6.021   6.654   2.981
27404WAT      O82453   1.672   6.589   8.211
27404WAT     H182454   1.702   6.493   8.206
27404WAT     H282455   1.620   6.603   8.295
27405WAT      O82456   6.514   6.200   0.381
27405WAT     H182457   6.473   6.196   0.472
27405WAT     H282458   6.608   6.234   0.388
27406WAT      O82459   5.164   9.617   6.245
27406WAT     H182460   5.202   9.600   6.154
27406WAT     H282461   5.191   9.542   6.306
27407WAT      O82462   8.292   5.005   8.128
27407WAT     H182463   8.309   5.012   8.226
27407WAT     H282464   8.379   5.003   8.079
27408WAT      O82465   6.858   7.229   6.847
27408WAT     H182466   6.872   7.164   6.772
27408WAT     H282467   6.917   7.308   6.833
27409WAT      O82468   4.765   1.764   1.557
27409WAT     H182469   4.855   1.807   1.566
27409WAT     H282470   4.748   1.706   1.637
27410WAT      O82471   7.657   5.953   6.847
27410WAT     H182472   7.702   6.039   6.823
27410WAT     H282473   7.571   5.945   6.797
27411WAT      O82474   7.627   1.641   7.073
27411WAT     H182475   7.712   1.656   7.123
27411WAT     H282476   7.555   1.698   7.113
27412WAT      O82477   9.705   0.097   5.291
27412WAT     H182478   9.737   0.086   5.385
27412WAT     H282479   9.753   0.173   5.248
27413WAT      O82480   6.924   7.123   3.871
27413WAT     H182481   6.868   7.144   3.791
27413WAT     H282482   6.934   7.024   3.880
27414WAT      O82483   2.030   9.758   6.491
27414WAT     H182484   1.982   9.825   6.548
27414WAT     H282485   2.111   9.726   6.538
27415WAT      O82486   1.944   2.315   9.083
27415WAT     H182487   1.953   2.215   9.074
27415WAT     H282488   2.034   2.358   9.073
27416WAT      O82489   1.085   9.802   1.851
27416WAT     H182490   1.164   9.781   1.909
27416WAT     H282491   1.114   9.857   1.773
27417WAT      O82492   2.204   4.239   1.321
27417WAT     H182493   2.190   4.334   1.346
27417WAT     H282494   2.185   4.226   1.224
27418WAT      O82495   4.691   8.829   2.702
27418WAT     H182496   4.706   8.919   2.742
27418WAT     H282497   4.731   8.826   2.611
27419WAT      O82498   3.137   4.175   5.294
27419WAT     H182499   3.117   4.111   5.368
27419WAT     H282500   3.236   4.192   5.291
27420WAT      O82501   7.330   6.063   4.700
27420WAT     H182502   7.237   6.071   4.737
27420WAT     H282503   7.374   6.153   4.701
27421WAT      O82504   0.801   0.269   2.205
27421WAT     H182505   0.802   0.321   2.290
27421WAT     H282506   0.709   0.233   2.188
27422WAT      O82507   9.149   6.369   1.641
27422WAT     H182508   9.171   6.448   1.699
27422WAT     H282509   9.050   6.363   1.629
27423WAT      O82510   0.373   8.203   2.694
27423WAT     H182511   0.380   8.116   2.742
27423WAT     H282512   0.297   8.201   2.630
27424WAT      O82513   5.350   0.843   1.369
27424WAT     H182514   5.257   0.834   1.406
27424WAT     H282515   5.381   0.754   1.336
27425WAT      O82516   6.202   0.448   6.684
27425WAT     H182517   6.119   0.499   6.705
27425WAT     H282518   6.274   0.511   6.656
27426WAT      O82519   8.117   5.073   6.502
27426WAT     H182520   8.138   4.975   6.495
27426WAT     H282521   8.066   5.089   6.587
27427WAT      O82522   0.391   2.950   4.412
27427WAT     H182523   0.440   2.971   4.497
27427WAT     H282524   0.293   2.967   4.425
27428WAT      O82525   0.293   1.964   8.713
27428WAT     H182526   0.381   1.920   8.733
27428WAT     H282527   0.276   1.961   8.615
27429WAT      O82528   4.437   2.597   7.154
27429WAT     H182529   4.397   2.536   7.085
27429WAT     H282530   4.488   2.670   7.108
27430WAT      O82531   8.534   4.128   3.998
27430WAT     H182532   8.489   4.043   4.026
27430WAT     H282533   8.631   4.125   4.023
27431WAT      O82534   5.560   6.223   5.008
27431WAT     H182535   5.476   6.238   4.955
27431WAT     H282536   5.542   6.158   5.082
27432WAT      O82537   4.061   5.036   5.648
27432WAT     H182538   3.969   5.059   5.679
27432WAT     H282539   4.056   4.984   5.563
27433WAT      O82540   5.443   4.945   7.108
27433WAT     H182541   5.450   4.964   7.010
27433WAT     H282542   5.465   4.849   7.126
27434WAT      O82543   6.088   1.402   7.376
27434WAT     H182544   6.081   1.332   7.447
27434WAT     H282545   6.154   1.373   7.307
27435WAT      O82546   2.958   9.724   2.644
27435WAT     H182547   2.865   9.692   2.626
27435WAT     H282548   2.999   9.666   2.715
27436WAT      O82549   9.746   8.918   5.281
27436WAT     H182550   9.773   8.982   5.353
27436WAT     H282551   9.698   8.840   5.322
27437WAT      O82552   5.201   0.146   6.171
27437WAT     H182553   5.191   0.245   6.174
27437WAT     H282554   5.195   0.109   6.264
27438WAT      O82555   6.368   2.463   7.319
27438WAT     H182556   6.323   2.468   7.408
27438WAT     H282557   6.305   2.493   7.248
27439WAT      O82558   4.445   1.289   4.812
27439WAT     H182559   4.438   1.190   4.796
27439WAT     H282560   4.430   1.308   4.908
27440WAT      O82561   2.787   3.322   9.152
27440WAT     H182562   2.818   3.379   9.075
27440WAT     H282563   2.750   3.237   9.117
27441WAT      O82564   7.692   2.811   1.193
27441WAT     H182565   7.658   2.754   1.267
27441WAT     H282566   7.737   2.892   1.231
27442WAT      O82567   4.298   4.069   3.280
27442WAT     H182568   4.231   4.053   3.207
27442WAT     H282569   4.323   3.982   3.322
27443WAT      O82570   0.028   2.555   1.823
27443WAT     H182571   0.024   2.537   1.921
27443WAT     H282572   0.000   2.649   1.805
27444WAT      O82573   6.058   4.166   6.002
27444WAT     H182574   6.044   4.117   6.089
27444WAT     H282575   6.003   4.122   5.931
27445WAT      O82576   9.296   5.020   0.143
27445WAT     H182577   9.254   4.934   0.114
27445WAT     H282578   9.234   5.096   0.122
27446WAT      O82579   4.459   2.508   6.360
27446WAT     H182580   4.540   2.494   6.416
27446WAT     H282581   4.484   2.501   6.263
27447WAT      O82582   3.826   9.245   5.530
27447WAT     H182583   3.888   9.294   5.591
27447WAT     H282584   3.778   9.310   5.471
27448WAT      O82585   5.045   5.915   4.459
27448WAT     H182586   4.946   5.924   4.462
27448WAT     H282587   5.087   5.992   4.508
27449WAT      O82588   6.184   3.244   7.983
27449WAT     H182589   6.125   3.320   7.954
27449WAT     H282590   6.127   3.169   8.017
27450WAT      O82591   6.380   2.853   9.032
27450WAT     H182592   6.444   2.910   9.084
27450WAT     H282593   6.365   2.767   9.080
27451WAT      O82594   6.213   2.167   2.582
27451WAT     H182595   6.233   2.073   2.558
27451WAT     H282596   6.234   2.183   2.679
27452WAT      O82597   1.239   2.595   4.788
27452WAT     H182598   1.311   2.529   4.808
27452WAT     H282599   1.158   2.573   4.843
27453WAT      O82600   6.131   9.689   1.227
27453WAT     H182601   6.207   9.732   1.276
27453WAT     H282602   6.156   9.677   1.131
27454WAT      O82603   0.772   8.183   9.676
27454WAT     H182604   0.726   8.094   9.678
27454WAT     H282605   0.826   8.190   9.593
27455WAT      O82606   8.258   3.460   4.350
27455WAT     H182607   8.163   3.450   4.322
27455WAT     H282608   8.304   3.372   4.345
27456WAT      O82609   8.221   6.687   8.212
27456WAT     H182610   8.259   6.692   8.304
27456WAT     H282611   8.210   6.779   8.175
27457WAT      O82612   2.316   4.081   7.643
27457WAT     H182613   2.353   4.163   7.599
27457WAT     H282614   2.304   4.099   7.741
27458WAT      O82615   0.190   8.225   8.024
27458WAT     H182616   0.145   8.178   8.100
27458WAT     H282617   0.218   8.317   8.053
27459WAT      O82618   2.125   1.255   7.565
27459WAT     H182619   2.093   1.297   7.650
27459WAT     H282620   2.175   1.323   7.511
27460WAT      O82621   1.573   4.294   6.056
27460WAT     H182622   1.630   4.336   6.126
27460WAT     H282623   1.592   4.196   6.051
27461WAT      O82624   9.617   1.666   8.550
27461WAT     H182625   9.703   1.713   8.531
27461WAT     H282626   9.554   1.729   8.596
27462WAT      O82627   6.346   9.817   2.998
27462WAT     H182628   6.296   9.787   2.917
27462WAT     H282629   6.316   9.764   3.077
27463WAT      O82630   1.824   1.467   9.131
27463WAT     H182631   1.911   1.504   9.164
27463WAT     H282632   1.816   1.483   9.033
27464WAT      O82633   8.085   0.750   0.946
27464WAT     H182634   8.009   0.806   0.978
27464WAT     H282635   8.100   0.674   1.010
27465WAT      O82636   0.692   1.676   9.024
27465WAT     H182637   0.618   1.714   8.968
27465WAT     H282638   0.656   1.607   9.086
27466WAT      O82639   5.490   9.333   1.268
27466WAT     H182640   5.478   9.282   1.353
27466WAT     H282641   5.585   9.324   1.237
27467WAT      O82642   1.257   7.003   4.057
27467WAT     H182643   1.280   6.915   4.015
27467WAT     H282644   1.217   7.063   3.989
27468WAT      O82645   0.674   3.252   4.312
27468WAT     H182646   0.673   3.229   4.410
27468WAT     H282647   0.765   3.233   4.275
27469WAT      O82648   8.892   3.580   8.213
27469WAT     H182649   8.865   3.488   8.241
27469WAT     H282650   8.844   3.648   8.268
27470WAT      O82651   7.831   1.892   5.736
27470WAT     H182652   7.752   1.912   5.678
27470WAT     H282653   7.827   1.796   5.764
27471WAT      O82654   8.477   7.997   3.729
27471WAT     H182655   8.506   7.906   3.699
27471WAT     H282656   8.555   8.060   3.724
27472WAT      O82657   6.090   9.011   0.742
27472WAT     H182658   6.007   8.987   0.792
27472WAT     H282659   6.162   8.944   0.764
27473WAT      O82660   6.255   6.440   0.162
27473WAT     H182661   6.201   6.466   0.241
27473WAT     H282662   6.258   6.340   0.155
27474WAT      O82663   9.584   5.994   9.581
27474WAT     H182664   9.499   6.012   9.632
27474WAT     H282665   9.629   6.080   9.560
27475WAT      O82666   8.070   4.093   8.346
27475WAT     H182667   8.042   4.173   8.398
27475WAT     H282668   8.078   4.014   8.406
27476WAT      O82669   5.665   8.298   5.414
27476WAT     H182670   5.680   8.379   5.470
27476WAT     H282671   5.748   8.280   5.360
27477WAT      O82672   8.709   3.476   4.288
27477WAT     H182673   8.784   3.423   4.247
27477WAT     H282674   8.740   3.570   4.303
27478WAT      O82675   9.814   8.198   3.149
27478WAT     H182676   9.859   8.259   3.084
27478WAT     H282677   9.738   8.151   3.103
27479WAT      O82678   4.218   7.980   4.774
27479WAT     H182679   4.294   8.036   4.807
27479WAT     H282680   4.179   7.929   4.850
27480WAT      O82681   8.082   1.150   6.890
27480WAT     H182682   8.125   1.061   6.874
27480WAT     H282683   8.153   1.221   6.890
27481WAT      O82684   2.951   1.321   5.808
27481WAT     H182685   2.864   1.331   5.759
27481WAT     H282686   3.022   1.288   5.746
27482WAT      O82687   0.001   9.113   9.246
27482WAT     H182688   0.024   9.114   9.344
27482WAT     H282689   0.004   9.019   9.213
27483WAT      O82690   4.582   2.078   5.383
27483WAT     H182691   4.641   2.042   5.311
27483WAT     H282692   4.509   2.132   5.341
27484WAT      O82693   9.186   8.177   3.497
27484WAT     H182694   9.251   8.207   3.427
27484WAT     H282695   9.093   8.186   3.463
27485WAT      O82696   1.730   8.017   7.329
27485WAT     H182697   1.682   8.014   7.416
27485WAT     H282698   1.691   8.088   7.271
27486WAT      O82699   0.651   7.353   2.519
27486WAT     H182700   0.567   7.313   2.555
27486WAT     H282701   0.636   7.450   2.501
27487WAT      O82702   7.991   2.549   1.921
27487WAT     H182703   7.902   2.535   1.963
27487WAT     H282704   8.052   2.474   1.945
27488WAT      O82705   7.179   3.092   4.709
27488WAT     H182706   7.216   3.057   4.624
27488WAT     H282707   7.089   3.131   4.693
27489WAT      O82708   5.508   9.263   5.836
27489WAT     H182709   5.528   9.361   5.834
27489WAT     H282710   5.536   9.225   5.925
27490WAT      O82711   4.234   4.173   0.278
27490WAT     H182712   4.241   4.171   0.378
27490WAT     H282713   4.151   4.124   0.250
27491WAT      O82714   3.132   6.040   8.628
27491WAT     H182715   3.151   5.952   8.673
27491WAT     H282716   3.208   6.063   8.567
27492WAT      O82717   1.210   6.335   4.722
27492WAT     H182718   1.153   6.303   4.797
27492WAT     H282719   1.237   6.430   4.738
27493WAT      O82720   6.288   4.376   1.359
27493WAT     H182721   6.195   4.364   1.393
27493WAT     H282722   6.344   4.420   1.428
27494WAT      O82723   8.054   4.380   0.072
27494WAT     H182724   8.050   4.475   0.103
27494WAT     H282725   8.043   4.319   0.151
27495WAT      O82726   8.701   2.122   2.492
27495WAT     H182727   8.774   2.157   2.434
27495WAT     H282728   8.692   2.023   2.478
27496WAT      O82729   9.495   3.276   1.096
27496WAT     H182730   9.583   3.252   1.137
27496WAT     H282731   9.509   3.345   1.025
27497WAT      O82732   6.528   8.925   6.607
27497WAT     H182733   6.450   8.982   6.581
27497WAT     H282734   6.548   8.861   6.533
27498WAT      O82735   2.098   8.551   6.014
27498WAT     H182736   2.045   8.505   6.086
27498WAT     H282737   2.048   8.548   5.928
27499WAT      O82738   6.919   5.139   1.048
27499WAT     H182739   6.874   5.141   1.138
27499WAT     H282740   6.981   5.217   1.040
27500WAT      O82741   1.442   0.833   2.240
27500WAT     H182742   1.412   0.755   2.295
27500WAT     H282743   1.539   0.824   2.219
27501WAT      O82744   4.526   4.198   3.229
27501WAT     H182745   4.444   4.142   3.235
27501WAT     H282746   4.603   4.141   3.201
27502WAT      O82747   1.404   0.144   9.652
27502WAT     H182748   1.343   0.187   9.719
27502WAT     H282749   1.494   0.188   9.657
27503WAT      O82750   6.126   0.190   6.821
27503WAT     H182751   6.149   0.195   6.723
27503WAT     H282752   6.039   0.235   6.836
27504WAT      O82753   9.119   0.650   4.923
27504WAT     H182754   9.063   0.718   4.875
27504WAT     H282755   9.110   0.561   4.878
27505WAT      O82756   5.260   4.138   7.003
27505WAT     H182757   5.184   4.151   7.067
27505WAT     H282758   5.343   4.180   7.039
27506WAT      O82759   4.654   9.534   1.136
27506WAT     H182760   4.664   9.591   1.054
27506WAT     H282761   4.656   9.437   1.109
27507WAT      O82762   7.282   8.501   7.582
27507WAT     H182763   7.305   8.569   7.512
27507WAT     H282764   7.366   8.459   7.617
27508WAT      O82765   5.099   1.253   8.189
27508WAT     H182766   5.009   1.295   8.175
27508WAT     H282767   5.163   1.287   8.119
27509WAT      O82768   2.494   6.116   0.740
27509WAT     H182769   2.456   6.024   0.748
27509WAT     H282770   2.583   6.112   0.694
27510WAT      O82771   1.439   0.808   2.629
27510WAT     H182772   1.511   0.738   2.635
27510WAT     H282773   1.482   0.899   2.630
27511WAT      O82774   6.881   5.908   9.232
27511WAT     H182775   6.843   5.875   9.146
27511WAT     H282776   6.883   6.008   9.231
27512WAT      O82777   6.071   6.048   7.552
27512WAT     H182778   5.999   6.108   7.515
27512WAT     H282779   6.032   5.959   7.574
27513WAT      O82780   5.526   5.411   7.187
27513WAT     H182781   5.565   5.456   7.107
27513WAT     H282782   5.496   5.481   7.253
27514WAT      O82783   0.382   9.031   7.602
27514WAT     H182784   0.296   9.032   7.652
27514WAT     H282785   0.390   9.113   7.545
27515WAT      O82786   9.105   1.584   6.328
27515WAT     H182787   9.041   1.509   6.317
27515WAT     H282788   9.092   1.627   6.418
27516WAT      O82789   9.213   3.832   3.145
27516WAT     H182790   9.226   3.820   3.243
27516WAT     H282791   9.161   3.755   3.109
27517WAT      O82792   4.493   8.140   6.081
27517WAT     H182793   4.575   8.197   6.085
27517WAT     H282794   4.413   8.197   6.064
27518WAT      O82795   6.631   4.652   8.430
27518WAT     H182796   6.610   4.721   8.360
27518WAT     H282797   6.548   4.601   8.452
27519WAT      O82798   0.485   6.580   1.984
27519WAT     H182799   0.578   6.614   1.974
27519WAT     H282800   0.428   6.651   2.025
27520WAT      O82801   9.233   0.725   4.561
27520WAT     H182802   9.286   0.804   4.592
27520WAT     H282803   9.259   0.702   4.467
27521WAT      O82804   2.208   1.086   1.884
27521WAT     H182805   2.252   1.119   1.967
27521WAT     H282806   2.218   1.153   1.811
27522WAT      O82807   7.272   8.288   6.639
27522WAT     H182808   7.257   8.297   6.738
27522WAT     H282809   7.306   8.375   6.603
27523WAT      O82810   6.649   4.249   8.919
27523WAT     H182811   6.622   4.344   8.908
27523WAT     H282812   6.723   4.227   8.855
27524WAT      O82813   3.166   3.660   5.989
27524WAT     H182814   3.219   3.641   6.072
27524WAT     H282815   3.102   3.585   5.972
27525WAT      O82816   1.011   5.443   3.224
27525WAT     H182817   0.920   5.438   3.265
27525WAT     H282818   1.051   5.533   3.240
27526WAT      O82819   3.516   1.876   4.771
27526WAT     H182820   3.570   1.793   4.767
27526WAT     H282821   3.511   1.910   4.865
27527WAT      O82822   8.813   3.306   3.050
27527WAT     H182823   8.873   3.364   2.995
27527WAT     H282824   8.770   3.362   3.121
27528WAT      O82825   6.104   4.630   5.787
27528WAT     H182826   6.072   4.538   5.811
27528WAT     H282827   6.085   4.648   5.691
27529WAT      O82828   3.020   3.640   3.090
27529WAT     H182829   3.119   3.643   3.076
27529WAT     H282830   2.980   3.566   3.035
27530WAT      O82831   7.166   8.347   5.619
27530WAT     H182832   7.085   8.400   5.642
27530WAT     H282833   7.219   8.328   5.702
27531WAT      O82834   2.479   8.485   8.785
27531WAT     H182835   2.526   8.544   8.719
27531WAT     H282836   2.519   8.393   8.782
27532WAT      O82837   6.410   8.678   3.423
27532WAT     H182838   6.351   8.736   3.479
27532WAT     H282839   6.493   8.655   3.474
27533WAT      O82840   7.490   3.863   5.865
27533WAT     H182841   7.429   3.927   5.817
27533WAT     H282842   7.510   3.785   5.805
27534WAT      O82843   3.478   4.107   8.788
27534WAT     H182844   3.533   4.073   8.864
27534WAT     H282845   3.472   4.206   8.792
27535WAT      O82846   7.463   8.925   0.995
27535WAT     H182847   7.497   8.905   1.087
27535WAT     H282848   7.539   8.943   0.934
27536WAT      O82849   2.044   5.975   2.615
27536WAT     H182850   2.097   6.004   2.536
27536WAT     H282851   2.086   5.893   2.655
27537WAT      O82852   6.508   8.996   9.490
27537WAT     H182853   6.546   8.948   9.570
27537WAT     H282854   6.410   9.011   9.503
27538WAT      O82855   3.731   3.261   0.455
27538WAT     H182856   3.640   3.248   0.495
27538WAT     H282857   3.795   3.194   0.494
27539WAT      O82858   4.099   9.077   9.310
27539WAT     H182859   4.082   9.166   9.352
27539WAT     H282860   4.027   9.057   9.244
27540WAT      O82861   0.845   0.172   0.519
27540WAT     H182862   0.792   0.089   0.506
27540WAT     H282863   0.807   0.245   0.462
27541WAT      O82864   7.874   6.957   7.685
27541WAT     H182865   7.827   7.015   7.618
27541WAT     H282866   7.907   6.874   7.640
27542WAT      O82867   1.151   6.268   8.475
27542WAT     H182868   1.206   6.291   8.395
27542WAT     H282869   1.080   6.202   8.449
27543WAT      O82870   5.775   0.196   3.262
27543WAT     H182871   5.836   0.275   3.270
27543WAT     H282872   5.760   0.175   3.166
27544WAT      O82873   0.683   9.664   4.969
27544WAT     H182874   0.590   9.688   4.940
27544WAT     H282875   0.716   9.587   4.914
27545WAT      O82876   2.472   9.733   9.567
27545WAT     H182877   2.468   9.819   9.618
27545WAT     H282878   2.510   9.661   9.625
27546WAT      O82879   7.747   9.439   4.359
27546WAT     H182880   7.772   9.423   4.263
27546WAT     H282881   7.665   9.387   4.381
27547WAT      O82882   9.025   5.504   5.259
27547WAT     H182883   9.035   5.491   5.358
27547WAT     H282884   8.942   5.458   5.228
27548WAT      O82885   2.811   8.480   1.996
27548WAT     H182886   2.861   8.549   2.049
27548WAT     H282887   2.876   8.412   1.963
27549WAT      O82888   3.614   1.697   2.265
27549WAT     H182889   3.601   1.768   2.334
27549WAT     H282890   3.556   1.619   2.287
27550WAT      O82891   3.839   7.955   5.476
27550WAT     H182892   3.925   7.971   5.525
27550WAT     H282893   3.762   7.974   5.537
27551WAT      O82894   5.512   5.618   6.713
27551WAT     H182895   5.529   5.596   6.617
27551WAT     H282896   5.470   5.709   6.719
27552WAT      O82897   4.247   9.242   9.804
27552WAT     H182898   4.163   9.293   9.785
27552WAT     H282899   4.315   9.304   9.842
27553WAT      O82900   6.293   5.438   3.114
27553WAT     H182901   6.214   5.485   3.152
27553WAT     H282902   6.367   5.504   3.100
27554WAT      O82903   7.742   4.271   0.091
27554WAT     H182904   7.759   4.354   0.039
27554WAT     H282905   7.812   4.203   0.069
27555WAT      O82906   4.836   2.544   3.808
27555WAT     H182907   4.745   2.531   3.771
27555WAT     H282908   4.838   2.514   3.904
27556WAT      O82909   7.474   6.249   9.630
27556WAT     H182910   7.450   6.275   9.536
27556WAT     H282911   7.417   6.301   9.694
27557WAT      O82912   3.792   4.994   6.285
27557WAT     H182913   3.871   5.046   6.318
27557WAT     H282914   3.799   4.899   6.317
27558WAT      O82915   8.956   3.130   5.463
27558WAT     H182916   8.933   3.220   5.425
27558WAT     H282917   8.918   3.059   5.403
27559WAT      O82918   0.573   7.766   2.096
27559WAT     H182919   0.620   7.769   2.184
27559WAT     H282920   0.495   7.829   2.098
27560WAT      O82921   6.438   0.587   6.635
27560WAT     H182922   6.529   0.613   6.603
27560WAT     H282923   6.390   0.668   6.671
27561WAT      O82924   4.618   1.905   5.735
27561WAT     H182925   4.647   1.920   5.830
27561WAT     H282926   4.672   1.964   5.674
27562WAT      O82927   2.731   2.680   2.339
27562WAT     H182928   2.707   2.679   2.242
27562WAT     H282929   2.761   2.588   2.367
27563WAT      O82930   0.032   1.313   5.648
27563WAT     H182931   0.060   1.267   5.731
27563WAT     H282932   0.097   1.294   5.575
27564WAT      O82933   7.140   5.633   7.096
27564WAT     H182934   7.135   5.573   7.176
27564WAT     H282935   7.233   5.634   7.060
27565WAT      O82936   3.982   9.135   5.356
27565WAT     H182937   3.941   9.178   5.276
27565WAT     H282938   3.926   9.154   5.436
27566WAT      O82939   3.367   5.380   8.159
27566WAT     H182940   3.426   5.431   8.222
27566WAT     H282941   3.276   5.423   8.157
27567WAT      O82942   2.203   7.613   0.559
27567WAT     H182943   2.114   7.647   0.589
27567WAT     H282944   2.268   7.619   0.635
27568WAT      O82945   7.273   2.786   1.866
27568WAT     H182946   7.296   2.693   1.896
27568WAT     H282947   7.259   2.787   1.767
27569WAT      O82948   4.531   7.158   4.389
27569WAT     H182949   4.540   7.258   4.382
27569WAT     H282950   4.496   7.122   4.303
27570WAT      O82951   3.680   8.274   6.262
27570WAT     H182952   3.746   8.209   6.226
27570WAT     H282953   3.725   8.361   6.281
27571WAT      O82954   3.891   4.461   9.589
27571WAT     H182955   3.793   4.452   9.606
27571WAT     H282956   3.942   4.413   9.660
27572WAT      O82957   4.976   8.480   0.195
27572WAT     H182958   5.038   8.415   0.239
27572WAT     H282959   4.985   8.473   0.096
27573WAT      O82960   6.472   7.708   6.373
27573WAT     H182961   6.522   7.667   6.297
27573WAT     H282962   6.405   7.643   6.408
27574WAT      O82963   1.022   4.851   8.719
27574WAT     H182964   1.085   4.773   8.712
27574WAT     H282965   1.071   4.935   8.699
27575WAT      O82966   2.742   1.703   9.608
27575WAT     H182967   2.774   1.785   9.561
27575WAT     H282968   2.819   1.658   9.654
27576WAT      O82969   2.389   6.565   1.866
27576WAT     H182970   2.297   6.603   1.876
27576WAT     H282971   2.447   6.599   1.939
27577WAT      O82972   3.867   2.555   9.755
27577WAT     H182973   3.834   2.547   9.849
27577WAT     H282974   3.956   2.600   9.754
27578WAT      O82975   4.947   8.323   6.675
27578WAT     H182976   4.908   8.231   6.680
27578WAT     H282977   5.046   8.317   6.661
27579WAT      O82978   9.833   3.352   3.145
27579WAT     H182979   9.798   3.258   3.146
27579WAT     H282980   9.803   3.398   3.062
27580WAT      O82981   2.524   6.670   3.690
27580WAT     H182982   2.500   6.744   3.754
27580WAT     H282983   2.606   6.623   3.723
27581WAT      O82984   0.457   1.587   8.868
27581WAT     H182985   0.476   1.491   8.848
27581WAT     H282986   0.361   1.606   8.848
27582WAT      O82987   0.371   1.720   2.981
27582WAT     H182988   0.385   1.625   2.955
27582WAT     H282989   0.448   1.775   2.948
27583WAT      O82990   1.728   7.447   5.560
27583WAT     H182991   1.779   7.526   5.526
27583WAT     H282992   1.765   7.419   5.649
27584WAT      O82993   6.331   4.408   3.218
27584WAT     H182994   6.316   4.319   3.260
27584WAT     H282995   6.249   4.435   3.167
27585WAT      O82996   8.823   5.016   5.451
27585WAT     H182997   8.729   4.983   5.449
27585WAT     H282998   8.858   5.022   5.358
27586WAT      O82999   0.248   4.245   5.075
27586WAT     H183000   0.337   4.253   5.029
27586WAT     H283001   0.231   4.328   5.129
27587WAT      O83002   5.176   3.502   5.932
27587WAT     H183003   5.248   3.547   5.878
27587WAT     H283004   5.114   3.454   5.870
27588WAT      O83005   4.453   4.861   1.630
27588WAT     H183006   4.412   4.778   1.669
27588WAT     H283007   4.389   4.937   1.639
27589WAT      O83008   5.843   4.303   6.183
27589WAT     H183009   5.923   4.346   6.141
27589WAT     H283010   5.862   4.284   6.279
27590WAT      O83011   6.146   2.246   5.525
27590WAT     H183012   6.192   2.242   5.614
27590WAT     H283013   6.067   2.307   5.530
27591WAT      O83014   8.679   4.087   9.197
27591WAT     H183015   8.726   4.030   9.129
27591WAT     H283016   8.744   4.114   9.268
27592WAT      O83017   7.153   6.343   4.294
27592WAT     H183018   7.158   6.308   4.200
27592WAT     H283019   7.075   6.301   4.340
27593WAT      O83020   3.069   8.741   9.001
27593WAT     H183021   3.142   8.789   8.952
27593WAT     H283022   3.020   8.806   9.060
27594WAT      O83023   3.736   9.301   2.230
27594WAT     H183024   3.809   9.235   2.211
27594WAT     H283025   3.681   9.314   2.147
27595WAT      O83026   3.212   0.790   7.780
27595WAT     H183027   3.157   0.782   7.863
27595WAT     H283028   3.291   0.848   7.798
27596WAT      O83029   1.388   3.495   3.781
27596WAT     H183030   1.400   3.467   3.876
27596WAT     H283031   1.343   3.584   3.778
27597WAT      O83032   9.582   8.878   0.174
27597WAT     H183033   9.498   8.912   0.130
27597WAT     H283034   9.557   8.816   0.249
27598WAT      O83035   8.418   6.191   2.144
27598WAT     H183036   8.348   6.128   2.178
27598WAT     H283037   8.372   6.271   2.103
27599WAT      O83038   1.185   7.170   1.140
27599WAT     H183039   1.240   7.180   1.223
27599WAT     H283040   1.104   7.114   1.160
27600WAT      O83041   2.028   6.049   9.185
27600WAT     H183042   2.061   6.137   9.220
27600WAT     H283043   1.958   6.013   9.247
27601WAT      O83044   2.348   2.526   0.159
27601WAT     H183045   2.427   2.494   0.106
27601WAT     H283046   2.265   2.508   0.107
27602WAT      O83047   1.185   6.867   1.821
27602WAT     H183048   1.219   6.960   1.836
27602WAT     H283049   1.111   6.869   1.754
27603WAT      O83050   0.803   6.678   3.009
27603WAT     H183051   0.849   6.592   2.988
27603WAT     H283052   0.760   6.672   3.099
27604WAT      O83053   1.390   6.845   5.267
27604WAT     H183054   1.398   6.944   5.271
27604WAT     H283055   1.455   6.803   5.331
27605WAT      O83056   4.387   0.527   0.928
27605WAT     H183057   4.442   0.541   1.011
27605WAT     H283058   4.419   0.588   0.856
27606WAT      O83059   1.595   1.437   3.307
27606WAT     H183060   1.588   1.465   3.211
27606WAT     H283061   1.518   1.378   3.330
27607WAT      O83062   5.079   2.469   6.455
27607WAT     H183063   5.097   2.537   6.385
27607WAT     H283064   5.028   2.393   6.416
27608WAT      O83065   4.479   6.143   0.785
27608WAT     H183066   4.513   6.199   0.861
27608WAT     H283067   4.388   6.108   0.807
27609WAT      O83068   1.259   2.770   2.777
27609WAT     H183069   1.327   2.713   2.731
27609WAT     H283070   1.200   2.814   2.709
27610WAT      O83071   7.377   5.149   8.909
27610WAT     H183072   7.380   5.100   8.996
27610WAT     H283073   7.337   5.239   8.923
27611WAT      O83074   5.559   7.661   7.625
27611WAT     H183075   5.464   7.692   7.634
27611WAT     H283076   5.567   7.601   7.545
27612WAT      O83077   1.631   6.743   4.748
27612WAT     H183078   1.582   6.821   4.710
27612WAT     H283079   1.627   6.667   4.683
27613WAT      O83080   0.888   6.978   1.767
27613WAT     H183081   0.794   6.992   1.735
27613WAT     H283082   0.935   6.914   1.706
27614WAT      O83083   4.419   2.919   5.114
27614WAT     H183084   4.492   2.984   5.136
27614WAT     H283085   4.333   2.950   5.156
27615WAT      O83086   8.438   7.967   3.373
27615WAT     H183087   8.419   7.883   3.423
27615WAT     H283088   8.536   7.988   3.379
27616WAT      O83089   2.733   3.564   9.432
27616WAT     H183090   2.640   3.589   9.403
27616WAT     H283091   2.756   3.612   9.516
27617WAT      O83092   3.379   3.600   7.672
27617WAT     H183093   3.333   3.689   7.665
27617WAT     H283094   3.471   3.607   7.632
27618WAT      O83095   8.661   6.969   8.983
27618WAT     H183096   8.622   6.876   8.984
27618WAT     H283097   8.716   6.982   9.065
27619WAT      O83098   6.716   1.641   6.726
27619WAT     H183099   6.671   1.565   6.773
27619WAT     H283100   6.675   1.654   6.636
27620WAT      O83101   4.173   6.085   7.257
27620WAT     H183102   4.076   6.079   7.279
27620WAT     H283103   4.194   6.178   7.224
27621WAT      O83104   1.988   2.296   8.086
27621WAT     H183105   2.020   2.202   8.094
27621WAT     H283106   1.888   2.299   8.093
27622WAT      O83107   6.316   4.590   4.312
27622WAT     H183108   6.225   4.633   4.315
27622WAT     H283109   6.357   4.593   4.403
27623WAT      O83110   6.361   4.187   3.524
27623WAT     H183111   6.340   4.275   3.566
27623WAT     H283112   6.429   4.139   3.580
27624WAT      O83113   4.136   8.823   6.114
27624WAT     H183114   4.169   8.916   6.131
27624WAT     H283115   4.129   8.808   6.016
27625WAT      O83116   5.745   2.991   0.064
27625WAT     H183117   5.752   3.078   0.015
27625WAT     H283118   5.652   2.955   0.055
27626WAT      O83119   0.403   3.515   6.324
27626WAT     H183120   0.372   3.420   6.321
27626WAT     H283121   0.448   3.539   6.239
27627WAT      O83122   3.998   8.484   3.055
27627WAT     H183123   3.903   8.456   3.041
27627WAT     H283124   4.033   8.441   3.138
27628WAT      O83125   5.574   0.787   5.224
27628WAT     H183126   5.500   0.825   5.280
27628WAT     H283127   5.538   0.767   5.132
27629WAT      O83128   9.567   3.311   8.731
27629WAT     H183129   9.542   3.404   8.759
27629WAT     H283130   9.495   3.247   8.757
27630WAT      O83131   7.400   4.445   1.168
27630WAT     H183132   7.414   4.512   1.095
27630WAT     H283133   7.461   4.367   1.155
27631WAT      O83134   9.499   2.403   7.841
27631WAT     H183135   9.424   2.357   7.793
27631WAT     H283136   9.530   2.347   7.918
27632WAT      O83137   7.920   3.896   3.625
27632WAT     H183138   7.935   3.980   3.573
27632WAT     H283139   7.846   3.843   3.583
27633WAT      O83140   7.602   5.037   9.554
27633WAT     H183141   7.648   5.064   9.470
27633WAT     H283142   7.514   5.085   9.561
27634WAT      O83143   6.484   8.388   7.699
27634WAT     H183144   6.555   8.423   7.760
27634WAT     H283145   6.396   8.427   7.725
27635WAT      O83146   7.139   2.680   3.677
27635WAT     H183147   7.124   2.640   3.767
27635WAT     H283148   7.119   2.778   3.680
27636WAT      O83149   9.801   0.939   6.596
27636WAT     H183150   9.708   0.927   6.561
27636WAT     H283151   9.863   0.875   6.548
27637WAT      O83152   6.921   2.083   5.620
27637WAT     H183153   6.998   2.022   5.602
27637WAT     H283154   6.852   2.072   5.549
27638WAT      O83155   6.759   2.597   0.354
27638WAT     H183156   6.797   2.561   0.440
27638WAT     H283157   6.661   2.613   0.365
27639WAT      O83158   0.636   8.094   0.185
27639WAT     H183159   0.601   8.030   0.253
27639WAT     H283160   0.582   8.087   0.101
27640WAT      O83161   4.802   9.003   8.059
27640WAT     H183162   4.710   8.971   8.034
27640WAT     H283163   4.865   8.987   7.983
27641WAT      O83164   6.175   0.767   4.643
27641WAT     H183165   6.231   0.816   4.576
27641WAT     H283166   6.153   0.676   4.609
27642WAT      O83167   0.586   8.654   2.364
27642WAT     H183168   0.647   8.652   2.443
27642WAT     H283169   0.505   8.600   2.383
27643WAT      O83170   7.744   8.071   7.218
27643WAT     H183171   7.649   8.050   7.194
27643WAT     H283172   7.780   7.999   7.279
27644WAT      O83173   2.411   3.787   8.295
27644WAT     H183174   2.498   3.795   8.344
27644WAT     H283175   2.335   3.791   8.360
27645WAT      O83176   2.541   8.958   1.102
27645WAT     H183177   2.599   8.958   1.021
27645WAT     H283178   2.447   8.980   1.076
27646WAT      O83179   6.323   2.994   9.773
27646WAT     H183180   6.373   3.038   9.698
27646WAT     H283181   6.334   3.048   9.857
27647WAT      O83182   1.350   4.445   3.044
27647WAT     H183183   1.295   4.460   3.126
27647WAT     H283184   1.444   4.422   3.070
27648WAT      O83185   9.060   5.381   7.536
27648WAT     H183186   8.987   5.449   7.543
27648WAT     H283187   9.090   5.355   7.627
27649WAT      O83188   2.720   9.642   2.513
27649WAT     H183189   2.682   9.697   2.438
27649WAT     H283190   2.723   9.546   2.487
27650WAT      O83191   3.813   2.475   9.167
27650WAT     H183192   3.854   2.476   9.077
27650WAT     H283193   3.744   2.403   9.172
27651WAT      O83194   4.399   1.231   8.905
27651WAT     H183195   4.372   1.136   8.894
27651WAT     H283196   4.330   1.280   8.959
27652WAT      O83197   0.948   9.809   7.451
27652WAT     H183198   0.906   9.900   7.454
27652WAT     H283199   1.043   9.817   7.422
27653WAT      O83200   2.255   5.910   3.319
27653WAT     H183201   2.233   5.969   3.397
27653WAT     H283202   2.263   5.965   3.236
27654WAT      O83203   4.093   5.995   9.080
27654WAT     H183204   4.150   5.926   9.125
27654WAT     H283205   4.004   5.998   9.124
27655WAT      O83206   3.288   0.550   1.509
27655WAT     H183207   3.260   0.569   1.603
27655WAT     H283208   3.387   0.536   1.505
27656WAT      O83209   0.480   2.954   0.685
27656WAT     H183210   0.410   3.003   0.633
27656WAT     H283211   0.550   3.018   0.716
27657WAT      O83212   3.146   4.245   9.485
27657WAT     H183213   3.241   4.239   9.455
27657WAT     H283214   3.091   4.178   9.436
27658WAT      O83215   1.912   8.150   0.295
27658WAT     H183216   2.003   8.108   0.301
27658WAT     H283217   1.909   8.210   0.214
27659WAT      O83218   1.596   3.580   1.446
27659WAT     H183219   1.581   3.673   1.412
27659WAT     H283220   1.683   3.545   1.412
27660WAT      O83221   7.267   8.205   1.612
27660WAT     H183222   7.270   8.110   1.644
27660WAT     H283223   7.180   8.222   1.567
27661WAT      O83224   4.557   6.649   1.592
27661WAT     H183225   4.651   6.656   1.562
27661WAT     H283226   4.495   6.664   1.515
27662WAT      O83227   2.152   7.352   4.889
27662WAT     H183228   2.164   7.360   4.988
27662WAT     H283229   2.076   7.290   4.870
27663WAT      O83230   6.882   6.816   8.383
27663WAT     H183231   6.950   6.854   8.446
27663WAT     H283232   6.854   6.726   8.415
27664WAT      O83233   0.071   0.426   0.193
27664WAT     H183234  -0.005   0.364   0.212
27664WAT     H283235   0.039   0.520   0.194
27665WAT      O83236   5.447   2.740   8.047
27665WAT     H183237   5.352   2.772   8.042
27665WAT     H283238   5.506   2.804   7.998
27666WAT      O83239   5.334   6.463   0.872
27666WAT     H183240   5.276   6.406   0.814
27666WAT     H283241   5.417   6.487   0.822
27667WAT      O83242   7.576   6.806   3.675
27667WAT     H183243   7.561   6.900   3.706
27667WAT     H283244   7.646   6.763   3.733
27668WAT      O83245   3.435   5.747   3.176
27668WAT     H183246   3.413   5.822   3.238
27668WAT     H283247   3.534   5.740   3.166
27669WAT      O83248   1.291   5.292   4.696
27669WAT     H183249   1.306   5.280   4.794
27669WAT     H283250   1.303   5.388   4.672
27670WAT      O83251   6.477   9.251   8.192
27670WAT     H183252   6.394   9.288   8.150
27670WAT     H283253   6.481   9.152   8.176
27671WAT      O83254   5.902   9.133   4.770
27671WAT     H183255   5.839   9.210   4.779
27671WAT     H283256   5.966   9.151   4.695
27672WAT      O83257   9.208   0.576   3.456
27672WAT     H183258   9.177   0.607   3.546
27672WAT     H283259   9.173   0.638   3.386
27673WAT      O83260   1.671   7.544   0.596
27673WAT     H183261   1.670   7.565   0.498
27673WAT     H283262   1.697   7.626   0.647
27674WAT      O83263   0.592   1.293   2.581
27674WAT     H183264   0.665   1.283   2.649
27674WAT     H283265   0.504   1.299   2.628
27675WAT      O83266   3.853   0.530   7.216
27675WAT     H183267   3.914   0.452   7.228
27675WAT     H283268   3.814   0.556   7.305
27676WAT      O83269   7.040   3.774   1.851
27676WAT     H183270   7.033   3.847   1.783
27676WAT     H283271   7.056   3.687   1.805
27677WAT      O83272   0.276   7.860   9.195
27677WAT     H183273   0.252   7.766   9.175
27677WAT     H283274   0.336   7.863   9.275
27678WAT      O83275   6.981   9.176   0.605
27678WAT     H183276   6.923   9.172   0.523
27678WAT     H283277   7.071   9.139   0.583
27679WAT      O83278   9.105   5.263   4.148
27679WAT     H183279   9.158   5.324   4.089
27679WAT     H283280   9.128   5.281   4.243
27680WAT      O83281   0.366   6.328   3.851
27680WAT     H183282   0.268   6.330   3.872
27680WAT     H283283   0.379   6.311   3.753
27681WAT      O83284   0.488   9.529   2.529
27681WAT     H183285   0.513   9.539   2.432
27681WAT     H283286   0.437   9.444   2.541
27682WAT      O83287   0.986   9.199   8.220
27682WAT     H183288   0.956   9.134   8.150
27682WAT     H283289   1.074   9.238   8.194
27683WAT      O83290   6.788   2.901   0.917
27683WAT     H183291   6.699   2.856   0.932
27683WAT     H283292   6.845   2.842   0.860
27684WAT      O83293   4.383   9.742   4.985
27684WAT     H183294   4.438   9.682   4.926
27684WAT     H283295   4.371   9.831   4.941
27685WAT      O83296   1.978   8.373   3.521
27685WAT     H183297   1.943   8.282   3.545
27685WAT     H283298   1.909   8.442   3.545
27686WAT      O83299   3.669   4.941   2.543
27686WAT     H183300   3.661   4.896   2.633
27686WAT     H283301   3.763   4.936   2.512
27687WAT      O83302   0.089   2.992   4.207
27687WAT     H183303   0.085   2.903   4.252
27687WAT     H283304   0.078   3.064   4.276
27688WAT      O83305   7.601   2.643   1.374
27688WAT     H183306   7.532   2.695   1.425
27688WAT     H283307   7.558   2.562   1.334
27689WAT      O83308   0.092   2.975   5.212
27689WAT     H183309   0.146   2.895   5.187
27689WAT     H283310  -0.003   2.961   5.186
27690WAT      O83311   2.850   3.386   7.220
27690WAT     H183312   2.768   3.433   7.187
27690WAT     H283313   2.823   3.312   7.282
27691WAT      O83314   0.099   6.413   7.754
27691WAT     H183315   0.099   6.469   7.672
27691WAT     H283316   0.103   6.316   7.728
27692WAT      O83317   1.353   4.987   2.930
27692WAT     H183318   1.290   5.064   2.925
27692WAT     H283319   1.307   4.904   2.900
27693WAT      O83320   9.592   9.646   7.491
27693WAT     H183321   9.620   9.707   7.565
27693WAT     H283322   9.611   9.690   7.403
27694WAT      O83323   5.282   1.748   7.183
27694WAT     H183324   5.349   1.676   7.167
27694WAT     H283325   5.264   1.796   7.098
27695WAT      O83326   4.101   4.373   4.512
27695WAT     H183327   4.158   4.455   4.505
27695WAT     H283328   4.013   4.397   4.554
27696WAT      O83329   3.651   0.767   1.903
27696WAT     H183330   3.698   0.744   1.818
27696WAT     H283331   3.666   0.863   1.925
27697WAT      O83332   9.462   2.306   2.642
27697WAT     H183333   9.500   2.385   2.691
27697WAT     H283334   9.382   2.335   2.590
27698WAT      O83335   0.352   5.272   9.431
27698WAT     H183336   0.319   5.270   9.336
27698WAT     H283337   0.313   5.194   9.481
27699WAT      O83338   6.319   8.976   4.887
27699WAT     H183339   6.270   9.062   4.898
27699WAT     H283340   6.383   8.983   4.810
27700WAT      O83341   8.279   6.111   7.100
27700WAT     H183342   8.373   6.142   7.085
27700WAT     H283343   8.279   6.016   7.130
27701WAT      O83344   9.359   7.328   2.020
27701WAT     H183345   9.319   7.348   1.930
27701WAT     H283346   9.375   7.230   2.028
27702WAT      O83347   9.390   7.869   1.423
27702WAT     H183348   9.360   7.794   1.483
27702WAT     H283349   9.429   7.942   1.478
27703WAT      O83350   1.254   3.261   1.597
27703WAT     H183351   1.191   3.338   1.587
27703WAT     H283352   1.348   3.295   1.602
27704WAT      O83353   6.109   6.881   8.365
27704WAT     H183354   6.171   6.853   8.292
27704WAT     H283355   6.157   6.879   8.453
27705WAT      O83356   4.397   1.352   9.375
27705WAT     H183357   4.353   1.281   9.320
27705WAT     H283358   4.457   1.407   9.316
27706WAT      O83359   5.939   1.633   1.568
27706WAT     H183360   5.889   1.608   1.484
27706WAT     H283361   5.967   1.550   1.616
27707WAT      O83362   4.112   3.469   9.206
27707WAT     H183363   4.027   3.514   9.232
27707WAT     H283364   4.090   3.386   9.154
27708WAT      O83365   5.843   2.959   1.434
27708WAT     H183366   5.796   3.039   1.397
27708WAT     H283367   5.824   2.951   1.532
27709WAT      O83368   2.852   5.398   8.581
27709WAT     H183369   2.850   5.440   8.672
27709WAT     H283370   2.947   5.374   8.557
27710WAT      O83371   8.908   8.239   2.282
27710WAT     H183372   8.989   8.295   2.267
27710WAT     H283373   8.874   8.255   2.375
27711WAT      O83374   9.723   4.886   4.946
27711WAT     H183375   9.669   4.915   5.026
27711WAT     H283376   9.820   4.901   4.965
27712WAT      O83377   8.074   9.612   7.686
27712WAT     H183378   8.086   9.710   7.666
27712WAT     H283379   7.988   9.581   7.647
27713WAT      O83380   8.714   0.870   8.573
27713WAT     H183381   8.763   0.793   8.531
27713WAT     H283382   8.738   0.876   8.670
27714WAT      O83383   1.330   0.098   5.815
27714WAT     H183384   1.361   0.165   5.748
27714WAT     H283385   1.410   0.057   5.860
27715WAT      O83386   1.523   6.989   1.116
27715WAT     H183387   1.562   7.080   1.111
27715WAT     H283388   1.434   6.988   1.070
27716WAT      O83389   1.716   2.817   3.936
27716WAT     H183390   1.706   2.754   4.014
27716WAT     H283391   1.782   2.778   3.872
27717WAT      O83392   4.167   6.606   5.870
27717WAT     H183393   4.079   6.627   5.913
27717WAT     H283394   4.175   6.507   5.857
27718WAT      O83395   5.883   7.929   0.495
27718WAT     H183396   5.844   8.021   0.502
27718WAT     H283397   5.837   7.868   0.560
27719WAT      O83398   2.794   0.639   5.415
27719WAT     H183399   2.771   0.736   5.422
27719WAT     H283400   2.716   0.590   5.376
27720WAT      O83401   2.893   1.753   9.835
27720WAT     H183402   2.964   1.813   9.800
27720WAT     H283403   2.920   1.657   9.821
27721WAT      O83404   1.348   2.220   1.435
27721WAT     H183405   1.292   2.222   1.353
27721WAT     H283406   1.426   2.159   1.422
27722WAT      O83407   2.571   4.360   2.440
27722WAT     H183408   2.490   4.315   2.401
27722WAT     H283409   2.544   4.414   2.519
27723WAT      O83410   8.743   6.020   7.478
27723WAT     H183411   8.841   6.000   7.483
27723WAT     H283412   8.691   5.940   7.506
27724WAT      O83413   9.273   2.530   7.350
27724WAT     H183414   9.302   2.435   7.337
27724WAT     H283415   9.188   2.546   7.299
27725WAT      O83416   0.098   1.467   3.383
27725WAT     H183417   0.067   1.556   3.417
27725WAT     H283418   0.030   1.430   3.319
27726WAT      O83419   2.740   3.672   1.667
27726WAT     H183420   2.729   3.763   1.627
27726WAT     H283421   2.820   3.628   1.627
27727WAT      O83422   7.182   8.337   1.980
27727WAT     H183423   7.279   8.337   1.958
27727WAT     H283424   7.141   8.249   1.954
27728WAT      O83425   1.254   8.331   7.738
27728WAT     H183426   1.176   8.356   7.680
27728WAT     H283427   1.220   8.289   7.822
27729WAT      O83428   4.831   1.560   7.578
27729WAT     H183429   4.737   1.595   7.585
27729WAT     H283430   4.887   1.623   7.525
27730WAT      O83431   1.133   2.502   8.679
27730WAT     H183432   1.107   2.414   8.640
27730WAT     H283433   1.179   2.557   8.609
27731WAT      O83434   6.573   7.150   6.109
27731WAT     H183435   6.608   7.056   6.117
27731WAT     H283436   6.649   7.213   6.097
27732WAT      O83437   6.125   5.708   5.418
27732WAT     H183438   6.107   5.658   5.333
27732WAT     H283439   6.087   5.800   5.411
27733WAT      O83440   5.973   0.840   7.650
27733WAT     H183441   5.935   0.762   7.600
27733WAT     H283442   6.022   0.806   7.730
27734WAT      O83443   2.374   1.106   5.003
27734WAT     H183444   2.290   1.070   5.044
27734WAT     H283445   2.356   1.197   4.966
27735WAT      O83446   9.304   4.659   6.568
27735WAT     H183447   9.397   4.658   6.529
27735WAT     H283448   9.240   4.619   6.502
27736WAT      O83449   5.107   0.325   7.921
27736WAT     H183450   5.179   0.389   7.894
27736WAT     H283451   5.101   0.321   8.021
27737WAT      O83452   6.003   4.169   9.585
27737WAT     H183453   6.094   4.200   9.560
27737WAT     H283454   5.946   4.164   9.503
27738WAT      O83455   8.966   7.785   0.623
27738WAT     H183456   8.914   7.819   0.544
27738WAT     H283457   9.036   7.720   0.591
27739WAT      O83458   4.135   7.756   6.110
27739WAT     H183459   4.155   7.753   6.012
27739WAT     H283460   4.040   7.783   6.124
27740WAT      O83461   4.583   7.697   1.883
27740WAT     H183462   4.662   7.758   1.886
27740WAT     H283463   4.519   7.729   1.814
27741WAT      O83464   0.529   5.699   9.185
27741WAT     H183465   0.546   5.784   9.134
27741WAT     H283466   0.449   5.653   9.147
27742WAT      O83467   3.992   6.796   0.078
27742WAT     H183468   3.896   6.821   0.089
27742WAT     H283469   4.033   6.780   0.168
27743WAT      O83470   5.001   0.486   0.867
27743WAT     H183471   4.908   0.523   0.873
27743WAT     H283472   4.996   0.388   0.846
27744WAT      O83473   6.006   9.231   2.685
27744WAT     H183474   5.954   9.263   2.606
27744WAT     H283475   6.023   9.307   2.747
27745WAT      O83476   3.483   4.059   1.142
27745WAT     H183477   3.572   4.091   1.107
27745WAT     H283478   3.470   4.092   1.235
27746WAT      O83479   2.559   2.862   1.685
27746WAT     H183480   2.525   2.932   1.747
27746WAT     H283481   2.581   2.779   1.737
27747WAT      O83482   5.591   4.420   8.260
27747WAT     H183483   5.660   4.461   8.320
27747WAT     H283484   5.632   4.347   8.206
27748WAT      O83485   1.305   9.355   5.472
27748WAT     H183486   1.298   9.404   5.385
27748WAT     H283487   1.338   9.418   5.543
27749WAT      O83488   8.290   7.264   9.254
27749WAT     H183489   8.282   7.168   9.278
27749WAT     H283490   8.198   7.304   9.249
27750WAT      O83491   1.181   7.782   6.105
27750WAT     H183492   1.205   7.699   6.156
27750WAT     H283493   1.195   7.862   6.164
27751WAT      O83494   4.456   1.556   5.281
27751WAT     H183495   4.547   1.595   5.296
27751WAT     H283496   4.425   1.580   5.189
27752WAT      O83497   1.386   5.477   2.588
27752WAT     H183498   1.302   5.530   2.574
27752WAT     H283499   1.434   5.467   2.501
27753WAT      O83500   2.993   6.940   6.127
27753WAT     H183501   3.038   6.992   6.199
27753WAT     H283502   2.926   6.877   6.167
27754WAT      O83503   2.177   9.502   0.450
27754WAT     H183504   2.202   9.539   0.540
27754WAT     H283505   2.243   9.533   0.381
27755WAT      O83506   5.120   6.439   0.091
27755WAT     H183507   5.125   6.355   0.037
27755WAT     H283508   5.156   6.516   0.037
27756WAT      O83509   4.969   5.293   9.533
27756WAT     H183510   4.973   5.235   9.452
27756WAT     H283511   4.978   5.235   9.615
27757WAT      O83512   6.839   6.011   1.547
27757WAT     H183513   6.844   6.069   1.629
27757WAT     H283514   6.776   5.935   1.564
27758WAT      O83515   3.502   4.117   1.856
27758WAT     H183516   3.407   4.146   1.872
27758WAT     H283517   3.505   4.018   1.848
27759WAT      O83518   4.960   1.587   4.180
27759WAT     H183519   4.973   1.656   4.251
27759WAT     H283520   4.928   1.631   4.096
27760WAT      O83521   5.625   8.500   5.604
27760WAT     H183522   5.539   8.449   5.596
27760WAT     H283523   5.674   8.470   5.686
27761WAT      O83524   9.464   0.134   7.232
27761WAT     H183525   9.404   0.060   7.264
27761WAT     H283526   9.454   0.213   7.293
27762WAT      O83527   4.734   2.161   3.598
27762WAT     H183528   4.696   2.127   3.512
27762WAT     H283529   4.664   2.210   3.648
27763WAT      O83530   9.055   7.232   2.941
27763WAT     H183531   9.015   7.279   2.863
27763WAT     H283532   9.073   7.297   3.014
27764WAT      O83533   9.367   4.212   4.450
27764WAT     H183534   9.429   4.175   4.519
27764WAT     H283535   9.392   4.307   4.432
27765WAT      O83536   8.430   2.869   4.186
27765WAT     H183537   8.382   2.868   4.098
27765WAT     H283538   8.363   2.877   4.260
27766WAT      O83539   4.791   7.302   2.844
27766WAT     H183540   4.720   7.343   2.901
27766WAT     H283541   4.881   7.336   2.873
27767WAT      O83542   5.116   3.739   2.332
27767WAT     H183543   5.158   3.662   2.285
27767WAT     H283544   5.156   3.749   2.423
27768WAT      O83545   9.405   6.943   9.802
27768WAT     H183546   9.483   6.927   9.863
27768WAT     H283547   9.320   6.930   9.854
27769WAT      O83548   9.158   2.088   5.423
27769WAT     H183549   9.199   2.175   5.396
27769WAT     H283550   9.070   2.077   5.377
27770WAT      O83551   1.500   9.223   6.130
27770WAT     H183552   1.539   9.247   6.219
27770WAT     H283553   1.448   9.301   6.095
27771WAT      O83554   6.777   1.849   3.360
27771WAT     H183555   6.868   1.848   3.317
27771WAT     H283556   6.716   1.906   3.306
27772WAT      O83557   8.706   0.999   9.682
27772WAT     H183558   8.790   1.006   9.736
27772WAT     H283559   8.710   1.064   9.606
27773WAT      O83560   6.558   6.113   4.887
27773WAT     H183561   6.625   6.149   4.952
27773WAT     H283562   6.466   6.127   4.923
27774WAT      O83563   1.754   5.594   5.576
27774WAT     H183564   1.817   5.631   5.507
27774WAT     H283565   1.804   5.530   5.635
27775WAT      O83566   2.761   2.372   9.780
27775WAT     H183567   2.816   2.299   9.741
27775WAT     H283568   2.786   2.459   9.736
27776WAT      O83569   0.991   4.929   6.994
27776WAT     H183570   1.069   4.990   6.975
27776WAT     H283571   1.015   4.868   7.070
27777WAT      O83572   0.960   0.504   6.466
27777WAT     H183573   1.017   0.504   6.548
27777WAT     H283574   1.005   0.557   6.394
27778WAT      O83575   2.575   9.014   8.516
27778WAT     H183576   2.559   9.085   8.448
27778WAT     H283577   2.660   8.966   8.494
27779WAT      O83578   8.619   7.382   5.664
27779WAT     H183579   8.666   7.354   5.747
27779WAT     H283580   8.673   7.357   5.584
27780WAT      O83581   0.923   6.420   1.998
27780WAT     H183582   0.922   6.394   2.095
27780WAT     H283583   0.889   6.514   1.989
27781WAT      O83584   2.775   8.660   7.373
27781WAT     H183585   2.722   8.709   7.304
27781WAT     H283586   2.870   8.654   7.345
27782WAT      O83587   5.523   6.263   3.711
27782WAT     H183588   5.483   6.172   3.722
27782WAT     H283589   5.497   6.321   3.789
27783WAT      O83590   0.652   1.238   1.581
27783WAT     H183591   0.703   1.203   1.660
27783WAT     H283592   0.695   1.204   1.497
27784WAT      O83593   1.276   0.960   5.188
27784WAT     H183594   1.186   0.957   5.231
27784WAT     H283595   1.324   1.043   5.217
27785WAT      O83596   0.263   5.637   1.472
27785WAT     H183597   0.245   5.724   1.426
27785WAT     H283598   0.263   5.651   1.571
27786WAT      O83599   7.392   2.326   8.992
27786WAT     H183600   7.420   2.334   9.088
27786WAT     H283601   7.346   2.239   8.978
27787WAT      O83602   2.850   8.895   8.417
27787WAT     H183603   2.890   8.957   8.484
27787WAT     H283604   2.898   8.807   8.418
27788WAT      O83605   8.039   4.927   4.159
27788WAT     H183606   8.067   4.874   4.239
27788WAT     H283607   8.077   4.886   4.076
27789WAT      O83608   7.820   6.124   0.033
27789WAT     H183609   7.910   6.081   0.037
27789WAT     H283610   7.788   6.125  -0.062
27790WAT      O83611   8.075   6.165   9.008
27790WAT     H183612   8.046   6.257   8.980
27790WAT     H283613   8.114   6.117   8.930
27791WAT      O83614   7.587   1.682   7.574
27791WAT     H183615   7.613   1.731   7.491
27791WAT     H283616   7.488   1.684   7.584
27792WAT      O83617   0.080   3.178   7.240
27792WAT     H183618   0.091   3.171   7.339
27792WAT     H283619  -0.007   3.136   7.213
27793WAT      O83620   7.482   4.673   9.199
27793WAT     H183621   7.533   4.631   9.124
27793WAT     H283622   7.523   4.644   9.286
27794WAT      O83623   9.315   1.182   4.657
27794WAT     H183624   9.325   1.205   4.560
27794WAT     H283625   9.406   1.166   4.696
27795WAT      O83626   8.667   1.610   9.378
27795WAT     H183627   8.654   1.575   9.285
27795WAT     H283628   8.761   1.644   9.388
27796WAT      O83629   2.078   6.569   0.602
27796WAT     H183630   2.147   6.580   0.674
27796WAT     H283631   2.002   6.514   0.637
27797WAT      O83632   6.330   4.683   1.030
27797WAT     H183633   6.399   4.749   1.061
27797WAT     H283634   6.349   4.659   0.935
27798WAT      O83635   2.765   1.818   6.484
27798WAT     H183636   2.742   1.892   6.547
27798WAT     H283637   2.754   1.730   6.530
27799WAT      O83638   5.539   1.410   9.214
27799WAT     H183639   5.551   1.457   9.126
27799WAT     H283640   5.621   1.422   9.269
27800WAT      O83641   3.113   9.528   3.953
27800WAT     H183642   3.042   9.544   3.884
27800WAT     H283643   3.077   9.470   4.025
27801WAT      O83644   6.269   8.748   8.357
27801WAT     H183645   6.316   8.835   8.371
27801WAT     H283646   6.204   8.757   8.282
27802WAT      O83647   1.382   2.293   0.229
27802WAT     H183648   1.369   2.301   0.328
27802WAT     H283649   1.479   2.309   0.206
27803WAT      O83650   1.805   1.489   7.911
27803WAT     H183651   1.846   1.545   7.983
27803WAT     H283652   1.714   1.458   7.941
27804WAT      O83653   1.599   9.429   9.471
27804WAT     H183654   1.631   9.504   9.530
27804WAT     H283655   1.661   9.419   9.393
27805WAT      O83656   3.044   0.775   8.000
27805WAT     H183657   3.060   0.774   8.099
27805WAT     H283658   2.951   0.743   7.981
27806WAT      O83659   3.710   8.085   0.945
27806WAT     H183660   3.738   8.021   1.017
27806WAT     H283661   3.708   8.178   0.981
27807WAT      O83662   1.490   8.183   4.252
27807WAT     H183663   1.587   8.160   4.254
27807WAT     H283664   1.476   8.264   4.195
27808WAT      O83665   8.993   9.427   0.695
27808WAT     H183666   9.024   9.487   0.769
27808WAT     H283667   8.946   9.348   0.735
27809WAT      O83668   5.411   9.154   1.826
27809WAT     H183669   5.333   9.152   1.764
27809WAT     H283670   5.461   9.067   1.819
27810WAT      O83671   1.880   1.089   3.219
27810WAT     H183672   1.867   1.013   3.283
27810WAT     H283673   1.973   1.126   3.230
27811WAT      O83674   1.014   9.209   3.303
27811WAT     H183675   0.919   9.221   3.332
27811WAT     H283676   1.049   9.296   3.268
27812WAT      O83677   2.189   0.272   9.097
27812WAT     H183678   2.130   0.294   9.019
27812WAT     H283679   2.284   0.288   9.072
27813WAT      O83680   9.820   4.435   1.660
27813WAT     H183681   9.824   4.335   1.650
27813WAT     H283682   9.725   4.465   1.647
27814WAT      O83683   1.543   0.996   0.499
27814WAT     H183684   1.574   1.084   0.462
27814WAT     H283685   1.463   0.964   0.449
27815WAT      O83686   3.889   0.109   0.736
27815WAT     H183687   3.819   0.161   0.785
27815WAT     H283688   3.979   0.144   0.760
27816WAT      O83689   6.921   9.136   7.231
27816WAT     H183690   6.905   9.043   7.197
27816WAT     H283691   7.019   9.155   7.230
27817WAT      O83692   5.088   3.765   0.686
27817WAT     H183693   5.029   3.835   0.646
27817WAT     H283694   5.115   3.793   0.779
27818WAT      O83695   6.409   0.510   9.379
27818WAT     H183696   6.411   0.607   9.405
27818WAT     H283697   6.387   0.502   9.282
27819WAT      O83698   0.771   7.577   2.674
27819WAT     H183699   0.750   7.482   2.651
27819WAT     H283700   0.868   7.595   2.657
27820WAT      O83701   9.270   8.319   4.448
27820WAT     H183702   9.237   8.242   4.503
27820WAT     H283703   9.358   8.349   4.483
27821WAT      O83704   0.002   6.191   7.132
27821WAT     H183705   0.095   6.228   7.134
27821WAT     H283706  -0.059   6.251   7.184
27822WAT      O83707   6.484   0.949   8.879
27822WAT     H183708   6.481   0.920   8.783
27822WAT     H283709   6.442   1.039   8.887
27823WAT      O83710   2.910   9.306   3.903
27823WAT     H183711   2.814   9.303   3.875
27823WAT     H283712   2.961   9.235   3.856
27824WAT      O83713   7.642   6.112   1.710
27824WAT     H183714   7.698   6.188   1.676
27824WAT     H283715   7.659   6.101   1.808
27825WAT      O83716   0.109   3.526   8.035
27825WAT     H183717   0.113   3.558   7.940
27825WAT     H283718   0.022   3.554   8.076
27826WAT      O83719   1.932   3.685   4.998
27826WAT     H183720   1.872   3.753   4.957
27826WAT     H283721   1.878   3.607   5.029
27827WAT      O83722   9.365   3.479   6.200
27827WAT     H183723   9.440   3.430   6.154
27827WAT     H283724   9.304   3.413   6.244
27828WAT      O83725   5.092   0.360   3.280
27828WAT     H183726   5.044   0.346   3.193
27828WAT     H283727   5.068   0.287   3.344
27829WAT      O83728   0.905   1.317   8.139
27829WAT     H183729   0.953   1.240   8.096
27829WAT     H283730   0.816   1.286   8.173
27830WAT      O83731   6.254   5.383   5.328
27830WAT     H183732   6.257   5.314   5.257
27830WAT     H283733   6.260   5.340   5.418
27831WAT      O83734   9.016   1.261   9.538
27831WAT     H183735   9.090   1.208   9.579
27831WAT     H283736   9.052   1.314   9.461
27832WAT      O83737   8.493   8.920   9.463
27832WAT     H183738   8.504   8.841   9.523
27832WAT     H283739   8.432   8.897   9.387
27833WAT      O83740   8.625   0.505   2.837
27833WAT     H183741   8.663   0.434   2.778
27833WAT     H283742   8.579   0.575   2.782
27834WAT      O83743   6.563   7.907   6.536
27834WAT     H183744   6.537   7.819   6.497
27834WAT     H283745   6.483   7.953   6.574
27835WAT      O83746   5.148   9.394   5.974
27835WAT     H183747   5.057   9.433   5.988
27835WAT     H283748   5.152   9.304   6.019
27836WAT      O83749   6.077   4.228   4.871
27836WAT     H183750   6.175   4.248   4.877
27836WAT     H283751   6.035   4.289   4.803
27837WAT      O83752   9.078   5.810   7.166
27837WAT     H183753   9.118   5.790   7.077
27837WAT     H283754   9.072   5.726   7.220
27838WAT      O83755   2.607   5.773   6.418
27838WAT     H183756   2.563   5.728   6.341
27838WAT     H283757   2.537   5.803   6.483
27839WAT      O83758   6.439   2.388   1.273
27839WAT     H183759   6.409   2.482   1.291
27839WAT     H283760   6.364   2.325   1.292
27840WAT      O83761   3.605   4.537   1.710
27840WAT     H183762   3.596   4.578   1.801
27840WAT     H283763   3.527   4.563   1.654
27841WAT      O83764   1.115   3.442   5.410
27841WAT     H183765   1.120   3.384   5.329
27841WAT     H283766   1.180   3.409   5.478
27842WAT      O83767   6.383   1.309   8.298
27842WAT     H183768   6.295   1.354   8.312
27842WAT     H283769   6.404   1.250   8.376
27843WAT      O83770   1.775   2.653   6.131
27843WAT     H183771   1.826   2.575   6.166
27843WAT     H283772   1.679   2.647   6.160
27844WAT      O83773   1.478   2.602   2.683
27844WAT     H183774   1.539   2.528   2.653
27844WAT     H283775   1.504   2.687   2.637
27845WAT      O83776   0.968   1.809   7.488
27845WAT     H183777   1.052   1.802   7.433
27845WAT     H283778   0.889   1.784   7.431
27846WAT      O83779   7.561   4.542   8.967
27846WAT     H183780   7.527   4.546   8.873
27846WAT     H283781   7.596   4.450   8.986
27847WAT      O83782   0.023   0.343   9.351
27847WAT     H183783  -0.057   0.286   9.368
27847WAT     H283784   0.020   0.423   9.411
27848WAT      O83785   0.302   0.146   0.535
27848WAT     H183786   0.321   0.104   0.624
27848WAT     H283787   0.206   0.172   0.531
27849WAT      O83788   2.684   7.431   5.435
27849WAT     H183789   2.732   7.343   5.434
27849WAT     H283790   2.750   7.505   5.439
27850WAT      O83791   3.995   0.791   8.823
27850WAT     H183792   4.002   0.762   8.728
27850WAT     H283793   3.972   0.889   8.827
27851WAT      O83794   0.092   0.879   8.902
27851WAT     H183795   0.006   0.925   8.925
27851WAT     H283796   0.075   0.812   8.830
27852WAT      O83797   8.530   4.647   1.170
27852WAT     H183798   8.570   4.571   1.221
27852WAT     H283799   8.431   4.638   1.168
27853WAT      O83800   0.726   5.011   9.078
27853WAT     H183801   0.749   5.019   9.175
27853WAT     H283802   0.626   5.015   9.068
27854WAT      O83803   4.650   0.796   1.609
27854WAT     H183804   4.711   0.786   1.530
27854WAT     H283805   4.648   0.892   1.637
27855WAT      O83806   1.730   4.013   5.825
27855WAT     H183807   1.682   4.030   5.911
27855WAT     H283808   1.663   3.996   5.753
27856WAT      O83809   1.539   8.551   9.001
27856WAT     H183810   1.590   8.553   8.915
27856WAT     H283811   1.594   8.508   9.072
27857WAT      O83812   6.085   4.557   7.397
27857WAT     H183813   6.113   4.522   7.307
27857WAT     H283814   6.134   4.642   7.416
27858WAT      O83815   0.025   7.675   4.687
27858WAT     H183816  -0.048   7.715   4.631
27858WAT     H283817   0.076   7.749   4.732
27859WAT      O83818   3.020   4.851   6.475
27859WAT     H183819   3.005   4.923   6.407
27859WAT     H283820   2.932   4.818   6.508
27860WAT      O83821   3.812   2.908   9.358
27860WAT     H183822   3.739   2.976   9.367
27860WAT     H283823   3.895   2.952   9.325
27861WAT      O83824   5.007   7.436   8.651
27861WAT     H183825   4.944   7.457   8.577
27861WAT     H283826   5.037   7.340   8.644
27862WAT      O83827   7.412   6.323   4.627
27862WAT     H183828   7.422   6.406   4.683
27862WAT     H283829   7.396   6.349   4.532
27863WAT      O83830   5.597   0.379   3.045
27863WAT     H183831   5.673   0.320   3.017
27863WAT     H283832   5.555   0.420   2.964
27864WAT      O83833   7.027   8.006   6.002
27864WAT     H183834   6.956   7.961   6.057
27864WAT     H283835   7.080   7.936   5.953
27865WAT      O83836   0.825   2.902   9.336
27865WAT     H183837   0.786   2.848   9.261
27865WAT     H283838   0.845   2.842   9.413
27866WAT      O83839   6.876   6.479   7.837
27866WAT     H183840   6.934   6.478   7.756
27866WAT     H283841   6.912   6.544   7.904
27867WAT      O83842   5.826   0.073   8.884
27867WAT     H183843   5.731   0.041   8.881
27867WAT     H283844   5.880   0.011   8.940
27868WAT      O83845   6.763   5.167   6.248
27868WAT     H183846   6.764   5.197   6.343
27868WAT     H283847   6.731   5.072   6.244
27869WAT      O83848   2.241   8.132   4.599
27869WAT     H183849   2.161   8.175   4.555
27869WAT     H283850   2.264   8.184   4.682
27870WAT      O83851   2.896   0.639   3.436
27870WAT     H183852   2.989   0.652   3.468
27870WAT     H283853   2.841   0.597   3.509
27871WAT      O83854   6.048   7.905   3.030
27871WAT     H183855   6.143   7.895   3.061
27871WAT     H283856   6.007   7.985   3.074
27872WAT      O83857   7.918   0.871   6.607
27872WAT     H183858   7.960   0.958   6.582
27872WAT     H283859   7.850   0.885   6.679
27873WAT      O83860   1.018   1.847   6.061
27873WAT     H183861   1.036   1.867   5.965
27873WAT     H283862   1.025   1.932   6.114
27874WAT      O83863   5.242   2.235   1.274
27874WAT     H183864   5.238   2.140   1.305
27874WAT     H283865   5.163   2.255   1.216
27875WAT      O83866   3.553   5.370   3.793
27875WAT     H183867   3.553   5.389   3.891
27875WAT     H283868   3.561   5.271   3.779
27876WAT      O83869   4.665   7.721   8.155
27876WAT     H183870   4.763   7.730   8.171
27876WAT     H283871   4.634   7.633   8.190
27877WAT      O83872   9.037   7.776   8.389
27877WAT     H183873   9.054   7.849   8.455
27877WAT     H283874   9.124   7.743   8.352
27878WAT      O83875   3.248   9.542   8.083
27878WAT     H183876   3.183   9.597   8.032
27878WAT     H283877   3.274   9.590   8.167
27879WAT      O83878   0.509   7.532   6.355
27879WAT     H183879   0.528   7.604   6.289
27879WAT     H283880   0.533   7.443   6.316
27880WAT      O83881   7.354   6.424   4.941
27880WAT     H183882   7.453   6.411   4.942
27880WAT     H283883   7.330   6.498   5.004
27881WAT      O83884   1.140   6.174   0.323
27881WAT     H183885   1.116   6.238   0.396
27881WAT     H283886   1.106   6.083   0.347
27882WAT      O83887   1.817   8.382   8.031
27882WAT     H183888   1.724   8.349   8.016
27882WAT     H283889   1.876   8.305   8.054
27883WAT      O83890   4.295   6.665   9.671
27883WAT     H183891   4.346   6.732   9.618
27883WAT     H283892   4.352   6.585   9.689
27884WAT      O83893   4.112   5.188   6.806
27884WAT     H183894   4.151   5.229   6.724
27884WAT     H283895   4.012   5.196   6.803
27885WAT      O83896   3.130   2.721   1.545
27885WAT     H183897   3.210   2.781   1.547
27885WAT     H283898   3.066   2.753   1.476
27886WAT      O83899   9.420   5.222   5.952
27886WAT     H183900   9.324   5.204   5.974
27886WAT     H283901   9.478   5.154   5.997
27887WAT      O83902   2.871   6.609   1.421
27887WAT     H183903   2.810   6.620   1.499
27887WAT     H283904   2.964   6.634   1.448
27888WAT      O83905   8.302   8.142   6.290
27888WAT     H183906   8.253   8.138   6.203
27888WAT     H283907   8.400   8.151   6.272
27889WAT      O83908   9.397   7.145   0.286
27889WAT     H183909   9.378   7.130   0.383
27889WAT     H283910   9.458   7.224   0.276
27890WAT      O83911   3.568   3.040   0.882
27890WAT     H183912   3.482   3.086   0.858
27890WAT     H283913   3.612   3.088   0.958
27891WAT      O83914   5.473   7.815   8.788
27891WAT     H183915   5.453   7.886   8.721
27891WAT     H283916   5.424   7.835   8.873
27892WAT      O83917   0.077   0.240   5.067
27892WAT     H183918   0.132   0.286   5.137
27892WAT     H283919   0.087   0.141   5.078
27893WAT      O83920   2.904   7.910   6.985
27893WAT     H183921   2.874   7.864   7.068
27893WAT     H283922   2.871   7.860   6.905
27894WAT      O83923   0.515   4.591   0.533
27894WAT     H183924   0.458   4.632   0.605
27894WAT     H283925   0.608   4.581   0.566
27895WAT      O83926   6.614   3.738   0.747
27895WAT     H183927   6.570   3.789   0.673
27895WAT     H283928   6.544   3.696   0.805
27896WAT      O83929   5.935   3.463   3.041
27896WAT     H183930   5.934   3.563   3.030
27896WAT     H283931   6.024   3.434   3.075
27897WAT      O83932   9.243   2.482   1.590
27897WAT     H183933   9.223   2.579   1.605
27897WAT     H283934   9.219   2.457   1.496
27898WAT      O83935   8.398   6.970   5.174
27898WAT     H183936   8.416   6.938   5.081
27898WAT     H283937   8.445   7.057   5.189
27899WAT      O83938   6.286   8.703   4.838
27899WAT     H183939   6.296   8.802   4.846
27899WAT     H283940   6.199   8.674   4.876
27900WAT      O83941   5.353   9.337   3.179
27900WAT     H183942   5.263   9.344   3.224
27900WAT     H283943   5.413   9.279   3.235
27901WAT      O83944   9.462   2.605   6.421
27901WAT     H183945   9.554   2.574   6.448
27901WAT     H283946   9.407   2.619   6.503
27902WAT      O83947   2.445   9.168   2.941
27902WAT     H183948   2.386   9.246   2.919
27902WAT     H283949   2.539   9.199   2.951
27903WAT      O83950   6.235   2.736   9.741
27903WAT     H183951   6.177   2.682   9.803
27903WAT     H283952   6.260   2.822   9.785
27904WAT      O83953   8.478   4.104   9.483
27904WAT     H183954   8.419   4.138   9.410
27904WAT     H283955   8.545   4.040   9.444
27905WAT      O83956   3.075   3.867   1.337
27905WAT     H183957   3.029   3.803   1.275
27905WAT     H283958   3.166   3.888   1.302
27906WAT      O83959   2.929   1.857   6.267
27906WAT     H183960   2.859   1.849   6.339
27906WAT     H283961   2.937   1.953   6.240
27907WAT      O83962   9.562   8.429   3.835
27907WAT     H183963   9.472   8.394   3.810
27907WAT     H283964   9.612   8.454   3.751
27908WAT      O83965   5.397   0.291   4.205
27908WAT     H183966   5.452   0.275   4.286
27908WAT     H283967   5.457   0.307   4.126
27909WAT      O83968   2.052   6.993   6.782
27909WAT     H183969   2.008   7.082   6.796
27909WAT     H283970   2.018   6.927   6.848
27910WAT      O83971   7.754   8.282   1.620
27910WAT     H183972   7.827   8.343   1.650
27910WAT     H283973   7.723   8.226   1.697
27911WAT      O83974   0.862   5.122   2.164
27911WAT     H183975   0.933   5.167   2.219
27911WAT     H283976   0.777   5.174   2.172
27912WAT      O83977   2.560   2.844   3.813
27912WAT     H183978   2.514   2.889   3.890
27912WAT     H283979   2.508   2.861   3.729
27913WAT      O83980   3.118   1.895   4.520
27913WAT     H183981   3.045   1.850   4.571
27913WAT     H283982   3.140   1.982   4.563
27914WAT      O83983   5.510   8.346   2.553
27914WAT     H183984   5.453   8.422   2.584
27914WAT     H283985   5.466   8.260   2.577
27915WAT      O83986   4.946   6.064   8.949
27915WAT     H183987   5.031   6.073   8.897
27915WAT     H283988   4.876   6.021   8.893
27916WAT      O83989   9.153   6.944   0.548
27916WAT     H183990   9.102   6.905   0.625
27916WAT     H283991   9.094   7.005   0.496
27917WAT      O83992   8.637   8.997   5.740
27917WAT     H183993   8.717   9.053   5.762
27917WAT     H283994   8.579   9.047   5.676
27918WAT      O83995   6.570   2.497   3.040
27918WAT     H183996   6.661   2.469   3.009
27918WAT     H283997   6.571   2.594   3.064
27919WAT      O83998   8.200   1.327   6.065
27919WAT     H183999   8.147   1.366   5.990
27919WAT     H284000   8.259   1.398   6.104
27920WAT      O84001   5.729   9.769   1.179
27920WAT     H184002   5.735   9.855   1.230
27920WAT     H284003   5.749   9.692   1.241
27921WAT      O84004   2.748   7.021   0.142
27921WAT     H184005   2.810   6.958   0.096
27921WAT     H284006   2.655   6.986   0.137
27922WAT      O84007   9.534   3.900   8.119
27922WAT     H184008   9.442   3.880   8.151
27922WAT     H284009   9.540   3.997   8.094
27923WAT      O84010   6.080   2.705   4.909
27923WAT     H184011   6.147   2.637   4.882
27923WAT     H284012   6.123   2.795   4.914
27924WAT      O84013   8.041   6.231   2.961
27924WAT     H184014   8.117   6.173   2.992
27924WAT     H284015   7.962   6.217   3.021
27925WAT      O84016   9.540   0.728   5.605
27925WAT     H184017   9.521   0.783   5.524
27925WAT     H284018   9.483   0.646   5.605
27926WAT      O84019   1.043   3.811   2.159
27926WAT     H184020   0.969   3.747   2.138
27926WAT     H284021   1.099   3.775   2.233
27927WAT      O84022   7.398   7.663   0.546
27927WAT     H184023   7.482   7.714   0.562
27927WAT     H284024   7.393   7.638   0.449
27928WAT      O84025   3.089   7.493   3.497
27928WAT     H184026   3.038   7.418   3.538
27928WAT     H284027   3.026   7.557   3.453
27929WAT      O84028   2.503   7.797   5.702
27929WAT     H184029   2.410   7.771   5.728
27929WAT     H284030   2.568   7.761   5.769
27930WAT      O84031   0.940   8.471   0.435
27930WAT     H184032   0.878   8.523   0.493
27930WAT     H284033   0.888   8.405   0.381
27931WAT      O84034   1.012   6.879   2.064
27931WAT     H184035   1.027   6.973   2.096
27931WAT     H284036   1.027   6.876   1.965
27932WAT      O84037   6.815   8.737   2.902
27932WAT     H184038   6.722   8.722   2.868
27932WAT     H284039   6.848   8.655   2.949
27933WAT      O84040   0.720   6.331   5.344
27933WAT     H184041   0.678   6.385   5.271
27933WAT     H284042   0.768   6.253   5.304
27934WAT      O84043   9.736   1.622   7.350
27934WAT     H184044   9.821   1.655   7.310
27934WAT     H284045   9.681   1.700   7.380
27935WAT      O84046   1.847   2.650   9.721
27935WAT     H184047   1.887   2.734   9.684
27935WAT     H284048   1.906   2.572   9.697
27936WAT      O84049   8.082   7.044   8.455
27936WAT     H184050   8.079   7.058   8.554
27936WAT     H284051   8.085   7.133   8.409
27937WAT      O84052   1.927   0.511   4.163
27937WAT     H184053   2.007   0.529   4.221
27937WAT     H284054   1.955   0.454   4.085
27938WAT      O84055   8.605   6.110   8.905
27938WAT     H184056   8.610   6.053   8.822
27938WAT     H284057   8.697   6.135   8.933
27939WAT      O84058   8.820   8.404   5.319
27939WAT     H184059   8.801   8.439   5.227
27939WAT     H284060   8.877   8.322   5.312
27940WAT      O84061   3.002   2.592   0.812
27940WAT     H184062   2.971   2.509   0.765
27940WAT     H284063   3.059   2.565   0.891
27941WAT      O84064   3.286   7.417   1.789
27941WAT     H184065   3.317   7.425   1.884
27941WAT     H284066   3.355   7.370   1.735
27942WAT      O84067   8.578   6.875   4.771
27942WAT     H184068   8.545   6.845   4.861
27942WAT     H284069   8.651   6.941   4.782
27943WAT      O84070   3.419   7.739   2.750
27943WAT     H184071   3.495   7.674   2.742
27943WAT     H284072   3.337   7.690   2.778
27944WAT      O84073   8.768   8.605   7.623
27944WAT     H184074   8.798   8.665   7.698
27944WAT     H284075   8.847   8.579   7.568
27945WAT      O84076   4.451   6.809   9.454
27945WAT     H184077   4.440   6.745   9.378
27945WAT     H284078   4.364   6.852   9.474
27946WAT      O84079   8.026   0.548   7.442
27946WAT     H184080   8.053   0.512   7.531
27946WAT     H284081   7.952   0.491   7.404
27947WAT      O84082   1.107   1.089   6.053
27947WAT     H184083   1.030   1.144   6.085
27947WAT     H284084   1.141   1.127   5.967
27948WAT      O84085   4.962   6.418   8.247
27948WAT     H184086   4.863   6.415   8.237
27948WAT     H284087   4.987   6.394   8.341
27949WAT      O84088   0.015   1.473   6.820
27949WAT     H184089  -0.018   1.380   6.837
27949WAT     H284090  -0.063   1.535   6.814
27950WAT      O84091   4.158   7.284   1.395
27950WAT     H184092   4.124   7.225   1.322
27950WAT     H284093   4.222   7.351   1.357
27951WAT      O84094   5.518   0.651   8.822
27951WAT     H184095   5.435   0.602   8.796
27951WAT     H284096   5.530   0.646   8.921
27952WAT      O84097   9.641   7.178   8.439
27952WAT     H184098   9.643   7.274   8.412
27952WAT     H284099   9.697   7.124   8.376
27953WAT      O84100   9.016   1.063   3.094
27953WAT     H184101   9.063   0.988   3.140
27953WAT     H284102   9.081   1.136   3.073
27954WAT      O84103   9.474   8.173   9.542
27954WAT     H184104   9.568   8.154   9.572
27954WAT     H284105   9.436   8.249   9.594
27955WAT      O84106   0.223   0.726   3.538
27955WAT     H184107   0.125   0.740   3.552
27955WAT     H284108   0.250   0.638   3.577
27956WAT      O84109   4.582   5.036   0.133
27956WAT     H184110   4.551   4.989   0.050
27956WAT     H284111   4.616   5.127   0.108
27957WAT      O84112   2.442   3.700   9.619
27957WAT     H184113   2.425   3.796   9.639
27957WAT     H284114   2.478   3.690   9.526
27958WAT      O84115   0.376   3.730   3.537
27958WAT     H184116   0.291   3.741   3.487
27958WAT     H284117   0.441   3.677   3.482
27959WAT      O84118   2.991   5.440   2.821
27959WAT     H184119   2.932   5.512   2.859
27959WAT     H284120   3.065   5.421   2.886
27960WAT      O84121   8.467   0.845   5.449
27960WAT     H184122   8.387   0.790   5.425
27960WAT     H284123   8.464   0.931   5.399
27961WAT      O84124   3.314   1.566   6.378
27961WAT     H184125   3.216   1.586   6.372
27961WAT     H284126   3.358   1.591   6.291
27962WAT      O84127   2.886   0.240   3.359
27962WAT     H184128   2.938   0.267   3.440
27962WAT     H284129   2.790   0.262   3.374
27963WAT      O84130   5.465   0.715   3.119
27963WAT     H184131   5.384   0.766   3.092
27963WAT     H284132   5.451   0.677   3.211
27964WAT      O84133   0.362   4.553   2.794
27964WAT     H184134   0.332   4.501   2.714
27964WAT     H284135   0.462   4.560   2.795
27965WAT      O84136   6.243   2.825   3.091
27965WAT     H184137   6.281   2.821   3.183
27965WAT     H284138   6.251   2.735   3.047
27966WAT      O84139   1.832   0.713   2.461
27966WAT     H184140   1.867   0.644   2.397
27966WAT     H284141   1.898   0.727   2.534
27967WAT      O84142   4.732   3.082   7.132
27967WAT     H184143   4.727   3.177   7.164
27967WAT     H284144   4.704   3.078   7.036
27968WAT      O84145   3.140   1.218   2.152
27968WAT     H184146   3.207   1.251   2.086
27968WAT     H284147   3.125   1.120   2.138
27969WAT      O84148   5.066   8.057   2.609
27969WAT     H184149   5.018   7.996   2.673
27969WAT     H284150   5.138   8.006   2.563
27970WAT      O84151   2.210   8.958   6.603
27970WAT     H184152   2.267   8.981   6.683
27970WAT     H284153   2.230   8.865   6.574
27971WAT      O84154   6.339   1.689   8.447
27971WAT     H184155   6.284   1.728   8.372
27971WAT     H284156   6.333   1.748   8.527
27972WAT      O84157   1.791   9.412   8.171
27972WAT     H184158   1.770   9.446   8.262
27972WAT     H284159   1.855   9.474   8.126
27973WAT      O84160   1.090   5.606   0.422
27973WAT     H184161   1.067   5.623   0.326
27973WAT     H284162   1.164   5.538   0.427
27974WAT      O84163   4.368   2.071   6.782
27974WAT     H184164   4.311   1.992   6.758
27974WAT     H284165   4.441   2.081   6.714
27975WAT      O84166   8.723   3.278   2.672
27975WAT     H184167   8.722   3.215   2.750
27975WAT     H284168   8.768   3.234   2.595
27976WAT      O84169   0.477   4.522   0.958
27976WAT     H184170   0.424   4.566   0.884
27976WAT     H284171   0.422   4.451   1.001
27977WAT      O84172   1.939   5.575   5.357
27977WAT     H184173   2.037   5.554   5.348
27977WAT     H284174   1.913   5.642   5.287
27978WAT      O84175   9.407   5.091   8.132
27978WAT     H184176   9.385   5.089   8.034
27978WAT     H284177   9.434   4.999   8.161
27979WAT      O84178   9.033   2.802   4.024
27979WAT     H184179   9.016   2.799   3.926
27979WAT     H284180   8.949   2.779   4.073
27980WAT      O84181   8.284   4.196   9.308
27980WAT     H184182   8.245   4.220   9.220
27980WAT     H284183   8.238   4.114   9.343
27981WAT      O84184   2.771   2.149   0.646
27981WAT     H184185   2.728   2.087   0.711
27981WAT     H284186   2.703   2.183   0.581
27982WAT      O84187   5.738   9.274   5.693
27982WAT     H184188   5.643   9.262   5.720
27982WAT     H284189   5.778   9.350   5.744
27983WAT      O84190   1.529   5.642   7.085
27983WAT     H184191   1.613   5.652   7.138
27983WAT     H284192   1.467   5.580   7.134
27984WAT      O84193   6.326   5.659   5.945
27984WAT     H184194   6.348   5.754   5.969
27984WAT     H284195   6.228   5.651   5.929
27985WAT      O84196   0.350   4.997   8.264
27985WAT     H184197   0.379   4.999   8.360
27985WAT     H284198   0.374   4.909   8.224
27986WAT      O84199   0.236   1.983   9.076
27986WAT     H184200   0.303   1.910   9.081
27986WAT     H284201   0.218   2.017   9.169
27987WAT      O84202   8.737   3.667   6.722
27987WAT     H184203   8.790   3.729   6.664
27987WAT     H284204   8.733   3.703   6.815
27988WAT      O84205   1.103   8.933   3.295
27988WAT     H184206   1.053   9.019   3.304
27988WAT     H284207   1.042   8.863   3.260
27989WAT      O84208   0.047   9.625   6.669
27989WAT     H184209   0.119   9.622   6.739
27989WAT     H284210   0.087   9.602   6.580
27990WAT      O84211   1.104   7.746   1.269
27990WAT     H184212   1.099   7.777   1.174
27990WAT     H284213   1.064   7.816   1.329
27991WAT      O84214   6.191   8.749   0.226
27991WAT     H184215   6.108   8.786   0.269
27991WAT     H284216   6.175   8.737   0.128
27992WAT      O84217   0.606   3.465   1.873
27992WAT     H184218   0.621   3.422   1.962
27992WAT     H284219   0.508   3.468   1.854
27993WAT      O84220   3.816   4.800   0.374
27993WAT     H184221   3.895   4.747   0.404
27993WAT     H284222   3.817   4.807   0.274
27994WAT      O84223   0.177   0.526   7.168
27994WAT     H184224   0.164   0.604   7.229
27994WAT     H284225   0.271   0.526   7.133
27995WAT      O84226   7.657   6.713   3.452
27995WAT     H184227   7.630   6.732   3.547
27995WAT     H284228   7.705   6.793   3.415
27996WAT      O84229   9.508   8.368   6.073
27996WAT     H184230   9.410   8.377   6.060
27996WAT     H284231   9.534   8.271   6.065
27997WAT      O84232   5.742   7.753   5.160
27997WAT     H184233   5.783   7.732   5.249
27997WAT     H284234   5.647   7.780   5.172
27998WAT      O84235   5.031   2.701   5.333
27998WAT     H184236   5.086   2.656   5.404
27998WAT     H284237   4.934   2.686   5.351
27999WAT      O84238   0.308   6.758   4.095
27999WAT     H184239   0.266   6.742   4.005
27999WAT     H284240   0.306   6.855   4.116
28000WAT      O84241   9.467   6.407   5.774
28000WAT     H184242   9.394   6.454   5.725
28000WAT     H284243   9.430   6.329   5.823
28001WAT      O84244   6.792   0.763   8.616
28001WAT     H184245   6.835   0.840   8.664
28001WAT     H284246   6.841   0.746   8.530
28002WAT      O84247   1.755   7.929   0.489
28002WAT     H184248   1.809   7.920   0.405
28002WAT     H284249   1.794   8.003   0.544
28003WAT      O84250   2.939   2.487   0.397
28003WAT     H184251   3.034   2.458   0.384
28003WAT     H284252   2.932   2.586   0.384
28004WAT      O84253   8.632   1.622   2.870
28004WAT     H184254   8.569   1.681   2.922
28004WAT     H284255   8.584   1.586   2.790
28005WAT      O84256   7.005   3.705   5.869
28005WAT     H184257   7.078   3.667   5.812
28005WAT     H284258   7.023   3.681   5.965
28006WAT      O84259   5.015   1.634   7.869
28006WAT     H184260   5.107   1.670   7.856
28006WAT     H284261   4.983   1.591   7.784
28007WAT      O84262   5.909   3.735   3.008
28007WAT     H184263   5.853   3.720   2.927
28007WAT     H284264   5.984   3.798   2.986
28008WAT      O84265   7.294   8.750   5.128
28008WAT     H184266   7.368   8.754   5.061
28008WAT     H284267   7.206   8.747   5.081
28009WAT      O84268   8.936   2.190   2.369
28009WAT     H184269   8.945   2.243   2.285
28009WAT     H284270   8.956   2.094   2.351
28010WAT      O84271   6.995   7.753   0.323
28010WAT     H184272   6.955   7.799   0.403
28010WAT     H284273   7.077   7.801   0.294
28011WAT      O84274   9.102   7.457   4.505
28011WAT     H184275   9.179   7.433   4.446
28011WAT     H284276   9.116   7.419   4.596
28012WAT      O84277   3.856   4.483   7.305
28012WAT     H184278   3.857   4.384   7.293
28012WAT     H284279   3.887   4.507   7.397
28013WAT      O84280   0.917   1.719   3.110
28013WAT     H184281   0.842   1.697   3.049
28013WAT     H284282   0.920   1.818   3.124
28014WAT      O84283   7.895   4.206   6.580
28014WAT     H184284   7.944   4.245   6.502
28014WAT     H284285   7.910   4.107   6.583
28015WAT      O84286   1.371   7.555   9.242
28015WAT     H184287   1.369   7.508   9.154
28015WAT     H284288   1.281   7.595   9.260
28016WAT      O84289   8.255   6.054   3.078
28016WAT     H184290   8.242   5.959   3.048
28016WAT     H284291   8.287   6.055   3.172
28017WAT      O84292   8.278   9.108   8.937
28017WAT     H184293   8.331   9.142   9.014
28017WAT     H284294   8.212   9.040   8.970
28018WAT      O84295   4.257   5.942   3.543
28018WAT     H184296   4.262   5.973   3.448
28018WAT     H284297   4.344   5.958   3.588
28019WAT      O84298   5.942   9.434   4.061
28019WAT     H184299   5.875   9.508   4.069
28019WAT     H284300   6.023   9.467   4.013
28020WAT      O84301   4.265   1.452   9.803
28020WAT     H184302   4.327   1.502   9.864
28020WAT     H284303   4.179   1.503   9.795
28021WAT      O84304   0.721   3.969   6.911
28021WAT     H184305   0.661   4.029   6.964
28021WAT     H284306   0.668   3.890   6.879
28022WAT      O84307   9.606   9.793   4.090
28022WAT     H184308   9.635   9.885   4.115
28022WAT     H284309   9.593   9.738   4.172
28023WAT      O84310   5.589   3.159   2.031
28023WAT     H184311   5.491   3.176   2.018
28023WAT     H284312   5.632   3.239   2.073
28024WAT      O84313   6.270   8.258   1.634
28024WAT     H184314   6.270   8.226   1.729
28024WAT     H284315   6.238   8.352   1.630
28025WAT      O84316   0.413   2.756   4.227
28025WAT     H184317   0.398   2.682   4.293
28025WAT     H284318   0.411   2.844   4.275
28026WAT      O84319   4.143   6.106   3.309
28026WAT     H184320   4.148   6.187   3.250
28026WAT     H284321   4.108   6.132   3.399
28027WAT      O84322   4.695   3.147   8.012
28027WAT     H184323   4.601   3.163   8.041
28027WAT     H284324   4.738   3.234   7.986
28028WAT      O84325   2.834   1.796   1.996
28028WAT     H184326   2.860   1.701   1.977
28028WAT     H284327   2.800   1.803   2.089
28029WAT      O84328   7.686   9.627   6.882
28029WAT     H184329   7.588   9.615   6.895
28029WAT     H284330   7.725   9.544   6.842
28030WAT      O84331   7.070   8.311   3.198
28030WAT     H184332   7.110   8.238   3.141
28030WAT     H284333   6.971   8.309   3.188
28031WAT      O84334   5.461   6.029   8.496
28031WAT     H184335   5.505   5.993   8.414
28031WAT     H284336   5.501   5.987   8.578
28032WAT      O84337   6.396   1.325   3.868
28032WAT     H184338   6.332   1.334   3.792
28032WAT     H284339   6.490   1.323   3.832
28033WAT      O84340   9.309   6.423   7.994
28033WAT     H184341   9.237   6.364   8.032
28033WAT     H284342   9.397   6.376   8.000
28034WAT      O84343   6.053   8.260   4.647
28034WAT     H184344   6.085   8.353   4.629
28034WAT     H284345   5.959   8.251   4.612
28035WAT      O84346   1.076   7.243   2.142
28035WAT     H184347   1.015   7.207   2.212
28035WAT     H284348   1.085   7.342   2.152
28036WAT      O84349   7.449   0.818   1.417
28036WAT     H184350   7.449   0.733   1.470
28036WAT     H284351   7.356   0.837   1.384
28037WAT      O84352   6.746   1.729   8.532
28037WAT     H184353   6.700   1.784   8.601
28037WAT     H284354   6.683   1.710   8.457
28038WAT      O84355   1.721   7.988   0.921
28038WAT     H184356   1.695   7.957   1.012
28038WAT     H284357   1.792   8.058   0.928
28039WAT      O84358   8.054   5.157   4.302
28039WAT     H184359   7.997   5.116   4.374
28039WAT     H284360   8.076   5.088   4.233
28040WAT      O84361   3.158   6.362   6.372
28040WAT     H184362   3.111   6.450   6.359
28040WAT     H284363   3.140   6.302   6.294
28041WAT      O84364   1.484   8.075   0.837
28041WAT     H184365   1.581   8.057   0.822
28041WAT     H284366   1.473   8.158   0.891
28042WAT      O84367   2.789   8.962   1.649
28042WAT     H184368   2.703   9.002   1.681
28042WAT     H284369   2.823   9.015   1.571
28043WAT      O84370   4.655   2.314   5.239
28043WAT     H184371   4.623   2.308   5.144
28043WAT     H284372   4.754   2.303   5.242
28044WAT      O84373   5.553   7.419   8.998
28044WAT     H184374   5.547   7.322   9.021
28044WAT     H284375   5.618   7.431   8.923
28045WAT      O84376   9.626   5.909   4.190
28045WAT     H184377   9.593   5.982   4.250
28045WAT     H284378   9.548   5.868   4.143
28046WAT      O84379   7.330   5.451   0.870
28046WAT     H184380   7.405   5.510   0.840
28046WAT     H284381   7.364   5.385   0.937
28047WAT      O84382   2.855   0.105   2.130
28047WAT     H184383   2.896   0.174   2.190
28047WAT     H284384   2.823   0.149   2.046
28048WAT      O84385   3.777   9.245   9.255
28048WAT     H184386   3.769   9.322   9.318
28048WAT     H284387   3.853   9.261   9.192
28049WAT      O84388   0.361   6.917   2.393
28049WAT     H184389   0.343   6.819   2.377
28049WAT     H284390   0.441   6.945   2.341
28050WAT      O84391   4.754   6.268   0.776
28050WAT     H184392   4.782   6.173   0.762
28050WAT     H284393   4.829   6.319   0.819
28051WAT      O84394   3.020   0.416   4.013
28051WAT     H184395   3.060   0.479   4.079
28051WAT     H284396   3.020   0.323   4.050
28052WAT      O84397   5.064   3.082   2.768
28052WAT     H184398   5.011   3.042   2.843
28052WAT     H284399   5.071   3.016   2.693
28053WAT      O84400   1.693   9.241   3.592
28053WAT     H184401   1.774   9.226   3.535
28053WAT     H284402   1.651   9.154   3.615
28054WAT      O84403   0.565   4.378   9.036
28054WAT     H184404   0.620   4.449   8.992
28054WAT     H284405   0.516   4.417   9.114
28055WAT      O84406   4.046   2.594   8.721
28055WAT     H184407   4.116   2.582   8.650
28055WAT     H284408   4.050   2.688   8.755
28056WAT      O84409   7.469   8.817   8.096
28056WAT     H184410   7.387   8.867   8.125
28056WAT     H284411   7.532   8.880   8.051
28057WAT      O84412   1.959   8.285   3.145
28057WAT     H184413   1.976   8.314   3.051
28057WAT     H284414   2.047   8.277   3.193
28058WAT      O84415   8.771   3.554   2.561
28058WAT     H184416   8.765   3.457   2.584
28058WAT     H284417   8.866   3.578   2.540
28059WAT      O84418   7.232   5.719   4.892
28059WAT     H184419   7.202   5.791   4.954
28059WAT     H284420   7.196   5.631   4.923
28060WAT      O84421   0.706   6.144   3.774
28060WAT     H184422   0.800   6.138   3.741
28060WAT     H284423   0.703   6.121   3.872
28061WAT      O84424   0.642   5.486   5.622
28061WAT     H184425   0.601   5.396   5.610
28061WAT     H284426   0.617   5.545   5.546
28062WAT      O84427   0.105   5.239   3.475
28062WAT     H184428   0.124   5.145   3.504
28062WAT     H284429   0.007   5.250   3.458
28063WAT      O84430   4.246   8.991   8.621
28063WAT     H184431   4.339   8.966   8.648
28063WAT     H284432   4.201   8.913   8.577
28064WAT      O84433   6.267   8.823   0.867
28064WAT     H184434   6.335   8.896   0.857
28064WAT     H284435   6.313   8.737   0.890
28065WAT      O84436   6.453   0.323   4.192
28065WAT     H184437   6.364   0.354   4.157
28065WAT     H284438   6.461   0.224   4.180
28066WAT      O84439   3.514   5.830   1.315
28066WAT     H184440   3.534   5.786   1.227
28066WAT     H284441   3.598   5.840   1.367
28067WAT      O84442   4.057   1.700   7.543
28067WAT     H184443   3.972   1.752   7.556
28067WAT     H284444   4.101   1.684   7.631
28068WAT      O84445   3.746   3.501   5.818
28068WAT     H184446   3.820   3.443   5.852
28068WAT     H284447   3.658   3.457   5.835
28069WAT      O84448   3.737   3.910   7.771
28069WAT     H184449   3.763   3.998   7.731
28069WAT     H284450   3.813   3.876   7.828
28070WAT      O84451   9.657   5.222   2.118
28070WAT     H184452   9.750   5.260   2.112
28070WAT     H284453   9.660   5.135   2.166
28071WAT      O84454   4.169   7.608   4.671
28071WAT     H184455   4.188   7.527   4.728
28071WAT     H284456   4.089   7.590   4.613
28072WAT      O84457   5.666   3.272   1.574
28072WAT     H184458   5.749   3.305   1.617
28072WAT     H284459   5.607   3.350   1.551
28073WAT      O84460   2.732   5.170   5.559
28073WAT     H184461   2.765   5.220   5.478
28073WAT     H284462   2.715   5.074   5.534
28074WAT      O84463   2.898   9.315   9.164
28074WAT     H184464   2.816   9.338   9.112
28074WAT     H284465   2.947   9.398   9.187
28075WAT      O84466   8.661   1.614   4.060
28075WAT     H184467   8.568   1.612   4.096
28075WAT     H284468   8.686   1.709   4.038
28076WAT      O84469   2.730   6.898   4.243
28076WAT     H184470   2.744   6.800   4.241
28076WAT     H284471   2.795   6.944   4.183
28077WAT      O84472   9.029   8.054   9.768
28077WAT     H184473   9.070   7.965   9.748
28077WAT     H284474   8.959   8.044   9.838
28078WAT      O84475   8.385   5.285   6.188
28078WAT     H184476   8.382   5.260   6.284
28078WAT     H284477   8.411   5.206   6.133
28079WAT      O84478   5.937   5.452   2.114
28079WAT     H184479   5.897   5.541   2.094
28079WAT     H284480   5.947   5.399   2.030
28080WAT      O84481   4.783   7.714   6.622
28080WAT     H184482   4.691   7.742   6.652
28080WAT     H284483   4.781   7.695   6.524
28081WAT      O84484   1.168   0.602   8.868
28081WAT     H184485   1.222   0.675   8.910
28081WAT     H284486   1.208   0.514   8.890
28082WAT      O84487   1.648   6.579   7.291
28082WAT     H184488   1.596   6.494   7.302
28082WAT     H284489   1.691   6.603   7.378
28083WAT      O84490   0.971   6.066   1.901
28083WAT     H184491   0.871   6.053   1.904
28083WAT     H284492   1.000   6.116   1.982
28084WAT      O84493   2.743   6.178   1.813
28084WAT     H184494   2.739   6.078   1.814
28084WAT     H284495   2.719   6.211   1.722
28085WAT      O84496   1.675   8.648   0.208
28085WAT     H184497   1.595   8.613   0.257
28085WAT     H284498   1.651   8.736   0.165
28086WAT      O84499   1.439   6.961   0.004
28086WAT     H184500   1.440   6.867   0.039
28086WAT     H284501   1.394   6.963  -0.085
28087WAT      O84502   9.333   7.907   9.188
28087WAT     H184503   9.236   7.889   9.171
28087WAT     H284504   9.353   8.004   9.172
28088WAT      O84505   9.481   8.540   0.171
28088WAT     H184506   9.569   8.537   0.123
28088WAT     H284507   9.489   8.595   0.254
28089WAT      O84508   0.118   0.302   3.388
28089WAT     H184509   0.051   0.306   3.314
28089WAT     H284510   0.168   0.216   3.383
28090WAT      O84511   8.163   6.555   5.732
28090WAT     H184512   8.123   6.602   5.811
28090WAT     H284513   8.171   6.618   5.655
28091WAT      O84514   1.807   5.376   6.900
28091WAT     H184515   1.876   5.345   6.965
28091WAT     H284516   1.726   5.318   6.907
28092WAT      O84517   8.979   3.594   6.445
28092WAT     H184518   8.951   3.583   6.349
28092WAT     H284519   9.033   3.515   6.473
28093WAT      O84520   9.660   0.310   3.917
28093WAT     H184521   9.643   0.385   3.854
28093WAT     H284522   9.711   0.343   3.997
28094WAT      O84523   4.306   0.234   8.275
28094WAT     H184524   4.288   0.227   8.373
28094WAT     H284525   4.219   0.230   8.225
28095WAT      O84526   6.747   4.640   2.457
28095WAT     H184527   6.844   4.616   2.462
28095WAT     H284528   6.712   4.657   2.549
28096WAT      O84529   1.963   7.179   8.578
28096WAT     H184530   1.877   7.129   8.563
28096WAT     H284531   2.022   7.169   8.498
28097WAT      O84532   2.119   2.693   8.370
28097WAT     H184533   2.136   2.594   8.366
28097WAT     H284534   2.051   2.717   8.301
28098WAT      O84535   7.802   5.864   5.408
28098WAT     H184536   7.809   5.774   5.365
28098WAT     H284537   7.720   5.868   5.464
28099WAT      O84538   0.356   3.926   2.532
28099WAT     H184539   0.422   4.000   2.547
28099WAT     H284540   0.276   3.962   2.484
28100WAT      O84541   7.291   0.327   2.501
28100WAT     H184542   7.384   0.300   2.477
28100WAT     H284543   7.229   0.301   2.426
28101WAT      O84544   5.084   7.113   0.048
28101WAT     H184545   5.178   7.145   0.054
28101WAT     H284546   5.056   7.111  -0.048
28102WAT      O84547   2.557   2.566   3.780
28102WAT     H184548   2.557   2.666   3.792
28102WAT     H284549   2.472   2.538   3.736
28103WAT      O84550   0.887   7.635   0.658
28103WAT     H184551   0.816   7.566   0.641
28103WAT     H284552   0.972   7.607   0.614
28104WAT      O84553   4.383   2.625   3.674
28104WAT     H184554   4.284   2.614   3.661
28104WAT     H284555   4.430   2.604   3.588
28105WAT      O84556   0.648   2.819   7.382
28105WAT     H184557   0.710   2.815   7.460
28105WAT     H284558   0.676   2.893   7.321
28106WAT      O84559   9.623   2.851   5.407
28106WAT     H184560   9.525   2.857   5.387
28106WAT     H284561   9.651   2.932   5.458
28107WAT      O84562   9.799   0.405   8.591
28107WAT     H184563   9.785   0.438   8.498
28107WAT     H284564   9.712   0.409   8.641
28108WAT      O84565   5.328   2.277   5.119
28108WAT     H184566   5.360   2.291   5.213
28108WAT     H284567   5.407   2.266   5.059
28109WAT      O84568   9.005   0.630   5.202
28109WAT     H184569   8.908   0.641   5.224
28109WAT     H284570   9.016   0.619   5.103
28110WAT      O84571   3.266   1.571   3.253
28110WAT     H184572   3.170   1.546   3.266
28110WAT     H284573   3.312   1.575   3.342
28111WAT      O84574   2.591   2.477   1.412
28111WAT     H184575   2.629   2.567   1.435
28111WAT     H284576   2.561   2.476   1.317
28112WAT      O84577   4.983   2.166   7.761
28112WAT     H184578   4.917   2.162   7.686
28112WAT     H284579   4.984   2.258   7.799
28113WAT      O84580   5.113   6.739   4.480
28113WAT     H184581   5.185   6.705   4.541
28113WAT     H284582   5.040   6.779   4.535
28114WAT      O84583   6.956   7.397   8.550
28114WAT     H184584   7.005   7.484   8.554
28114WAT     H284585   6.965   7.349   8.637
28115WAT      O84586   9.121   9.246   8.315
28115WAT     H184587   9.163   9.251   8.224
28115WAT     H284588   9.190   9.266   8.385
28116WAT      O84589   8.891   8.983   1.259
28116WAT     H184590   8.811   8.926   1.241
28116WAT     H284591   8.896   9.056   1.191
28117WAT      O84592   2.313   6.988   8.999
28117WAT     H184593   2.388   7.042   9.037
28117WAT     H284594   2.253   7.048   8.945
28118WAT      O84595   3.095   3.519   2.178
28118WAT     H184596   3.153   3.591   2.217
28118WAT     H284597   3.122   3.431   2.216
28119WAT      O84598   5.515   7.015   9.824
28119WAT     H184599   5.547   7.097   9.871
28119WAT     H284600   5.524   7.027   9.726
28120WAT      O84601   4.339   8.122   9.033
28120WAT     H184602   4.432   8.086   9.018
28120WAT     H284603   4.277   8.046   9.051
28121WAT      O84604   8.551   6.169   7.318
28121WAT     H184605   8.619   6.164   7.392
28121WAT     H284606   8.584   6.117   7.239
28122WAT      O84607   8.388   0.407   3.527
28122WAT     H184608   8.441   0.328   3.559
28122WAT     H284609   8.291   0.383   3.525
28123WAT      O84610   5.245   4.963   2.331
28123WAT     H184611   5.324   4.908   2.355
28123WAT     H284612   5.269   5.060   2.334
28124WAT      O84613   4.781   2.850   0.178
28124WAT     H184614   4.775   2.783   0.253
28124WAT     H284615   4.840   2.925   0.207
28125WAT      O84616   3.438   9.715   9.362
28125WAT     H184617   3.478   9.807   9.364
28125WAT     H284618   3.450   9.671   9.451
28126WAT      O84619   8.232   3.534   8.975
28126WAT     H184620   8.207   3.631   8.971
28126WAT     H284621   8.289   3.517   9.055
28127WAT      O84622   8.620   8.723   6.118
28127WAT     H184623   8.571   8.702   6.202
28127WAT     H284624   8.572   8.795   6.068
28128WAT      O84625   3.947   2.605   6.583
28128WAT     H184626   3.872   2.663   6.614
28128WAT     H284627   3.986   2.644   6.499
28129WAT      O84628   5.960   3.581   4.733
28129WAT     H184629   5.938   3.642   4.657
28129WAT     H284630   5.955   3.632   4.819
28130WAT      O84631   4.705   4.438   7.705
28130WAT     H184632   4.668   4.381   7.632
28130WAT     H284633   4.629   4.478   7.757
28131WAT      O84634   9.511   2.003   4.367
28131WAT     H184635   9.532   1.995   4.464
28131WAT     H284636   9.593   1.985   4.313
28132WAT      O84637   0.779   2.351   9.147
28132WAT     H184638   0.775   2.257   9.182
28132WAT     H284639   0.696   2.399   9.174
28133WAT      O84640   7.279   2.909   0.605
28133WAT     H184641   7.340   2.903   0.684
28133WAT     H284642   7.333   2.906   0.521
28134WAT      O84643   9.705   6.055   6.030
28134WAT     H184644   9.730   5.996   6.106
28134WAT     H284645   9.611   6.087   6.042
28135WAT      O84646   6.660   6.946   7.536
28135WAT     H184647   6.681   6.895   7.620
28135WAT     H284648   6.738   7.004   7.512
28136WAT      O84649   8.128   5.216   2.508
28136WAT     H184650   8.096   5.121   2.507
28136WAT     H284651   8.143   5.247   2.414
28137WAT      O84652   4.281   3.755   6.814
28137WAT     H184653   4.236   3.734   6.727
28137WAT     H284654   4.311   3.670   6.857
28138WAT      O84655   6.596   3.181   3.399
28138WAT     H184656   6.695   3.177   3.412
28138WAT     H284657   6.572   3.143   3.310
28139WAT      O84658   0.588   1.094   3.206
28139WAT     H184659   0.686   1.076   3.192
28139WAT     H284660   0.543   1.106   3.118
28140WAT      O84661   1.651   3.282   2.501
28140WAT     H184662   1.694   3.217   2.564
28140WAT     H284663   1.564   3.245   2.469
28141WAT      O84664   5.864   8.768   6.323
28141WAT     H184665   5.839   8.865   6.325
28141WAT     H284666   5.790   8.714   6.363
28142WAT      O84667   3.502   1.839   5.339
28142WAT     H184668   3.513   1.760   5.278
28142WAT     H284669   3.592   1.876   5.362
28143WAT      O84670   2.943   6.316   6.760
28143WAT     H184671   3.007   6.263   6.704
28143WAT     H284672   2.983   6.404   6.783
28144WAT      O84673   4.048   7.982   5.657
28144WAT     H184674   4.042   8.003   5.755
28144WAT     H284675   4.143   7.966   5.633
28145WAT      O84676   2.705   7.596   8.622
28145WAT     H184677   2.803   7.616   8.613
28145WAT     H284678   2.680   7.525   8.557
28146WAT      O84679   0.147   2.163   6.561
28146WAT     H184680   0.209   2.087   6.542
28146WAT     H284681   0.054   2.129   6.574
28147WAT      O84682   0.656   2.673   6.249
28147WAT     H184683   0.695   2.690   6.158
28147WAT     H284684   0.727   2.641   6.310
28148WAT      O84685   6.465   5.958   5.151
28148WAT     H184686   6.425   5.871   5.178
28148WAT     H284687   6.564   5.947   5.139
28149WAT      O84688   5.513   4.695   7.184
28149WAT     H184689   5.519   4.728   7.278
28149WAT     H284690   5.484   4.599   7.184
28150WAT      O84691   6.752   5.052   0.076
28150WAT     H184692   6.837   5.016   0.039
28150WAT     H284693   6.772   5.125   0.141
28151WAT      O84694   8.583   2.235   0.884
28151WAT     H184695   8.600   2.138   0.903
28151WAT     H284696   8.602   2.253   0.788
28152WAT      O84697   6.587   7.890   1.422
28152WAT     H184698   6.606   7.823   1.350
28152WAT     H284699   6.570   7.979   1.381
28153WAT      O84700   6.265   1.768   1.828
28153WAT     H184701   6.217   1.680   1.824
28153WAT     H284702   6.211   1.837   1.780
28154WAT      O84703   6.981   1.948   9.876
28154WAT     H184704   7.015   1.882   9.943
28154WAT     H284705   6.882   1.958   9.887
28155WAT      O84706   6.422   8.997   3.523
28155WAT     H184707   6.364   9.056   3.466
28155WAT     H284708   6.513   8.991   3.483
28156WAT      O84709   9.683   1.921   7.056
28156WAT     H184710   9.741   1.989   7.011
28156WAT     H284711   9.587   1.941   7.035
28157WAT      O84712   7.311   2.283   7.034
28157WAT     H184713   7.261   2.315   6.953
28157WAT     H284714   7.333   2.360   7.093
28158WAT      O84715   9.818   1.071   4.730
28158WAT     H184716   9.916   1.087   4.722
28158WAT     H284717   9.802   0.993   4.792
28159WAT      O84718   1.598   3.068   7.871
28159WAT     H184719   1.610   3.160   7.834
28159WAT     H284720   1.678   3.012   7.850
28160WAT      O84721   0.004   7.369   2.579
28160WAT     H184722   0.087   7.412   2.543
28160WAT     H284723   0.027   7.281   2.621
28161WAT      O84724   2.096   6.025   5.006
28161WAT     H184725   2.113   6.033   4.907
28161WAT     H284726   2.030   6.095   5.034
28162WAT      O84727   2.921   5.487   9.072
28162WAT     H184728   2.966   5.552   9.133
28162WAT     H284729   2.834   5.457   9.112
28163WAT      O84730   3.137   7.044   5.389
28163WAT     H184731   3.130   7.022   5.486
28163WAT     H284732   3.068   7.113   5.366
28164WAT      O84733   1.326   7.331   0.520
28164WAT     H184734   1.359   7.253   0.466
28164WAT     H284735   1.396   7.358   0.586
28165WAT      O84736   3.681   9.814   1.889
28165WAT     H184737   3.653   9.738   1.949
28165WAT     H284738   3.777   9.803   1.863
28166WAT      O84739   1.430   2.841   7.162
28166WAT     H184740   1.356   2.855   7.097
28166WAT     H284741   1.439   2.744   7.182
28167WAT      O84742   9.194   0.086   4.384
28167WAT     H184743   9.254   0.012   4.414
28167WAT     H284744   9.217   0.170   4.433
28168WAT      O84745   0.807   9.450   4.827
28168WAT     H184746   0.747   9.451   4.747
28168WAT     H284747   0.892   9.403   4.803
28169WAT      O84748   7.577   7.660   8.738
28169WAT     H184749   7.588   7.651   8.639
28169WAT     H284750   7.666   7.665   8.782
28170WAT      O84751   4.986   2.838   2.162
28170WAT     H184752   4.941   2.835   2.073
28170WAT     H284753   4.982   2.930   2.199
28171WAT      O84754   7.563   8.179   0.682
28171WAT     H184755   7.518   8.159   0.769
28171WAT     H284756   7.618   8.261   0.691
28172WAT      O84757   6.421   3.162   0.510
28172WAT     H184758   6.435   3.200   0.419
28172WAT     H284759   6.461   3.070   0.515
28173WAT      O84760   7.694   7.622   5.071
28173WAT     H184761   7.602   7.661   5.073
28173WAT     H284762   7.697   7.539   5.126
28174WAT      O84763   7.791   4.260   5.722
28174WAT     H184764   7.824   4.268   5.817
28174WAT     H284765   7.694   4.237   5.723
28175WAT      O84766   6.315   6.766   1.877
28175WAT     H184767   6.413   6.748   1.880
28175WAT     H284768   6.288   6.786   1.782
28176WAT      O84769   3.032   8.552   0.205
28176WAT     H184770   3.121   8.595   0.190
28176WAT     H284771   2.969   8.617   0.248
28177WAT      O84772   8.851   8.409   5.866
28177WAT     H184773   8.950   8.405   5.874
28177WAT     H284774   8.822   8.361   5.783
28178WAT      O84775   0.708   5.533   4.044
28178WAT     H184776   0.686   5.486   3.959
28178WAT     H284777   0.626   5.539   4.101
28179WAT      O84778   2.502   3.377   9.203
28179WAT     H184779   2.594   3.396   9.169
28179WAT     H284780   2.503   3.293   9.257
28180WAT      O84781   8.708   4.999   2.655
28180WAT     H184782   8.663   4.952   2.579
28180WAT     H284783   8.689   4.949   2.740
28181WAT      O84784   1.975   0.112   1.772
28181WAT     H184785   2.000   0.082   1.680
28181WAT     H284786   1.888   0.071   1.797
28182WAT      O84787   4.626   1.227   9.042
28182WAT     H184788   4.559   1.222   8.968
28182WAT     H284789   4.671   1.139   9.052
28183WAT      O84790   8.589   5.033   1.362
28183WAT     H184791   8.539   5.062   1.280
28183WAT     H284792   8.526   4.991   1.427
28184WAT      O84793   8.669   2.136   7.977
28184WAT     H184794   8.706   2.219   7.935
28184WAT     H284795   8.570   2.134   7.966
28185WAT      O84796   9.206   9.746   1.754
28185WAT     H184797   9.107   9.738   1.741
28185WAT     H284798   9.254   9.688   1.688
28186WAT      O84799   3.234   8.133   8.813
28186WAT     H184800   3.249   8.042   8.852
28186WAT     H284801   3.158   8.178   8.860
28187WAT      O84802   7.946   3.682   2.058
28187WAT     H184803   7.959   3.744   2.136
28187WAT     H284804   8.027   3.625   2.048
28188WAT      O84805   0.421   7.357   7.436
28188WAT     H184806   0.349   7.419   7.405
28188WAT     H284807   0.439   7.289   7.365
28189WAT      O84808   8.710   7.985   3.519
28189WAT     H184809   8.729   8.042   3.599
28189WAT     H284810   8.717   7.889   3.543
28190WAT      O84811   2.227   3.305   2.670
28190WAT     H184812   2.151   3.311   2.605
28190WAT     H284813   2.217   3.222   2.725
28191WAT      O84814   5.195   7.260   3.095
28191WAT     H184815   5.186   7.359   3.088
28191WAT     H284816   5.273   7.229   3.041
28192WAT      O84817   8.739   7.016   4.071
28192WAT     H184818   8.771   7.009   3.976
28192WAT     H284819   8.745   7.111   4.101
28193WAT      O84820   0.527   6.803   6.433
28193WAT     H184821   0.432   6.793   6.463
28193WAT     H284822   0.582   6.837   6.510
28194WAT      O84823   4.031   0.485   1.761
28194WAT     H184824   4.072   0.574   1.741
28194WAT     H284825   4.086   0.413   1.718
28195WAT      O84826   5.826   8.412   2.076
28195WAT     H184827   5.783   8.339   2.128
28195WAT     H284828   5.896   8.373   2.016
28196WAT      O84829   7.086   9.781   4.032
28196WAT     H184830   7.055   9.697   3.987
28196WAT     H284831   7.167   9.762   4.087
28197WAT      O84832   6.185   6.980   4.815
28197WAT     H184833   6.245   6.901   4.830
28197WAT     H284834   6.155   7.016   4.903
28198WAT      O84835   2.192   4.133   4.057
28198WAT     H184836   2.152   4.042   4.057
28198WAT     H284837   2.272   4.134   3.996
28199WAT      O84838   2.720   3.257   3.561
28199WAT     H184839   2.642   3.194   3.551
28199WAT     H284840   2.804   3.204   3.565
28200WAT      O84841   9.497   2.643   6.154
28200WAT     H184842   9.502   2.567   6.089
28200WAT     H284843   9.476   2.608   6.245
28201WAT      O84844   6.884   8.920   1.584
28201WAT     H184845   6.795   8.906   1.627
28201WAT     H284846   6.879   8.892   1.488
28202WAT      O84847   3.001   6.800   8.267
28202WAT     H184848   2.989   6.703   8.245
28202WAT     H284849   3.069   6.809   8.340
28203WAT      O84850   9.200   1.409   5.145
28203WAT     H184851   9.240   1.380   5.058
28203WAT     H284852   9.240   1.356   5.219
28204WAT      O84853   3.492   3.447   4.137
28204WAT     H184854   3.498   3.391   4.219
28204WAT     H284855   3.433   3.402   4.070
28205WAT      O84856   9.536   9.669   3.836
28205WAT     H184857   9.531   9.722   3.921
28205WAT     H284858   9.599   9.713   3.773
28206WAT      O84859   6.237   2.948   3.899
28206WAT     H184860   6.192   3.033   3.872
28206WAT     H284861   6.237   2.885   3.822
28207WAT      O84862   3.306   1.496   0.643
28207WAT     H184863   3.284   1.423   0.708
28207WAT     H284864   3.402   1.523   0.654
28208WAT      O84865   0.455   2.350   1.999
28208WAT     H184866   0.477   2.444   1.971
28208WAT     H284867   0.446   2.292   1.918
28209WAT      O84868   9.361   0.054   3.659
28209WAT     H184869   9.427   0.013   3.722
28209WAT     H284870   9.401   0.136   3.619
28210WAT      O84871   6.886   5.396   2.190
28210WAT     H184872   6.903   5.315   2.246
28210WAT     H284873   6.915   5.379   2.096
28211WAT      O84874   2.580   3.158   6.695
28211WAT     H184875   2.622   3.228   6.752
28211WAT     H284876   2.533   3.201   6.618
28212WAT      O84877   7.081   6.527   1.952
28212WAT     H184878   7.179   6.506   1.948
28212WAT     H284879   7.028   6.444   1.936
28213WAT      O84880   4.487   4.657   8.459
28213WAT     H184881   4.486   4.733   8.394
28213WAT     H284882   4.432   4.582   8.423
28214WAT      O84883   8.587   2.236   1.738
28214WAT     H184884   8.547   2.157   1.692
28214WAT     H284885   8.629   2.297   1.671
28215WAT      O84886   3.658   5.082   3.699
28215WAT     H184887   3.751   5.048   3.716
28215WAT     H284888   3.615   5.106   3.786
28216WAT      O84889   8.756   4.066   8.028
28216WAT     H184890   8.763   4.030   7.935
28216WAT     H284891   8.847   4.065   8.070
28217WAT      O84892   6.404   4.440   2.657
28217WAT     H184893   6.453   4.514   2.703
28217WAT     H284894   6.393   4.363   2.720
28218WAT      O84895   1.782   0.791   7.126
28218WAT     H184896   1.808   0.811   7.220
28218WAT     H284897   1.767   0.876   7.076
28219WAT      O84898   3.575   6.572   6.509
28219WAT     H184899   3.650   6.538   6.566
28219WAT     H284900   3.579   6.527   6.419
28220WAT      O84901   3.980   6.456   9.669
28220WAT     H184902   4.001   6.414   9.581
28220WAT     H284903   3.977   6.386   9.739
28221WAT      O84904   4.850   8.462   7.481
28221WAT     H184905   4.904   8.468   7.565
28221WAT     H284906   4.801   8.548   7.467
28222WAT      O84907   8.437   5.300   1.797
28222WAT     H184908   8.480   5.381   1.756
28222WAT     H284909   8.338   5.313   1.799
28223WAT      O84910   3.152   3.928   6.962
28223WAT     H184911   3.059   3.958   6.938
28223WAT     H284912   3.216   3.961   6.893
28224WAT      O84913   1.285   3.585   4.215
28224WAT     H184914   1.195   3.590   4.172
28224WAT     H284915   1.333   3.504   4.181
28225WAT      O84916   5.083   4.826   6.871
28225WAT     H184917   4.989   4.793   6.862
28225WAT     H284918   5.146   4.759   6.833
28226WAT      O84919   4.797   1.994   0.404
28226WAT     H184920   4.757   1.903   0.397
28226WAT     H284921   4.755   2.043   0.481
28227WAT      O84922   5.596   6.486   4.778
28227WAT     H184923   5.528   6.412   4.778
28227WAT     H284924   5.594   6.533   4.866
28228WAT      O84925   7.788   8.650   1.540
28228WAT     H184926   7.784   8.638   1.639
28228WAT     H284927   7.704   8.695   1.508
28229WAT      O84928   0.006   2.959   6.794
28229WAT     H184929   0.093   2.951   6.843
28229WAT     H284930  -0.068   2.922   6.851
28230WAT      O84931   5.396   1.925   2.983
28230WAT     H184932   5.334   1.945   3.059
28230WAT     H284933   5.461   2.001   2.973
28231WAT      O84934   9.082   9.072   1.920
28231WAT     H184935   9.105   9.150   1.862
28231WAT     H284936   9.153   9.002   1.910
28232WAT      O84937   9.718   1.499   3.852
28232WAT     H184938   9.635   1.458   3.813
28232WAT     H284939   9.789   1.429   3.862
28233WAT      O84940   3.687   3.074   8.569
28233WAT     H184941   3.654   2.980   8.582
28233WAT     H284942   3.629   3.136   8.622
28234WAT      O84943   0.906   3.100   5.589
28234WAT     H184944   0.987   3.043   5.593
28234WAT     H284945   0.906   3.164   5.666
28235WAT      O84946   7.556   4.177   8.730
28235WAT     H184947   7.615   4.197   8.652
28235WAT     H284948   7.583   4.234   8.808
28236WAT      O84949   5.209   4.797   7.116
28236WAT     H184950   5.274   4.871   7.134
28236WAT     H284951   5.182   4.799   7.020
28237WAT      O84952   2.913   3.426   1.581
28237WAT     H184953   2.878   3.373   1.504
28237WAT     H284954   2.980   3.493   1.548
28238WAT      O84955   1.507   9.016   3.669
28238WAT     H184956   1.454   8.950   3.615
28238WAT     H284957   1.450   9.053   3.742
28239WAT      O84958   9.432   8.953   6.436
28239WAT     H184959   9.529   8.940   6.419
28239WAT     H284960   9.410   9.051   6.437
28240WAT      O84961   8.669   3.469   3.491
28240WAT     H184962   8.712   3.384   3.523
28240WAT     H284963   8.658   3.465   3.392
28241WAT      O84964   4.298   7.900   0.635
28241WAT     H184965   4.277   7.955   0.716
28241WAT     H284966   4.274   7.805   0.653
28242WAT      O84967   3.968   2.446   8.936
28242WAT     H184968   4.037   2.376   8.955
28242WAT     H284969   3.969   2.468   8.839
28243WAT      O84970   4.241   1.825   6.807
28243WAT     H184971   4.261   1.759   6.879
28243WAT     H284972   4.143   1.827   6.790
28244WAT      O84973   7.496   8.911   6.369
28244WAT     H184974   7.539   8.997   6.395
28244WAT     H284975   7.405   8.930   6.332
28245WAT      O84976   4.077   4.051   2.302
28245WAT     H184977   4.135   3.972   2.285
28245WAT     H284978   4.047   4.052   2.397
28246WAT      O84979   9.447   1.613   0.880
28246WAT     H184980   9.486   1.664   0.957
28246WAT     H284981   9.356   1.580   0.905
28247WAT      O84982   1.287   1.827   9.099
28247WAT     H184983   1.294   1.731   9.124
28247WAT     H284984   1.370   1.875   9.126
28248WAT      O84985   2.814   3.849   8.750
28248WAT     H184986   2.754   3.914   8.702
28248WAT     H284987   2.766   3.813   8.829
28249WAT      O84988   4.079   9.080   7.959
28249WAT     H184989   4.005   9.013   7.952
28249WAT     H284990   4.041   9.172   7.947
28250WAT      O84991   4.592   4.005   6.463
28250WAT     H184992   4.566   3.948   6.385
28250WAT     H284993   4.547   3.971   6.546
28251WAT      O84994   0.108   6.083   8.631
28251WAT     H184995   0.018   6.105   8.670
28251WAT     H284996   0.161   6.030   8.697
28252WAT      O84997   7.181   7.281   7.851
28252WAT     H184998   7.220   7.309   7.939
28252WAT     H284999   7.215   7.342   7.779
28253WAT      O85000   8.897   2.566   1.884
28253WAT     H185001   8.829   2.498   1.913
28253WAT     H285002   8.853   2.635   1.828
28254WAT      O85003   3.100   1.713   2.913
28254WAT     H185004   3.188   1.740   2.952
28254WAT     H285005   3.059   1.641   2.970
28255WAT      O85006   0.717   1.308   6.985
28255WAT     H185007   0.640   1.261   7.027
28255WAT     H285008   0.683   1.378   6.921
28256WAT      O85009   3.834   8.211   3.908
28256WAT     H185010   3.913   8.196   3.849
28256WAT     H285011   3.756   8.241   3.853
28257WAT      O85012   3.435   9.586   9.619
28257WAT     H185013   3.367   9.526   9.577
28257WAT     H285014   3.400   9.679   9.621
28258WAT      O85015   8.728   0.866   8.846
28258WAT     H185016   8.827   0.862   8.836
28258WAT     H285017   8.706   0.915   8.931
28259WAT      O85018   8.742   8.919   0.158
28259WAT     H185019   8.649   8.889   0.179
28259WAT     H285020   8.786   8.852   0.098
28260WAT      O85021   2.659   5.910   4.394
28260WAT     H185022   2.655   5.812   4.414
28260WAT     H285023   2.745   5.932   4.347
28261WAT      O85024   0.342   6.350   8.551
28261WAT     H185025   0.274   6.286   8.587
28261WAT     H285026   0.389   6.395   8.627
28262WAT      O85027   4.987   9.591   1.563
28262WAT     H185028   5.041   9.545   1.634
28262WAT     H285029   4.908   9.635   1.605
28263WAT      O85030   9.564   1.417   7.414
28263WAT     H185031   9.586   1.391   7.508
28263WAT     H285032   9.618   1.497   7.387
28264WAT      O85033   4.337   4.382   6.279
28264WAT     H185034   4.307   4.397   6.184
28264WAT     H285035   4.305   4.292   6.310
28265WAT      O85036   1.606   4.503   4.787
28265WAT     H185037   1.591   4.570   4.714
28265WAT     H285038   1.518   4.481   4.830
28266WAT      O85039   5.305   7.908   5.916
28266WAT     H185040   5.359   7.898   6.000
28266WAT     H285041   5.300   7.820   5.870
28267WAT      O85042   7.642   9.029   0.848
28267WAT     H185043   7.739   9.013   0.827
28267WAT     H285044   7.631   9.117   0.894
28268WAT      O85045   4.280   7.751   3.114
28268WAT     H185046   4.316   7.842   3.135
28268WAT     H285047   4.283   7.736   3.015
28269WAT      O85048   8.616   5.885   5.678
28269WAT     H185049   8.692   5.949   5.677
28269WAT     H285050   8.647   5.797   5.715
28270WAT      O85051   6.051   2.051   6.238
28270WAT     H185052   6.090   2.094   6.156
28270WAT     H285053   5.952   2.049   6.230
28271WAT      O85054   5.835   4.976   3.679
28271WAT     H185055   5.856   4.881   3.654
28271WAT     H285056   5.838   5.033   3.596
28272WAT      O85057   1.834   2.474   3.029
28272WAT     H185058   1.911   2.530   2.997
28272WAT     H285059   1.866   2.381   3.046
28273WAT      O85060   3.399   5.894   3.565
28273WAT     H185061   3.495   5.915   3.548
28273WAT     H285062   3.364   5.954   3.637
28274WAT      O85063   4.964   8.889   0.144
28274WAT     H185064   4.950   8.829   0.223
28274WAT     H285065   5.059   8.921   0.144
28275WAT      O85066   1.469   5.213   6.490
28275WAT     H185067   1.409   5.206   6.411
28275WAT     H285068   1.499   5.121   6.517
28276WAT      O85069   2.522   0.669   0.193
28276WAT     H185070   2.471   0.741   0.145
28276WAT     H285071   2.618   0.671   0.164
28277WAT      O85072   5.760   5.232   1.311
28277WAT     H185073   5.730   5.198   1.400
28277WAT     H285074   5.808   5.319   1.323
28278WAT      O85075   9.383   9.668   3.012
28278WAT     H185076   9.382   9.575   2.976
28278WAT     H285077   9.291   9.693   3.041
28279WAT      O85078   7.430   3.153   0.711
28279WAT     H185079   7.422   3.127   0.614
28279WAT     H285080   7.485   3.085   0.759
28280WAT      O85081   8.985   8.998   8.386
28280WAT     H185082   8.908   9.039   8.436
28280WAT     H285083   9.040   9.071   8.346
28281WAT      O85084   7.643   0.303   4.997
28281WAT     H185085   7.697   0.229   4.957
28281WAT     H285086   7.639   0.292   5.097
28282WAT      O85087   4.172   5.942   0.289
28282WAT     H185088   4.156   5.957   0.192
28282WAT     H285089   4.256   5.888   0.301
28283WAT      O85090   7.985   6.326   8.134
28283WAT     H185091   7.954   6.421   8.140
28283WAT     H285092   8.064   6.313   8.193
28284WAT      O85093   5.344   8.650   9.474
28284WAT     H185094   5.393   8.562   9.473
28284WAT     H285095   5.328   8.678   9.569
28285WAT      O85096   8.457   5.109   1.119
28285WAT     H185097   8.364   5.079   1.098
28285WAT     H285098   8.520   5.074   1.049
28286WAT      O85099   8.335   7.112   1.684
28286WAT     H185100   8.266   7.149   1.622
28286WAT     H285101   8.355   7.179   1.756
28287WAT      O85102   4.269   8.316   4.287
28287WAT     H185103   4.283   8.290   4.383
28287WAT     H285104   4.322   8.398   4.266
28288WAT      O85105   6.958   3.219   4.633
28288WAT     H185106   6.916   3.284   4.569
28288WAT     H285107   6.896   3.204   4.710
28289WAT      O85108   1.628   6.356   3.649
28289WAT     H185109   1.550   6.299   3.673
28289WAT     H285110   1.596   6.434   3.595
28290WAT      O85111   3.427   2.882   8.392
28290WAT     H185112   3.392   2.849   8.305
28290WAT     H285113   3.446   2.804   8.452
28291WAT      O85114   5.618   8.158   8.066
28291WAT     H185115   5.522   8.133   8.078
28291WAT     H285116   5.673   8.112   8.136
28292WAT      O85117   2.993   8.497   8.877
28292WAT     H185118   3.044   8.576   8.910
28292WAT     H285119   3.045   8.449   8.807
28293WAT      O85120   0.389   7.440   3.324
28293WAT     H185121   0.449   7.363   3.304
28293WAT     H285122   0.371   7.444   3.422
28294WAT      O85123   3.203   3.052   0.201
28294WAT     H185124   3.148   3.067   0.282
28294WAT     H285125   3.151   3.078   0.119
28295WAT      O85126   7.332   6.170   5.304
28295WAT     H185127   7.304   6.075   5.288
28295WAT     H285128   7.426   6.183   5.272
28296WAT      O85129   7.898   6.435   7.734
28296WAT     H185130   7.824   6.425   7.800
28296WAT     H285131   7.861   6.461   7.645
28297WAT      O85132   4.060   7.968   8.800
28297WAT     H185133   4.079   8.057   8.758
28297WAT     H285134   4.023   7.906   8.732
28298WAT      O85135   8.150   7.561   3.132
28298WAT     H185136   8.246   7.533   3.140
28298WAT     H285137   8.101   7.496   3.073
28299WAT      O85138   6.651   0.470   3.872
28299WAT     H185139   6.567   0.520   3.895
28299WAT     H285140   6.647   0.378   3.911
28300WAT      O85141   6.770   0.540   3.371
28300WAT     H185142   6.693   0.578   3.423
28300WAT     H285143   6.827   0.485   3.432
28301WAT      O85144   8.830   4.841   2.116
28301WAT     H185145   8.867   4.932   2.100
28301WAT     H285146   8.803   4.800   2.029
28302WAT      O85147   4.754   6.470   2.686
28302WAT     H185148   4.767   6.464   2.587
28302WAT     H285149   4.843   6.470   2.731
28303WAT      O85150   5.540   1.913   1.873
28303WAT     H185151   5.584   1.998   1.900
28303WAT     H285152   5.454   1.903   1.922
28304WAT      O85153   6.563   2.963   3.856
28304WAT     H185154   6.471   2.970   3.894
28304WAT     H285155   6.576   3.036   3.788
28305WAT      O85156   9.340   1.063  -0.001
28305WAT     H185157   9.350   1.122   0.079
28305WAT     H285158   9.332   0.968   0.029
28306WAT      O85159   3.877   3.479   0.548
28306WAT     H185160   3.970   3.461   0.517
28306WAT     H285161   3.814   3.415   0.504
28307WAT      O85162   1.950   4.184   9.488
28307WAT     H185163   2.002   4.122   9.548
28307WAT     H285164   1.852   4.170   9.503
28308WAT      O85165   5.407   6.468   2.044
28308WAT     H185166   5.324   6.448   1.991
28308WAT     H285167   5.488   6.446   1.991
28309WAT      O85168   2.551   3.264   5.520
28309WAT     H185169   2.480   3.195   5.524
28309WAT     H285170   2.641   3.220   5.523
28310WAT      O85171   2.380   3.202   1.480
28310WAT     H185172   2.346   3.194   1.574
28310WAT     H285173   2.323   3.148   1.419
28311WAT      O85174   5.233   8.345   2.381
28311WAT     H185175   5.243   8.262   2.328
28311WAT     H285176   5.265   8.423   2.328
28312WAT      O85177   4.980   2.339   4.434
28312WAT     H185178   4.994   2.425   4.384
28312WAT     H285179   4.968   2.265   4.369
28313WAT      O85180   9.794   7.119   2.910
28313WAT     H185181   9.872   7.124   2.849
28313WAT     H285182   9.788   7.027   2.950
28314WAT      O85183   2.923   3.737   3.323
28314WAT     H185184   2.960   3.688   3.244
28314WAT     H285185   2.948   3.687   3.407
28315WAT      O85186   0.972   6.597   4.216
28315WAT     H185187   1.002   6.507   4.185
28315WAT     H285188   0.873   6.604   4.209
28316WAT      O85189   0.602   5.598   0.454
28316WAT     H185190   0.520   5.599   0.510
28316WAT     H285191   0.683   5.595   0.513
28317WAT      O85192   4.492   0.360   2.098
28317WAT     H185193   4.431   0.298   2.049
28317WAT     H285194   4.506   0.327   2.191
28318WAT      O85195   9.024   2.374   6.942
28318WAT     H185196   8.998   2.362   6.846
28318WAT     H285197   9.087   2.452   6.950
28319WAT      O85198   6.097   7.622   5.305
28319WAT     H185199   6.038   7.545   5.278
28319WAT     H285200   6.144   7.658   5.224
28320WAT      O85201   9.633   0.612   9.051
28320WAT     H185202   9.564   0.613   8.980
28320WAT     H285203   9.601   0.664   9.130
28321WAT      O85204   4.745   8.082   5.088
28321WAT     H185205   4.725   8.159   5.148
28321WAT     H285206   4.735   8.111   4.993
28322WAT      O85207   9.863   5.878   6.178
28322WAT     H185208   9.947   5.919   6.142
28322WAT     H285209   9.884   5.824   6.260
28323WAT      O85210   6.685   7.752   5.932
28323WAT     H185211   6.726   7.661   5.925
28323WAT     H285212   6.595   7.752   5.890
28324WAT      O85213   1.186   1.046   0.554
28324WAT     H185214   1.246   0.988   0.499
28324WAT     H285215   1.126   1.099   0.494
28325WAT      O85216   2.134   0.448   0.480
28325WAT     H185217   2.083   0.529   0.508
28325WAT     H285218   2.080   0.395   0.414
28326WAT      O85219   1.958   1.485   5.327
28326WAT     H185220   2.003   1.432   5.399
28326WAT     H285221   2.024   1.507   5.255
28327WAT      O85222   9.055   3.721   4.970
28327WAT     H185223   9.052   3.821   4.974
28327WAT     H285224   9.089   3.691   4.881
28328WAT      O85225   1.712   1.052   1.020
28328WAT     H185226   1.752   1.023   0.933
28328WAT     H285227   1.784   1.058   1.089
28329WAT      O85228   2.078   0.230   2.464
28329WAT     H185229   1.998   0.188   2.507
28329WAT     H285230   2.158   0.220   2.525
28330WAT      O85231   9.154   6.965   3.572
28330WAT     H185232   9.182   6.996   3.663
28330WAT     H285233   9.054   6.965   3.566
28331WAT      O85234   5.323   0.205   6.835
28331WAT     H185235   5.229   0.234   6.853
28331WAT     H285236   5.371   0.277   6.785
28332WAT      O85237   3.529   0.750   3.575
28332WAT     H185238   3.511   0.843   3.606
28332WAT     H285239   3.464   0.687   3.618
28333WAT      O85240   3.280   6.134   3.899
28333WAT     H185241   3.371   6.134   3.858
28333WAT     H285242   3.283   6.084   3.986
28334WAT      O85243   3.767   5.538   0.156
28334WAT     H185244   3.865   5.521   0.166
28334WAT     H285245   3.747   5.631   0.184
28335WAT      O85246   0.282   2.989   6.816
28335WAT     H185247   0.352   3.060   6.826
28335WAT     H285248   0.254   2.983   6.720
28336WAT      O85249   7.758   0.290   5.765
28336WAT     H185250   7.825   0.323   5.699
28336WAT     H285251   7.784   0.321   5.857
28337WAT      O85252   7.522   3.261   4.642
28337WAT     H185253   7.459   3.240   4.567
28337WAT     H285254   7.496   3.347   4.685
28338WAT      O85255   5.594   6.960   5.991
28338WAT     H185256   5.532   6.965   6.069
28338WAT     H285257   5.618   7.053   5.962
28339WAT      O85258   0.824   3.428   8.434
28339WAT     H185259   0.813   3.527   8.426
28339WAT     H285260   0.735   3.386   8.456
28340WAT      O85261   2.351   6.198   0.957
28340WAT     H185262   2.408   6.181   0.876
28340WAT     H285263   2.278   6.130   0.960
28341WAT      O85264   9.659   3.545   6.441
28341WAT     H185265   9.605   3.618   6.400
28341WAT     H285266   9.727   3.584   6.503
28342WAT      O85267   3.577   3.459   8.642
28342WAT     H185268   3.676   3.444   8.642
28342WAT     H285269   3.555   3.535   8.703
28343WAT      O85270   3.050   3.074   9.156
28343WAT     H185271   3.138   3.030   9.175
28343WAT     H285272   3.026   3.133   9.233
28344WAT      O85273   8.778   9.724   8.924
28344WAT     H185274   8.875   9.747   8.919
28344WAT     H285275   8.723   9.805   8.904
28345WAT      O85276   3.162   1.309   0.817
28345WAT     H185277   3.179   1.303   0.916
28345WAT     H285278   3.083   1.369   0.801
28346WAT      O85279   9.355   3.777   2.560
28346WAT     H185280   9.386   3.866   2.527
28346WAT     H285281   9.282   3.790   2.628
28347WAT      O85282   7.944   9.620   3.839
28347WAT     H185283   8.011   9.587   3.772
28347WAT     H285284   7.970   9.711   3.870
28348WAT      O85285   3.469   7.785   4.412
28348WAT     H185286   3.416   7.705   4.383
28348WAT     H285287   3.464   7.855   4.341
28349WAT      O85288   5.929   7.376   2.692
28349WAT     H185289   6.028   7.371   2.696
28349WAT     H285290   5.891   7.288   2.663
28350WAT      O85291   3.165   7.495   4.483
28350WAT     H185292   3.248   7.518   4.432
28350WAT     H285293   3.141   7.399   4.465
28351WAT      O85294   9.644   3.323   0.504
28351WAT     H185295   9.668   3.404   0.556
28351WAT     H285296   9.640   3.244   0.565
28352WAT      O85297   1.133   1.857   6.440
28352WAT     H185298   1.212   1.814   6.396
28352WAT     H285299   1.155   1.951   6.464
28353WAT      O85300   8.843   0.073   1.552
28353WAT     H185301   8.821   0.018   1.472
28353WAT     H285302   8.758   0.094   1.602
28354WAT      O85303   4.632   5.722   6.146
28354WAT     H185304   4.647   5.778   6.064
28354WAT     H285305   4.693   5.642   6.143
28355WAT      O85306   3.861   2.294   2.844
28355WAT     H185307   3.891   2.323   2.753
28355WAT     H285308   3.764   2.271   2.840
28356WAT      O85309   3.880   3.356   1.642
28356WAT     H185310   3.804   3.328   1.701
28356WAT     H285311   3.916   3.276   1.594
28357WAT      O85312   8.002   9.057   5.350
28357WAT     H185313   8.066   8.999   5.300
28357WAT     H285314   8.042   9.148   5.362
28358WAT      O85315   8.642   7.770   4.816
28358WAT     H185316   8.552   7.727   4.827
28358WAT     H285317   8.705   7.703   4.776
28359WAT      O85318   5.576   8.311   2.984
28359WAT     H185319   5.666   8.341   2.954
28359WAT     H285320   5.533   8.259   2.910
28360WAT      O85321   2.602   7.051   3.068
28360WAT     H185322   2.516   7.018   3.029
28360WAT     H285323   2.678   7.025   3.008
28361WAT      O85324   0.795   0.065   0.950
28361WAT     H185325   0.774  -0.033   0.947
28361WAT     H285326   0.873   0.080   1.011
28362WAT      O85327   0.496   0.991   1.003
28362WAT     H185328   0.488   0.996   0.904
28362WAT     H285329   0.500   0.896   1.033
28363WAT      O85330   0.676   4.470   4.697
28363WAT     H185331   0.590   4.487   4.648
28363WAT     H285332   0.683   4.534   4.774
28364WAT      O85333   0.102   6.826   7.782
28364WAT     H185334   0.157   6.789   7.707
28364WAT     H285335   0.085   6.754   7.850
28365WAT      O85336   9.405   1.959   6.993
28365WAT     H185337   9.433   2.046   6.953
28365WAT     H285338   9.377   1.974   7.088
28366WAT      O85339   4.052   4.682   1.457
28366WAT     H185340   4.005   4.654   1.374
28366WAT     H285341   4.148   4.701   1.436
28367WAT      O85342   3.461   5.140   2.353
28367WAT     H185343   3.472   5.043   2.331
28367WAT     H285344   3.518   5.163   2.432
28368WAT      O85345   1.454   6.547   3.070
28368WAT     H185346   1.551   6.569   3.080
28368WAT     H285347   1.439   6.496   2.986
28369WAT      O85348   0.769   8.512   1.385
28369WAT     H185349   0.718   8.458   1.452
28369WAT     H285350   0.765   8.609   1.410
28370WAT      O85351   5.035   8.921   3.755
28370WAT     H185352   4.943   8.910   3.718
28370WAT     H285353   5.076   8.831   3.768
28371WAT      O85354   2.288   2.047   1.736
28371WAT     H185355   2.226   2.034   1.813
28371WAT     H285356   2.267   2.134   1.690
28372WAT      O85357   9.226   0.781   1.364
28372WAT     H185358   9.184   0.836   1.293
28372WAT     H285359   9.196   0.686   1.356
28373WAT      O85360   8.318   0.522   2.625
28373WAT     H185361   8.282   0.465   2.699
28373WAT     H285362   8.394   0.577   2.660
28374WAT      O85363   7.736   5.950   2.411
28374WAT     H185364   7.641   5.953   2.441
28374WAT     H285365   7.781   5.870   2.451
28375WAT      O85366   2.930   5.191   0.606
28375WAT     H185367   2.850   5.184   0.546
28375WAT     H285368   2.975   5.279   0.591
28376WAT      O85369   2.379   2.221   9.495
28376WAT     H185370   2.416   2.128   9.498
28376WAT     H285371   2.454   2.287   9.488
28377WAT      O85372   0.664   6.975   2.007
28377WAT     H185373   0.750   7.023   1.990
28377WAT     H285374   0.588   7.033   1.978
28378WAT      O85375   4.438   0.582   6.784
28378WAT     H185376   4.345   0.545   6.785
28378WAT     H285377   4.468   0.600   6.878
28379WAT      O85378   1.983   5.939   1.563
28379WAT     H185379   1.997   5.881   1.643
28379WAT     H285380   1.928   6.019   1.589
28380WAT      O85381   8.412   4.627   8.950
28380WAT     H185382   8.481   4.554   8.958
28380WAT     H285383   8.434   4.701   9.014
28381WAT      O85384   1.974   9.062   9.296
28381WAT     H185385   2.065   9.022   9.282
28381WAT     H285386   1.941   9.040   9.387
28382WAT      O85387   6.832   4.182   2.821
28382WAT     H185388   6.740   4.162   2.853
28382WAT     H285389   6.833   4.188   2.721
28383WAT      O85390   6.599   3.778   7.762
28383WAT     H185391   6.576   3.771   7.859
28383WAT     H285392   6.591   3.873   7.732
28384WAT      O85393   4.622   2.402   0.638
28384WAT     H185394   4.696   2.467   0.624
28384WAT     H285395   4.564   2.400   0.557
28385WAT      O85396   4.574   7.075   2.907
28385WAT     H185397   4.618   7.059   2.995
28385WAT     H285398   4.522   7.161   2.910
28386WAT      O85399   6.541   4.211   6.104
28386WAT     H185400   6.508   4.191   6.197
28386WAT     H285401   6.463   4.217   6.042
28387WAT      O85402   9.444   7.100   4.724
28387WAT     H185403   9.523   7.161   4.735
28387WAT     H285404   9.455   7.020   4.783
28388WAT      O85405   9.321   0.924   2.523
28388WAT     H185406   9.283   0.953   2.611
28388WAT     H285407   9.345   1.005   2.469
28389WAT      O85408   9.442   8.134   8.244
28389WAT     H185409   9.479   8.080   8.319
28389WAT     H285410   9.494   8.220   8.237
28390WAT      O85411   8.595   2.531   5.323
28390WAT     H185412   8.509   2.481   5.309
28390WAT     H285413   8.659   2.473   5.374
28391WAT      O85414   9.744   3.754   2.129
28391WAT     H185415   9.770   3.845   2.097
28391WAT     H285416   9.800   3.685   2.083
28392WAT      O85417   8.208   1.895   1.418
28392WAT     H185418   8.218   1.990   1.386
28392WAT     H285419   8.112   1.868   1.413
28393WAT      O85420   7.432   4.022   9.103
28393WAT     H185421   7.496   4.088   9.144
28393WAT     H285422   7.476   3.976   9.027
28394WAT      O85423   3.112   3.677   1.799
28394WAT     H185424   3.202   3.646   1.829
28394WAT     H285425   3.062   3.715   1.876
28395WAT      O85426   1.837   5.578   0.066
28395WAT     H185427   1.850   5.557  -0.031
28395WAT     H285428   1.767   5.649   0.076
28396WAT      O85429   9.197   6.500   8.922
28396WAT     H185430   9.148   6.414   8.937
28396WAT     H285431   9.135   6.577   8.937
28397WAT      O85432   0.663   8.224   2.897
28397WAT     H185433   0.745   8.186   2.853
28397WAT     H285434   0.622   8.293   2.837
28398WAT      O85435   0.382   3.776   0.306
28398WAT     H185436   0.295   3.766   0.354
28398WAT     H285437   0.432   3.689   0.311
28399WAT      O85438   5.589   0.621   7.991
28399WAT     H185439   5.512   0.676   7.960
28399WAT     H285440   5.577   0.597   8.087
28400WAT      O85441   2.982   5.454   5.634
28400WAT     H185442   2.996   5.365   5.677
28400WAT     H285443   3.037   5.460   5.550
28401WAT      O85444   3.865   3.129   7.953
28401WAT     H185445   3.890   3.135   8.050
28401WAT     H285446   3.905   3.206   7.904
28402WAT      O85447   5.108   9.376   9.811
28402WAT     H185448   5.104   9.435   9.891
28402WAT     H285449   5.192   9.322   9.813
28403WAT      O85450   7.471   4.180   8.446
28403WAT     H185451   7.422   4.103   8.486
28403WAT     H285452   7.421   4.265   8.465
28404WAT      O85453   9.232   5.899   3.736
28404WAT     H185454   9.279   5.901   3.824
28404WAT     H285455   9.150   5.842   3.743
28405WAT      O85456   7.703   7.142   3.663
28405WAT     H185457   7.738   7.230   3.695
28405WAT     H285458   7.709   7.138   3.563
28406WAT      O85459   0.210   8.589   7.405
28406WAT     H185460   0.285   8.654   7.420
28406WAT     H285461   0.215   8.554   7.312
28407WAT      O85462   5.346   1.494   1.862
28407WAT     H185463   5.424   1.556   1.854
28407WAT     H285464   5.284   1.508   1.785
28408WAT      O85465   5.106   5.501   8.122
28408WAT     H185466   5.111   5.531   8.218
28408WAT     H285467   5.144   5.573   8.064
28409WAT      O85468   8.622   6.632   8.728
28409WAT     H185469   8.719   6.612   8.743
28409WAT     H285470   8.566   6.565   8.775
28410WAT      O85471   3.716   5.637   9.340
28410WAT     H185472   3.784   5.563   9.344
28410WAT     H285473   3.726   5.696   9.419
28411WAT      O85474   6.191   7.601   7.003
28411WAT     H185475   6.161   7.649   6.920
28411WAT     H285476   6.195   7.503   6.985
28412WAT      O85477   8.271   7.155   1.030
28412WAT     H185478   8.223   7.071   1.056
28412WAT     H285479   8.365   7.134   1.003
28413WAT      O85480   2.779   6.152   9.824
28413WAT     H185481   2.824   6.182   9.908
28413WAT     H285482   2.690   6.197   9.815
28414WAT      O85483   5.689   0.563   4.155
28414WAT     H185484   5.622   0.574   4.229
28414WAT     H285485   5.645   0.518   4.077
28415WAT      O85486   4.737   3.756   1.576
28415WAT     H185487   4.667   3.688   1.553
28415WAT     H285488   4.827   3.713   1.578
28416WAT      O85489   3.696   6.864   8.279
28416WAT     H185490   3.614   6.818   8.244
28416WAT     H285491   3.775   6.805   8.267
28417WAT      O85492   6.134   9.023   1.354
28417WAT     H185493   6.233   9.024   1.346
28417WAT     H285494   6.108   9.046   1.448
28418WAT      O85495   0.871   5.619   0.600
28418WAT     H185496   0.829   5.709   0.610
28418WAT     H285497   0.941   5.623   0.529
28419WAT      O85498   9.775   1.777   2.610
28419WAT     H185499   9.850   1.776   2.676
28419WAT     H285500   9.811   1.798   2.519
28420WAT      O85501   3.297   3.055   3.444
28420WAT     H185502   3.255   2.965   3.454
28420WAT     H285503   3.377   3.048   3.383
28421WAT      O85504   1.249   3.651   1.332
28421WAT     H185505   1.157   3.692   1.326
28421WAT     H285506   1.298   3.666   1.246
28422WAT      O85507   2.102   1.318   5.481
28422WAT     H185508   2.199   1.337   5.466
28422WAT     H285509   2.089   1.289   5.575
28423WAT      O85510   6.864   3.796   0.876
28423WAT     H185511   6.862   3.799   0.976
28423WAT     H285512   6.774   3.770   0.842
28424WAT      O85513   7.001   6.686   9.404
28424WAT     H185514   6.920   6.673   9.460
28424WAT     H285515   6.974   6.706   9.309
28425WAT      O85516   2.798   6.000   2.934
28425WAT     H185517   2.791   5.935   2.858
28425WAT     H285518   2.877   5.977   2.990
28426WAT      O85519   0.843   7.777   6.349
28426WAT     H185520   0.782   7.790   6.428
28426WAT     H285521   0.924   7.726   6.377
28427WAT      O85522   0.078   5.763   7.863
28427WAT     H185523   0.047   5.668   7.864
28427WAT     H285524   0.020   5.817   7.924
28428WAT      O85525   3.933   4.949   4.942
28428WAT     H185526   3.868   5.024   4.926
28428WAT     H285527   3.909   4.871   4.885
28429WAT      O85528   7.730   4.626   1.795
28429WAT     H185529   7.758   4.597   1.886
28429WAT     H285530   7.772   4.567   1.726
28430WAT      O85531   2.790   6.628   9.440
28430WAT     H185532   2.848   6.686   9.384
28430WAT     H285533   2.766   6.677   9.525
28431WAT      O85534   7.036   1.786   2.486
28431WAT     H185535   7.051   1.833   2.573
28431WAT     H285536   7.051   1.687   2.499
28432WAT      O85537   5.280   2.388   7.896
28432WAT     H185538   5.316   2.426   7.981
28432WAT     H285539   5.313   2.294   7.885
28433WAT      O85540   7.146   7.516   4.951
28433WAT     H185541   7.106   7.446   4.892
28433WAT     H285542   7.088   7.529   5.032
28434WAT      O85543   3.090   4.798   2.358
28434WAT     H185544   2.992   4.818   2.361
28434WAT     H285545   3.127   4.797   2.451
28435WAT      O85546   0.859   9.014   3.095
28435WAT     H185547   0.806   9.004   3.010
28435WAT     H285548   0.917   9.095   3.088
28436WAT      O85549   7.528   6.553   9.610
28436WAT     H185550   7.556   6.504   9.527
28436WAT     H285551   7.464   6.497   9.662
28437WAT      O85552   2.944   4.994   8.676
28437WAT     H185553   2.873   5.012   8.744
28437WAT     H285554   3.031   5.029   8.709
28438WAT      O85555   7.358   6.197   7.882
28438WAT     H185556   7.419   6.273   7.905
28438WAT     H285557   7.301   6.221   7.804
28439WAT      O85558   6.807   6.541   2.429
28439WAT     H185559   6.851   6.581   2.349
28439WAT     H285560   6.811   6.441   2.424
28440WAT      O85561   6.785   0.330   8.732
28440WAT     H185562   6.823   0.270   8.662
28440WAT     H285563   6.858   0.386   8.771
28441WAT      O85564   7.746   5.330   3.038
28441WAT     H185565   7.803   5.263   2.991
28441WAT     H285566   7.667   5.284   3.079
28442WAT      O85567   4.380   6.064   7.856
28442WAT     H185568   4.292   6.090   7.894
28442WAT     H285569   4.366   6.009   7.773
28443WAT      O85570   2.155   5.633   9.750
28443WAT     H185571   2.242   5.602   9.709
28443WAT     H285572   2.173   5.711   9.811
28444WAT      O85573   7.758   6.919   8.991
28444WAT     H185574   7.738   6.892   8.897
28444WAT     H285575   7.708   7.002   9.014
28445WAT      O85576   6.466   7.638   6.688
28445WAT     H185577   6.515   7.664   6.771
28445WAT     H285578   6.403   7.711   6.662
28446WAT      O85579   8.215   9.031   2.502
28446WAT     H185580   8.157   9.084   2.564
28446WAT     H285581   8.294   9.086   2.476
28447WAT      O85582   3.277   2.683   7.318
28447WAT     H185583   3.280   2.758   7.252
28447WAT     H285584   3.244   2.717   7.406
28448WAT      O85585   1.036   7.161   8.147
28448WAT     H185586   1.044   7.062   8.141
28448WAT     H285587   1.092   7.195   8.223
28449WAT      O85588   3.150   1.816   3.244
28449WAT     H185589   3.216   1.742   3.260
28449WAT     H285590   3.071   1.804   3.305
28450WAT      O85591   7.940   4.147   7.005
28450WAT     H185592   7.969   4.201   6.926
28450WAT     H285593   7.964   4.195   7.089
28451WAT      O85594   3.852   1.094   4.079
28451WAT     H185595   3.872   1.062   4.172
28451WAT     H285596   3.776   1.158   4.082
28452WAT      O85597   5.787   9.820   0.921
28452WAT     H185598   5.774   9.792   1.016
28452WAT     H285599   5.712   9.881   0.894
28453WAT      O85600   8.691   6.095   1.639
28453WAT     H185601   8.708   6.147   1.723
28453WAT     H285602   8.636   6.151   1.576
28454WAT      O85603   0.883   8.634   3.379
28454WAT     H185604   0.925   8.547   3.406
28454WAT     H285605   0.911   8.657   3.286
28455WAT      O85606   2.238   7.678   5.800
28455WAT     H185607   2.255   7.725   5.887
28455WAT     H285608   2.292   7.594   5.797
28456WAT      O85609   0.234   0.397   4.714
28456WAT     H185610   0.294   0.460   4.664
28456WAT     H285611   0.148   0.443   4.735
28457WAT      O85612   7.155   9.602   7.788
28457WAT     H185613   7.071   9.551   7.769
28457WAT     H285614   7.210   9.609   7.705
28458WAT      O85615   1.131   1.700   0.410
28458WAT     H185616   1.118   1.789   0.367
28458WAT     H285617   1.211   1.704   0.471
28459WAT      O85618   0.452   2.109   6.717
28459WAT     H185619   0.523   2.078   6.780
28459WAT     H285620   0.378   2.041   6.716
28460WAT      O85621   2.515   1.049   6.648
28460WAT     H185622   2.487   0.995   6.728
28460WAT     H285623   2.595   1.008   6.606
28461WAT      O85624   3.553   7.041   4.185
28461WAT     H185625   3.559   6.999   4.276
28461WAT     H285626   3.645   7.054   4.148
28462WAT      O85627   9.862   8.833   3.122
28462WAT     H185628   9.800   8.873   3.190
28462WAT     H285629   9.815   8.828   3.033
28463WAT      O85630   0.389   1.547   5.827
28463WAT     H185631   0.396   1.521   5.730
28463WAT     H285632   0.418   1.642   5.837
28464WAT      O85633   1.364   3.921   5.348
28464WAT     H185634   1.286   3.877   5.393
28464WAT     H285635   1.434   3.852   5.327
28465WAT      O85636   3.029   8.082   8.317
28465WAT     H185637   2.945   8.046   8.358
28465WAT     H285638   3.106   8.063   8.377
28466WAT      O85639   6.221   2.112   3.625
28466WAT     H185640   6.153   2.141   3.558
28466WAT     H285641   6.180   2.109   3.716
28467WAT      O85642   1.937   6.851   7.257
28467WAT     H185643   1.975   6.772   7.208
28467WAT     H285644   1.899   6.821   7.344
28468WAT      O85645   9.455   8.658   8.945
28468WAT     H185646   9.516   8.716   8.999
28468WAT     H285647   9.436   8.702   8.857
28469WAT      O85648   3.858   0.413   8.717
28469WAT     H185649   3.824   0.321   8.738
28469WAT     H285650   3.846   0.431   8.620
28470WAT      O85651   9.176   9.239   7.781
28470WAT     H185652   9.244   9.304   7.749
28470WAT     H285653   9.187   9.225   7.879
28471WAT      O85654   5.961   3.996   4.793
28471WAT     H185655   6.039   3.954   4.747
28471WAT     H285656   5.983   4.090   4.818
28472WAT      O85657   4.146   4.334   5.628
28472WAT     H185658   4.179   4.341   5.534
28472WAT     H285659   4.065   4.276   5.631
28473WAT      O85660   8.189   7.162   5.202
28473WAT     H185661   8.254   7.224   5.245
28473WAT     H285662   8.234   7.075   5.180
28474WAT      O85663   6.901   8.444   3.635
28474WAT     H185664   6.914   8.346   3.620
28474WAT     H285665   6.985   8.493   3.611
28475WAT      O85666   6.322   1.085   1.378
28475WAT     H185667   6.253   1.066   1.448
28475WAT     H285668   6.297   1.168   1.329
28476WAT      O85669   9.058   7.949   6.111
28476WAT     H185670   8.978   7.893   6.133
28476WAT     H285671   9.071   8.019   6.182
28477WAT      O85672   3.169   4.955   6.686
28477WAT     H185673   3.127   4.894   6.619
28477WAT     H285674   3.132   4.934   6.777
28478WAT      O85675   4.145   4.726   2.553
28478WAT     H185676   4.205   4.676   2.491
28478WAT     H285677   4.188   4.813   2.578
28479WAT      O85678   4.436   9.447   8.381
28479WAT     H185679   4.513   9.389   8.406
28479WAT     H285680   4.364   9.391   8.340
28480WAT      O85681   8.409   3.838   8.551
28480WAT     H185682   8.347   3.796   8.485
28480WAT     H285683   8.497   3.791   8.548
28481WAT      O85684   4.438   0.446   3.424
28481WAT     H185685   4.526   0.435   3.378
28481WAT     H285686   4.409   0.541   3.420
28482WAT      O85687   5.702   8.237   4.911
28482WAT     H185688   5.738   8.283   4.830
28482WAT     H285689   5.620   8.285   4.943
28483WAT      O85690   9.829   6.058   0.822
28483WAT     H185691   9.851   5.980   0.880
28483WAT     H285692   9.746   6.103   0.856
28484WAT      O85693   1.505   1.884   2.826
28484WAT     H185694   1.447   1.965   2.828
28484WAT     H285695   1.448   1.801   2.825
28485WAT      O85696   1.468   1.856   5.671
28485WAT     H185697   1.566   1.834   5.666
28485WAT     H285698   1.456   1.946   5.712
28486WAT      O85699   2.832   2.453   2.445
28486WAT     H185700   2.873   2.391   2.378
28486WAT     H285701   2.880   2.443   2.532
28487WAT      O85702   4.960   4.237   8.965
28487WAT     H185703   4.946   4.208   9.060
28487WAT     H285704   4.878   4.285   8.933
28488WAT      O85705   0.100   9.349   6.026
28488WAT     H185706   0.113   9.447   6.011
28488WAT     H285707   0.016   9.319   5.980
28489WAT      O85708   5.752   7.896   6.311
28489WAT     H185709   5.704   7.832   6.252
28489WAT     H285710   5.705   7.985   6.309
28490WAT      O85711   5.114   3.792   9.028
28490WAT     H185712   5.199   3.765   9.072
28490WAT     H285713   5.124   3.785   8.928
28491WAT      O85714   7.119   8.295   7.653
28491WAT     H185715   7.138   8.209   7.606
28491WAT     H285716   7.183   8.365   7.623
28492WAT      O85717   2.278   6.178   7.715
28492WAT     H185718   2.377   6.183   7.702
28492WAT     H285719   2.250   6.082   7.722
28493WAT      O85720   9.148   9.535   8.240
28493WAT     H185721   9.092   9.488   8.172
28493WAT     H285722   9.090   9.565   8.316
28494WAT      O85723   8.473   0.557   8.364
28494WAT     H185724   8.520   0.540   8.451
28494WAT     H285725   8.539   0.550   8.289
28495WAT      O85726   8.460   1.769   9.832
28495WAT     H185727   8.500   1.711   9.761
28495WAT     H285728   8.416   1.848   9.790
28496WAT      O85729   1.811   1.147   8.583
28496WAT     H185730   1.860   1.116   8.664
28496WAT     H285731   1.873   1.199   8.525
28497WAT      O85732   7.281   0.413   0.690
28497WAT     H185733   7.191   0.456   0.677
28497WAT     H285734   7.291   0.337   0.625
28498WAT      O85735   6.939   0.354   9.555
28498WAT     H185736   7.013   0.304   9.599
28498WAT     H285737   6.902   0.423   9.619
28499WAT      O85738   3.039   7.180   6.559
28499WAT     H185739   3.114   7.242   6.538
28499WAT     H285740   2.966   7.231   6.605
28500WAT      O85741   0.670   9.256   0.265
28500WAT     H185742   0.735   9.302   0.326
28500WAT     H285743   0.608   9.200   0.320
28501WAT      O85744   8.624   3.694   5.667
28501WAT     H185745   8.570   3.763   5.716
28501WAT     H285746   8.721   3.720   5.669
28502WAT      O85747   2.357   5.982   6.795
28502WAT     H185748   2.378   5.930   6.712
28502WAT     H285749   2.442   6.021   6.832
28503WAT      O85750   5.629   0.302   3.674
28503WAT     H185751   5.538   0.337   3.652
28503WAT     H285752   5.698   0.359   3.630
28504WAT      O85753   4.317   8.697   6.753
28504WAT     H185754   4.333   8.744   6.840
28504WAT     H285755   4.226   8.656   6.753
28505WAT      O85756   8.531   7.432   9.573
28505WAT     H185757   8.526   7.409   9.475
28505WAT     H285758   8.568   7.525   9.583
28506WAT      O85759   6.537   8.395   2.237
28506WAT     H185760   6.441   8.420   2.226
28506WAT     H285761   6.583   8.463   2.295
28507WAT      O85762   8.895   0.632   0.930
28507WAT     H185763   8.951   0.704   0.889
28507WAT     H285764   8.948   0.584   1.001
28508WAT      O85765   4.687   4.264   8.916
28508WAT     H185766   4.658   4.230   9.005
28508WAT     H285767   4.669   4.195   8.846
28509WAT      O85768   6.515   1.658   5.526
28509WAT     H185769   6.518   1.558   5.525
28509WAT     H285770   6.536   1.693   5.434
28510WAT      O85771   7.660   4.607   7.151
28510WAT     H185772   7.693   4.693   7.189
28510WAT     H285773   7.700   4.593   7.061
28511WAT      O85774   7.608   4.244   2.585
28511WAT     H185775   7.678   4.284   2.644
28511WAT     H285776   7.625   4.146   2.573
28512WAT      O85777   3.527   3.653   8.849
28512WAT     H185778   3.505   3.737   8.799
28512WAT     H285779   3.603   3.671   8.912
28513WAT      O85780   4.164   2.466   8.249
28513WAT     H185781   4.217   2.382   8.264
28513WAT     H285782   4.197   2.512   8.166
28514WAT      O85783   5.833   2.727   4.782
28514WAT     H185784   5.757   2.694   4.838
28514WAT     H285785   5.917   2.723   4.835
28515WAT      O85786   9.639   8.364   5.347
28515WAT     H185787   9.720   8.408   5.385
28515WAT     H285788   9.582   8.433   5.302
28516WAT      O85789   1.011   1.453   9.802
28516WAT     H185790   0.997   1.481   9.707
28516WAT     H285791   0.936   1.489   9.858
28517WAT      O85792   4.684   9.629   1.951
28517WAT     H185793   4.642   9.702   2.006
28517WAT     H285794   4.749   9.579   2.008
28518WAT      O85795   3.987   7.567   3.720
28518WAT     H185796   3.888   7.559   3.730
28518WAT     H285797   4.025   7.478   3.694
28519WAT      O85798   9.782   8.467   6.120
28519WAT     H185799   9.822   8.415   6.195
28519WAT     H285800   9.687   8.440   6.108
28520WAT      O85801   9.370   7.703   5.384
28520WAT     H185802   9.302   7.769   5.352
28520WAT     H285803   9.445   7.698   5.318
28521WAT      O85804   8.614   8.395   4.004
28521WAT     H185805   8.621   8.315   4.065
28521WAT     H285806   8.702   8.442   4.001
28522WAT      O85807   7.528   3.120   6.089
28522WAT     H185808   7.512   3.159   6.180
28522WAT     H285809   7.579   3.186   6.033
28523WAT      O85810   5.453   2.348   3.254
28523WAT     H185811   5.453   2.328   3.352
28523WAT     H285812   5.399   2.431   3.237
28524WAT      O85813   4.636   8.301   7.910
28524WAT     H185814   4.601   8.227   7.966
28524WAT     H285815   4.645   8.384   7.966
28525WAT      O85816   8.286   1.708   8.317
28525WAT     H185817   8.237   1.674   8.398
28525WAT     H285818   8.348   1.638   8.284
28526WAT      O85819   8.140   5.178   4.947
28526WAT     H185820   8.213   5.213   4.889
28526WAT     H285821   8.173   5.165   5.040
28527WAT      O85822   6.432   0.199   9.115
28527WAT     H185823   6.427   0.298   9.126
28527WAT     H285824   6.512   0.175   9.060
28528WAT      O85825   6.744   2.547   3.632
28528WAT     H185826   6.729   2.448   3.636
28528WAT     H285827   6.771   2.573   3.539
28529WAT      O85828   8.753   7.039   2.048
28529WAT     H185829   8.703   6.994   1.974
28529WAT     H285830   8.752   7.138   2.035
28530WAT      O85831   0.858   2.897   2.336
28530WAT     H185832   0.948   2.935   2.357
28530WAT     H285833   0.804   2.965   2.287
28531WAT      O85834   5.137   5.273   9.267
28531WAT     H185835   5.106   5.356   9.220
28531WAT     H285836   5.060   5.210   9.278
28532WAT      O85837   7.506   0.722   8.484
28532WAT     H185838   7.410   0.692   8.483
28532WAT     H285839   7.530   0.758   8.394
28533WAT      O85840   4.175   6.497   0.479
28533WAT     H185841   4.264   6.516   0.521
28533WAT     H285842   4.180   6.410   0.429
28534WAT      O85843   7.964   2.722   9.767
28534WAT     H185844   7.999   2.697   9.857
28534WAT     H285845   7.915   2.645   9.727
28535WAT      O85846   3.786   6.519   7.067
28535WAT     H185847   3.805   6.563   7.155
28535WAT     H285848   3.739   6.584   7.007
28536WAT      O85849   6.299   1.215   8.046
28536WAT     H185850   6.334   1.272   8.120
28536WAT     H285851   6.339   1.123   8.053
28537WAT      O85852   1.211   1.758   6.689
28537WAT     H185853   1.174   1.789   6.601
28537WAT     H285854   1.298   1.711   6.673
28538WAT      O85855   6.867   6.478   5.816
28538WAT     H185856   6.894   6.572   5.837
28538WAT     H285857   6.838   6.432   5.900
28539WAT      O85858   2.192   2.113   0.790
28539WAT     H185859   2.134   2.039   0.757
28539WAT     H285860   2.138   2.197   0.799
28540WAT      O85861   0.051   7.609   5.183
28540WAT     H185862   0.088   7.643   5.097
28540WAT     H285863   0.027   7.512   5.173
28541WAT      O85864   3.320   7.657   5.613
28541WAT     H185865   3.391   7.605   5.565
28541WAT     H285866   3.237   7.658   5.557
28542WAT      O85867   7.964   2.091   7.472
28542WAT     H185868   8.017   2.038   7.538
28542WAT     H285869   7.886   2.133   7.518
28543WAT      O85870   6.372   7.901   1.922
28543WAT     H185871   6.352   7.995   1.894
28543WAT     H285872   6.287   7.848   1.921
28544WAT      O85873   3.707   7.113   9.154
28544WAT     H185874   3.696   7.048   9.079
28544WAT     H285875   3.788   7.169   9.138
28545WAT      O85876   4.107   0.767   4.271
28545WAT     H185877   4.104   0.750   4.173
28545WAT     H285878   4.179   0.835   4.290
28546WAT      O85879   6.890   3.369   3.958
28546WAT     H185880   6.846   3.291   4.002
28546WAT     H285881   6.989   3.361   3.969
28547WAT      O85882   1.130   0.890   7.804
28547WAT     H185883   1.124   0.824   7.879
28547WAT     H285884   1.086   0.852   7.722
28548WAT      O85885   0.644   8.282   5.586
28548WAT     H185886   0.724   8.225   5.574
28548WAT     H285887   0.637   8.312   5.681
28549WAT      O85888   7.978   1.455   6.443
28549WAT     H185889   8.049   1.441   6.511
28549WAT     H285890   7.961   1.553   6.433
28550WAT      O85891   8.928   1.708   5.903
28550WAT     H185892   8.978   1.732   5.987
28550WAT     H285893   8.967   1.625   5.864
28551WAT      O85894   4.217   5.580   2.021
28551WAT     H185895   4.178   5.513   2.083
28551WAT     H285896   4.218   5.670   2.064
28552WAT      O85897   3.931   9.251   4.296
28552WAT     H185898   3.885   9.247   4.385
28552WAT     H285899   4.028   9.232   4.309
28553WAT      O85900   5.487   8.625   8.840
28553WAT     H185901   5.493   8.557   8.767
28553WAT     H285902   5.533   8.709   8.811
28554WAT      O85903   7.713   0.599   1.550
28554WAT     H185904   7.678   0.659   1.622
28554WAT     H285905   7.753   0.517   1.590
28555WAT      O85906   0.663   1.992   6.841
28555WAT     H185907   0.635   1.966   6.934
28555WAT     H285908   0.746   1.943   6.817
28556WAT      O85909   4.066   3.507   2.169
28556WAT     H185910   3.969   3.505   2.193
28556WAT     H285911   4.109   3.587   2.209
28557WAT      O85912   9.432   1.168   5.171
28557WAT     H185913   9.429   1.231   5.093
28557WAT     H285914   9.447   1.220   5.255
28558WAT      O85915   4.232   8.163   7.921
28558WAT     H185916   4.161   8.094   7.925
28558WAT     H285917   4.203   8.238   7.861
28559WAT      O85918   1.896   0.353   4.464
28559WAT     H185919   1.910   0.284   4.535
28559WAT     H285920   1.808   0.397   4.476
28560WAT      O85921   3.351   9.552   4.101
28560WAT     H185922   3.324   9.538   4.196
28560WAT     H285923   3.270   9.564   4.044
28561WAT      O85924   2.289   9.613   6.533
28561WAT     H185925   2.358   9.629   6.462
28561WAT     H285926   2.311   9.667   6.614
28562WAT      O85927   9.033   0.356   4.135
28562WAT     H185928   8.960   0.415   4.102
28562WAT     H285929   9.046   0.281   4.070
28563WAT      O85930   7.764   9.155   3.272
28563WAT     H185931   7.824   9.076   3.284
28563WAT     H285932   7.682   9.143   3.328
28564WAT      O85933   5.060   1.747   2.484
28564WAT     H185934   5.152   1.779   2.461
28564WAT     H285935   5.063   1.697   2.571
28565WAT      O85936   5.284   2.051   2.257
28565WAT     H185937   5.373   2.067   2.215
28565WAT     H285938   5.231   1.987   2.201
28566WAT      O85939   9.163   2.903   7.828
28566WAT     H185940   9.083   2.920   7.771
28566WAT     H285941   9.241   2.881   7.770
28567WAT      O85942   1.465   4.585   1.457
28567WAT     H185943   1.401   4.512   1.435
28567WAT     H285944   1.421   4.651   1.518
28568WAT      O85945   0.562   8.698   2.679
28568WAT     H185946   0.509   8.783   2.684
28568WAT     H285947   0.505   8.622   2.712
28569WAT      O85948   5.374   2.151   6.961
28569WAT     H185949   5.443   2.142   7.033
28569WAT     H285950   5.419   2.163   6.873
28570WAT      O85951   8.335   3.511   2.285
28570WAT     H185952   8.291   3.481   2.371
28570WAT     H285953   8.406   3.578   2.306
28571WAT      O85954   7.954   2.955   1.488
28571WAT     H185955   8.050   2.973   1.469
28571WAT     H285956   7.897   3.013   1.431
28572WAT      O85957   6.803   8.519   0.045
28572WAT     H185958   6.798   8.604   0.099
28572WAT     H285959   6.747   8.529  -0.037
28573WAT      O85960   7.431   0.631   7.053
28573WAT     H185961   7.483   0.553   7.019
28573WAT     H285962   7.333   0.615   7.039
28574WAT      O85963   0.588   0.624   3.189
28574WAT     H185964   0.523   0.678   3.243
28574WAT     H285965   0.627   0.681   3.118
28575WAT      O85966   9.211   4.793   5.311
28575WAT     H185967   9.208   4.726   5.237
28575WAT     H285968   9.274   4.762   5.382
28576WAT      O85969   9.458   9.801   4.824
28576WAT     H185970   9.543   9.831   4.781
28576WAT     H285971   9.460   9.823   4.921
28577WAT      O85972   3.073   1.534   1.224
28577WAT     H185973   3.031   1.446   1.202
28577WAT     H285974   3.095   1.582   1.139
28578WAT      O85975   4.522   6.731   4.662
28578WAT     H185976   4.573   6.776   4.589
28578WAT     H285977   4.434   6.775   4.674
28579WAT      O85978   1.923   3.271   5.282
28579WAT     H185979   1.969   3.288   5.195
28579WAT     H285980   1.918   3.356   5.334
28580WAT      O85981   8.851   8.711   3.403
28580WAT     H185982   8.875   8.687   3.498
28580WAT     H285983   8.912   8.784   3.372
28581WAT      O85984   1.817   9.796   8.025
28581WAT     H185985   1.730   9.750   8.007
28581WAT     H285986   1.876   9.735   8.078
28582WAT      O85987   0.541   0.358   7.134
28582WAT     H185988   0.628   0.310   7.125
28582WAT     H285989   0.509   0.386   7.043
28583WAT      O85990   7.835   8.291   9.149
28583WAT     H185991   7.750   8.289   9.201
28583WAT     H285992   7.909   8.325   9.207
28584WAT      O85993   2.329   3.227   1.075
28584WAT     H185994   2.336   3.325   1.093
28584WAT     H285995   2.293   3.214   0.982
28585WAT      O85996   8.108   9.367   8.093
28585WAT     H185997   8.077   9.460   8.114
28585WAT     H285998   8.208   9.364   8.097
28586WAT      O85999   3.876   2.200   1.694
28586WAT     H186000   3.835   2.109   1.694
28586WAT     H286001   3.871   2.240   1.603
28587WAT      O86002   1.289   3.601   8.831
28587WAT     H186003   1.231   3.593   8.912
28587WAT     H286004   1.296   3.697   8.804
28588WAT      O86005   8.931   1.417   4.614
28588WAT     H186006   9.016   1.441   4.567
28588WAT     H286007   8.916   1.318   4.607
28589WAT      O86008   5.148   8.866   7.307
28589WAT     H186009   5.239   8.882   7.269
28589WAT     H286010   5.084   8.844   7.234
28590WAT      O86011   3.376   0.306   6.417
28590WAT     H186012   3.417   0.315   6.326
28590WAT     H286013   3.277   0.303   6.409
28591WAT      O86014   4.081   1.462   0.970
28591WAT     H186015   4.007   1.400   0.996
28591WAT     H286016   4.045   1.555   0.961
28592WAT      O86017   5.433   7.134   2.204
28592WAT     H186018   5.425   7.035   2.210
28592WAT     H286019   5.469   7.170   2.290
28593WAT      O86020   9.431   6.514   2.345
28593WAT     H186021   9.487   6.442   2.303
28593WAT     H286022   9.347   6.526   2.292
28594WAT      O86023   4.786   7.335   0.994
28594WAT     H186024   4.835   7.395   0.931
28594WAT     H286025   4.851   7.279   1.044
28595WAT      O86026   4.366   6.504   5.269
28595WAT     H186027   4.304   6.507   5.347
28595WAT     H286028   4.378   6.596   5.232
28596WAT      O86029   0.501   7.031   3.117
28596WAT     H186030   0.503   6.967   3.040
28596WAT     H286031   0.451   6.990   3.193
28597WAT      O86032   7.465   2.517   0.735
28597WAT     H186033   7.495   2.581   0.805
28597WAT     H286034   7.369   2.534   0.713
28598WAT      O86035   5.454   8.150   2.792
28598WAT     H186036   5.417   8.086   2.860
28598WAT     H286037   5.378   8.192   2.742
28599WAT      O86038   4.187   0.901   2.575
28599WAT     H186039   4.131   0.859   2.646
28599WAT     H286040   4.283   0.900   2.603
28600WAT      O86041   6.125   3.998   5.564
28600WAT     H186042   6.033   4.038   5.569
28600WAT     H286043   6.121   3.904   5.598
28601WAT      O86044   8.430   9.017   4.722
28601WAT     H186045   8.330   9.025   4.723
28601WAT     H286046   8.459   8.956   4.796
28602WAT      O86047   8.365   9.257   1.172
28602WAT     H186048   8.390   9.211   1.087
28602WAT     H286049   8.394   9.353   1.167
28603WAT      O86050   3.609   7.579   8.623
28603WAT     H186051   3.592   7.619   8.533
28603WAT     H286052   3.667   7.641   8.676
28604WAT      O86053   8.108   6.281   2.623
28604WAT     H186054   8.143   6.329   2.703
28604WAT     H286055   8.068   6.347   2.559
28605WAT      O86056   3.427   2.859   3.252
28605WAT     H186057   3.517   2.824   3.275
28605WAT     H286058   3.426   2.892   3.158
28606WAT      O86059   7.239   2.029   3.688
28606WAT     H186060   7.202   2.108   3.639
28606WAT     H286061   7.334   2.047   3.713
28607WAT      O86062   7.396   6.926   4.745
28607WAT     H186063   7.345   6.868   4.810
28607WAT     H286064   7.449   6.994   4.796
28608WAT      O86065   8.573   3.933   9.890
28608WAT     H186066   8.498   3.976   9.840
28608WAT     H286067   8.597   3.990   9.969
28609WAT      O86068   7.407   6.369   9.325
28609WAT     H186069   7.495   6.416   9.332
28609WAT     H286070   7.334   6.436   9.312
28610WAT      O86071   2.520   8.858   5.697
28610WAT     H186072   2.452   8.828   5.764
28610WAT     H286073   2.497   8.820   5.607
28611WAT      O86074   8.203   7.139   4.406
28611WAT     H186075   8.287   7.093   4.434
28611WAT     H286076   8.188   7.219   4.464
28612WAT      O86077   7.626   0.803   6.339
28612WAT     H186078   7.712   0.819   6.290
28612WAT     H286079   7.567   0.744   6.284
28613WAT      O86080   3.223   8.477   2.951
28613WAT     H186081   3.171   8.429   2.881
28613WAT     H286082   3.292   8.536   2.907
28614WAT      O86083   4.599   7.227   0.827
28614WAT     H186084   4.669   7.251   0.894
28614WAT     H286085   4.545   7.150   0.861
28615WAT      O86086   9.809   2.195   2.234
28615WAT     H186087   9.832   2.224   2.326
28615WAT     H286088   9.713   2.165   2.231
28616WAT      O86089   1.629   4.400   5.411
28616WAT     H186090   1.672   4.490   5.421
28616WAT     H286091   1.691   4.339   5.362
28617WAT      O86092   4.551   1.282   6.165
28617WAT     H186093   4.521   1.316   6.076
28617WAT     H286094   4.472   1.268   6.224
28618WAT      O86095   5.604   1.188   6.809
28618WAT     H186096   5.673   1.229   6.749
28618WAT     H286097   5.513   1.210   6.775
28619WAT      O86098   3.024   5.922   7.065
28619WAT     H186099   3.060   5.963   6.981
28619WAT     H286100   2.929   5.896   7.050
28620WAT      O86101   9.647   1.429   9.275
28620WAT     H186102   9.718   1.419   9.206
28620WAT     H286103   9.565   1.470   9.233
28621WAT      O86104   4.339   4.226   6.696
28621WAT     H186105   4.354   4.322   6.671
28621WAT     H286106   4.243   4.203   6.685
28622WAT      O86107   3.499   4.651   3.849
28622WAT     H186108   3.586   4.650   3.798
28622WAT     H286109   3.516   4.680   3.943
28623WAT      O86110   7.373   7.599   7.493
28623WAT     H186111   7.371   7.512   7.542
28623WAT     H286112   7.438   7.660   7.538
28624WAT      O86113   1.064   0.115   4.061
28624WAT     H186114   1.071   0.170   4.144
28624WAT     H286115   1.015   0.166   3.990
28625WAT      O86116   4.772   5.502   2.720
28625WAT     H186117   4.753   5.585   2.772
28625WAT     H286118   4.870   5.495   2.701
28626WAT      O86119   0.653   8.402   5.329
28626WAT     H186120   0.646   8.366   5.422
28626WAT     H286121   0.749   8.414   5.305
28627WAT      O86122   9.776   5.340   8.767
28627WAT     H186123   9.704   5.384   8.821
28627WAT     H286124   9.809   5.259   8.816
28628WAT      O86125   8.673   4.735   1.927
28628WAT     H186126   8.662   4.643   1.966
28628WAT     H286127   8.588   4.764   1.884
28629WAT      O86128   6.784   1.461   6.101
28629WAT     H186129   6.877   1.426   6.115
28629WAT     H286130   6.748   1.425   6.015
28630WAT      O86131   3.306   1.780   3.821
28630WAT     H186132   3.396   1.805   3.785
28630WAT     H286133   3.292   1.682   3.812
28631WAT      O86134   4.214   1.139   3.726
28631WAT     H186135   4.132   1.171   3.678
28631WAT     H286136   4.190   1.112   3.819
28632WAT      O86137   2.646   4.019   6.387
28632WAT     H186138   2.651   4.011   6.486
28632WAT     H286139   2.550   4.011   6.358
28633WAT      O86140   5.804   6.055   5.725
28633WAT     H186141   5.874   6.080   5.792
28633WAT     H286142   5.825   5.965   5.686
28634WAT      O86143   8.899   0.010   0.069
28634WAT     H186144   8.899   0.043  -0.026
28634WAT     H286145   8.873  -0.086   0.071
28635WAT      O86146   6.479   3.790   9.025
28635WAT     H186147   6.424   3.755   8.949
28635WAT     H286148   6.458   3.738   9.108
28636WAT      O86149   0.326   3.293   5.804
28636WAT     H186150   0.243   3.242   5.783
28636WAT     H286151   0.387   3.294   5.724
28637WAT      O86152   3.248   8.048   7.282
28637WAT     H186153   3.261   8.104   7.200
28637WAT     H286154   3.155   8.011   7.283
28638WAT      O86155   5.071   3.112   8.621
28638WAT     H186156   4.989   3.156   8.658
28638WAT     H286157   5.152   3.163   8.649
28639WAT      O86158   7.606   1.794   9.847
28639WAT     H186159   7.668   1.716   9.838
28639WAT     H286160   7.645   1.861   9.910
28640WAT      O86161   0.224   8.626   9.363
28640WAT     H186162   0.269   8.709   9.398
28640WAT     H286163   0.261   8.546   9.409
28641WAT      O86164   4.457   2.677   8.524
28641WAT     H186165   4.493   2.750   8.466
28641WAT     H286166   4.464   2.590   8.476
28642WAT      O86167   6.539   8.170   3.898
28642WAT     H186168   6.634   8.138   3.900
28642WAT     H286169   6.501   8.167   3.990
28643WAT      O86170   1.966   6.011   7.973
28643WAT     H186171   2.062   6.030   7.991
28643WAT     H286172   1.935   5.937   8.033
28644WAT      O86173   6.651   0.231   8.961
28644WAT     H186174   6.730   0.212   9.019
28644WAT     H286175   6.681   0.274   8.876
28645WAT      O86176   1.424   3.886   4.742
28645WAT     H186177   1.465   3.795   4.731
28645WAT     H286178   1.483   3.955   4.701
28646WAT      O86179   6.838   3.571   5.039
28646WAT     H186180   6.874   3.658   5.006
28646WAT     H286181   6.887   3.544   5.121
28647WAT      O86182   4.611   5.828   3.854
28647WAT     H186183   4.691   5.818   3.795
28647WAT     H286184   4.638   5.873   3.939
28648WAT      O86185   7.516   1.264   3.390
28648WAT     H186186   7.430   1.241   3.437
28648WAT     H286187   7.577   1.311   3.452
28649WAT      O86188   4.880   1.448   3.822
28649WAT     H186189   4.872   1.536   3.870
28649WAT     H286190   4.935   1.460   3.739
28650WAT      O86191   5.204   3.171   0.359
28650WAT     H186192   5.260   3.171   0.441
28650WAT     H286193   5.143   3.251   0.359
28651WAT      O86194   8.947   7.194   5.007
28651WAT     H186195   8.947   7.139   5.091
28651WAT     H286196   8.898   7.279   5.024
28652WAT      O86197   3.520   1.942   9.077
28652WAT     H186198   3.482   1.928   8.986
28652WAT     H286199   3.614   1.975   9.070
28653WAT      O86200   8.394   4.003   3.078
28653WAT     H186201   8.367   3.924   3.135
28653WAT     H286202   8.412   3.972   2.985
28654WAT      O86203   1.714   7.255   6.151
28654WAT     H186204   1.724   7.162   6.118
28654WAT     H286205   1.631   7.263   6.206
28655WAT      O86206   3.716   1.561   8.132
28655WAT     H186207   3.778   1.486   8.154
28655WAT     H286208   3.622   1.536   8.156
28656WAT      O86209   5.707   1.907   5.938
28656WAT     H186210   5.648   1.933   5.862
28656WAT     H286211   5.802   1.904   5.907
28657WAT      O86212   8.088   3.280   9.285
28657WAT     H186213   8.049   3.343   9.219
28657WAT     H286214   8.044   3.293   9.374
28658WAT      O86215   1.150   7.574   7.390
28658WAT     H186216   1.118   7.535   7.476
28658WAT     H286217   1.108   7.663   7.376
28659WAT      O86218   5.350   8.713   0.117
28659WAT     H186219   5.284   8.745   0.185
28659WAT     H286220   5.420   8.783   0.103
28660WAT      O86221   8.390   8.609   4.496
28660WAT     H186222   8.362   8.523   4.539
28660WAT     H286223   8.317   8.677   4.507
28661WAT      O86224   4.755   7.261   7.506
28661WAT     H186225   4.762   7.318   7.587
28661WAT     H286226   4.659   7.244   7.485
28662WAT      O86227   8.018   5.495   1.566
28662WAT     H186228   8.105   5.446   1.569
28662WAT     H286229   7.965   5.463   1.488
28663WAT      O86230   6.340   4.665   8.741
28663WAT     H186231   6.242   4.680   8.734
28663WAT     H286232   6.375   4.631   8.653
28664WAT      O86233   1.315   2.516   6.850
28664WAT     H186234   1.252   2.438   6.855
28664WAT     H286235   1.289   2.575   6.774
28665WAT      O86236   6.292   7.237   8.795
28665WAT     H186237   6.273   7.269   8.888
28665WAT     H286238   6.308   7.316   8.736
28666WAT      O86239   0.506   7.339   5.940
28666WAT     H186240   0.453   7.419   5.964
28666WAT     H286241   0.548   7.352   5.850
28667WAT      O86242   4.763   8.317   8.971
28667WAT     H186243   4.737   8.306   8.875
28667WAT     H286244   4.860   8.337   8.977
28668WAT      O86245   3.642   2.864   4.066
28668WAT     H186246   3.718   2.849   4.129
28668WAT     H286247   3.569   2.915   4.113
28669WAT      O86248   4.202   0.344   2.304
28669WAT     H186249   4.203   0.366   2.206
28669WAT     H286250   4.162   0.253   2.316
28670WAT      O86251   1.065   1.568   2.095
28670WAT     H186252   0.969   1.552   2.115
28670WAT     H286253   1.082   1.666   2.090
28671WAT      O86254   8.900   7.314   1.043
28671WAT     H186255   8.920   7.217   1.059
28671WAT     H286256   8.853   7.352   1.122
28672WAT      O86257   7.462   8.059   5.206
28672WAT     H186258   7.531   8.114   5.253
28672WAT     H286259   7.432   8.107   5.123
28673WAT      O86260   7.841   9.412   6.822
28673WAT     H186261   7.919   9.412   6.885
28673WAT     H286262   7.869   9.450   6.734
28674WAT      O86263   8.029   4.601   5.677
28674WAT     H186264   7.975   4.543   5.615
28674WAT     H286265   8.114   4.555   5.699
28675WAT      O86266   8.209   0.222   4.814
28675WAT     H186267   8.163   0.134   4.805
28675WAT     H286268   8.298   0.209   4.857
28676WAT      O86269   1.181   1.917   1.134
28676WAT     H186270   1.088   1.890   1.110
28676WAT     H286271   1.238   1.919   1.052
28677WAT      O86272   0.971   3.027   1.726
28677WAT     H186273   1.053   3.035   1.670
28677WAT     H286274   0.921   2.944   1.700
28678WAT      O86275   5.087   0.147   1.283
28678WAT     H186276   5.104   0.200   1.366
28678WAT     H286277   5.085   0.050   1.305
28679WAT      O86278   9.522   0.417   5.402
28679WAT     H186279   9.607   0.394   5.450
28679WAT     H286280   9.450   0.435   5.469
28680WAT      O86281   7.397   5.676   5.357
28680WAT     H186282   7.438   5.662   5.447
28680WAT     H286283   7.394   5.588   5.308
28681WAT      O86284   0.431   1.948   5.660
28681WAT     H186285   0.488   2.027   5.638
28681WAT     H286286   0.339   1.978   5.685
28682WAT      O86287   6.347   8.084   8.757
28682WAT     H186288   6.427   8.138   8.731
28682WAT     H286289   6.336   8.085   8.856
28683WAT      O86290   3.791   1.210   9.290
28683WAT     H186291   3.808   1.162   9.376
28683WAT     H286292   3.703   1.257   9.294
28684WAT      O86293   1.538   2.712   7.421
28684WAT     H186294   1.539   2.808   7.446
28684WAT     H286295   1.448   2.688   7.383
28685WAT      O86296   7.155   5.482   6.193
28685WAT     H186297   7.065   5.438   6.196
28685WAT     H286298   7.202   5.455   6.109
28686WAT      O86299   2.831   3.219   6.531
28686WAT     H186300   2.756   3.225   6.596
28686WAT     H286301   2.817   3.284   6.457
28687WAT      O86302   8.923   6.175   5.187
28687WAT     H186303   8.830   6.168   5.153
28687WAT     H286304   8.960   6.083   5.204
28688WAT      O86305   1.979   3.314   3.094
28688WAT     H186306   1.882   3.328   3.114
28688WAT     H286307   1.996   3.217   3.077
28689WAT      O86308   5.592   7.104   7.995
28689WAT     H186309   5.681   7.142   8.019
28689WAT     H286310   5.521   7.147   8.051
28690WAT      O86311   0.019   8.699   6.421
28690WAT     H186312   0.067   8.716   6.507
28690WAT     H286313  -0.069   8.656   6.441
28691WAT      O86314   0.521   6.846   9.514
28691WAT     H186315   0.452   6.917   9.526
28691WAT     H286316   0.602   6.886   9.471
28692WAT      O86317   4.474   2.089   0.940
28692WAT     H186318   4.530   2.172   0.931
28692WAT     H286319   4.397   2.108   1.002
28693WAT      O86320   6.111   3.592   7.241
28693WAT     H186321   6.018   3.606   7.207
28693WAT     H286322   6.156   3.522   7.186
28694WAT      O86323   3.184   8.879   9.619
28694WAT     H186324   3.130   8.960   9.642
28694WAT     H286325   3.237   8.850   9.698
28695WAT      O86326   4.096   1.698   7.190
28695WAT     H186327   4.045   1.619   7.223
28695WAT     H286328   4.171   1.667   7.131
28696WAT      O86329   9.671   2.608   6.698
28696WAT     H186330   9.701   2.610   6.793
28696WAT     H286331   9.745   2.573   6.640
28697WAT      O86332   2.622   8.586   0.738
28697WAT     H186333   2.579   8.505   0.698
28697WAT     H286334   2.551   8.652   0.763
28698WAT      O86335   6.111   8.472   1.743
28698WAT     H186336   6.149   8.537   1.808
28698WAT     H286337   6.039   8.418   1.787
28699WAT      O86338   0.520   1.025   3.458
28699WAT     H186339   0.599   0.968   3.482
28699WAT     H286340   0.525   1.050   3.361
28700WAT      O86341   6.151   5.096   2.725
28700WAT     H186342   6.246   5.066   2.716
28700WAT     H286343   6.144   5.161   2.801
28701WAT      O86344   1.739   3.302   0.216
28701WAT     H186345   1.767   3.372   0.150
28701WAT     H286346   1.640   3.305   0.228
28702WAT      O86347   0.371   7.538   8.978
28702WAT     H186348   0.322   7.525   8.892
28702WAT     H286349   0.326   7.486   9.051
28703WAT      O86350   5.104   5.312   7.341
28703WAT     H186351   5.074   5.326   7.436
28703WAT     H286352   5.031   5.265   7.290
28704WAT      O86353   3.184   0.136   2.955
28704WAT     H186354   3.232   0.147   3.042
28704WAT     H286355   3.134   0.049   2.954
28705WAT      O86356   3.190   0.078   8.458
28705WAT     H186357   3.149   0.021   8.530
28705WAT     H286358   3.125   0.150   8.432
28706WAT      O86359   2.218   3.707   4.142
28706WAT     H186360   2.152   3.772   4.106
28706WAT     H286361   2.210   3.702   4.241
28707WAT      O86362   1.154   9.540   4.933
28707WAT     H186363   1.112   9.560   5.022
28707WAT     H286364   1.141   9.618   4.872
28708WAT      O86365   3.823   3.986   0.467
28708WAT     H186366   3.787   3.893   0.458
28708WAT     H286367   3.837   4.007   0.564
28709WAT      O86368   6.924   1.503   2.455
28709WAT     H186369   6.904   1.536   2.363
28709WAT     H286370   6.904   1.405   2.460
28710WAT      O86371   0.248   5.240   1.992
28710WAT     H186372   0.319   5.197   1.936
28710WAT     H286373   0.195   5.303   1.936
28711WAT      O86374   3.089   6.885   3.755
28711WAT     H186375   3.153   6.808   3.755
28711WAT     H286376   3.131   6.962   3.707
28712WAT      O86377   8.449   5.308   3.744
28712WAT     H186378   8.364   5.310   3.692
28712WAT     H286379   8.429   5.314   3.842
28713WAT      O86380   9.650   1.962   7.605
28713WAT     H186381   9.623   1.914   7.521
28713WAT     H286382   9.621   2.058   7.599
28714WAT      O86383   5.511   1.274   3.705
28714WAT     H186384   5.441   1.286   3.634
28714WAT     H286385   5.468   1.239   3.788
28715WAT      O86386   5.084   2.863   4.934
28715WAT     H186387   5.178   2.876   4.901
28715WAT     H286388   5.055   2.769   4.916
28716WAT      O86389   8.590   6.554   7.550
28716WAT     H186390   8.494   6.575   7.532
28716WAT     H286391   8.596   6.476   7.612
28717WAT      O86392   5.587   8.233   7.341
28717WAT     H186393   5.610   8.174   7.417
28717WAT     H286394   5.670   8.255   7.289
28718WAT      O86395   7.087   8.660   9.757
28718WAT     H186396   7.134   8.577   9.787
28718WAT     H286397   7.029   8.638   9.679
28719WAT      O86398   8.407   7.100   0.018
28719WAT     H186399   8.460   7.158  -0.044
28719WAT     H286400   8.397   7.146   0.106
28720WAT      O86401   3.668   8.447   1.452
28720WAT     H186402   3.723   8.530   1.441
28720WAT     H286403   3.663   8.398   1.365
28721WAT      O86404   2.535   5.517   1.300
28721WAT     H186405   2.574   5.597   1.346
28721WAT     H286406   2.591   5.437   1.318
28722WAT      O86407   3.016   8.889   5.870
28722WAT     H186408   3.098   8.945   5.866
28722WAT     H286409   2.961   8.904   5.788
28723WAT      O86410   9.287   5.090   8.941
28723WAT     H186411   9.320   5.184   8.953
28723WAT     H286412   9.351   5.040   8.883
28724WAT      O86413   8.179   4.580   8.814
28724WAT     H186414   8.271   4.604   8.844
28724WAT     H286415   8.170   4.598   8.716
28725WAT      O86416   9.022   4.333   2.247
28725WAT     H186417   8.962   4.385   2.187
28725WAT     H286418   8.988   4.337   2.341
28726WAT      O86419   3.074   6.073   9.595
28726WAT     H186420   3.086   6.107   9.688
28726WAT     H286421   2.977   6.076   9.571
28727WAT      O86422   5.787   0.159   6.036
28727WAT     H186423   5.786   0.192   5.941
28727WAT     H286424   5.720   0.210   6.090
28728WAT      O86425   6.225   3.436   3.392
28728WAT     H186426   6.228   3.368   3.465
28728WAT     H286427   6.150   3.500   3.408
28729WAT      O86428   9.636   5.633   4.817
28729WAT     H186429   9.629   5.730   4.836
28729WAT     H286430   9.657   5.619   4.720
28730WAT      O86431   1.753   0.594   9.092
28730WAT     H186432   1.834   0.651   9.075
28730WAT     H286433   1.695   0.594   9.010
28731WAT      O86434   2.038   3.885   4.063
28731WAT     H186435   2.054   3.889   3.964
28731WAT     H286436   1.945   3.915   4.084
28732WAT      O86437   3.618   5.076   0.234
28732WAT     H186438   3.654   5.052   0.324
28732WAT     H286439   3.567   5.162   0.239
28733WAT      O86440   0.692   7.784   6.599
28733WAT     H186441   0.724   7.798   6.693
28733WAT     H286442   0.595   7.760   6.600
28734WAT      O86443   6.838   9.382   7.333
28734WAT     H186444   6.925   9.431   7.332
28734WAT     H286445   6.850   9.290   7.297
28735WAT      O86446   9.195   3.779   4.446
28735WAT     H186447   9.247   3.862   4.464
28735WAT     H286448   9.154   3.784   4.355
28736WAT      O86449   3.494   0.829   1.346
28736WAT     H186450   3.524   0.734   1.337
28736WAT     H286451   3.403   0.831   1.387
28737WAT      O86452   1.227   8.886   5.082
28737WAT     H186453   1.324   8.902   5.100
28737WAT     H286454   1.215   8.795   5.043
28738WAT      O86455   0.744   1.752   5.472
28738WAT     H186456   0.802   1.788   5.545
28738WAT     H286457   0.652   1.789   5.481
28739WAT      O86458   8.021   9.558   5.564
28739WAT     H186459   8.113   9.596   5.557
28739WAT     H286460   7.994   9.554   5.660
28740WAT      O86461   9.559   1.129   4.792
28740WAT     H186462   9.659   1.121   4.786
28740WAT     H286463   9.527   1.077   4.871
28741WAT      O86464   2.345   1.992   2.126
28741WAT     H186465   2.377   1.932   2.199
28741WAT     H286466   2.399   2.076   2.127
28742WAT      O86467   6.923   0.961   8.725
28742WAT     H186468   7.023   0.965   8.725
28742WAT     H286469   6.886   1.053   8.717
28743WAT      O86470   2.049   7.990   7.527
28743WAT     H186471   2.052   7.916   7.460
28743WAT     H286472   2.099   7.962   7.609
28744WAT      O86473   9.224   8.180   8.797
28744WAT     H186474   9.306   8.222   8.836
28744WAT     H286475   9.164   8.150   8.871
28745WAT      O86476   3.800   1.121   8.394
28745WAT     H186477   3.875   1.056   8.382
28745WAT     H286478   3.730   1.105   8.324
28746WAT      O86479   3.008   2.766   4.506
28746WAT     H186480   3.087   2.778   4.445
28746WAT     H286481   2.924   2.777   4.453
28747WAT      O86482   3.154   8.835   2.591
28747WAT     H186483   3.188   8.929   2.597
28747WAT     H286484   3.173   8.788   2.677
28748WAT      O86485   0.942   4.009   7.213
28748WAT     H186486   0.949   3.988   7.116
28748WAT     H286487   0.966   3.929   7.267
28749WAT      O86488   4.452   2.024   0.075
28749WAT     H186489   4.447   1.934   0.117
28749WAT     H286490   4.408   2.021  -0.015
28750WAT      O86491   7.455   7.170   8.650
28750WAT     H186492   7.409   7.211   8.571
28750WAT     H286493   7.388   7.158   8.724
28751WAT      O86494   5.373   3.846   9.498
28751WAT     H186495   5.303   3.916   9.515
28751WAT     H286496   5.374   3.824   9.401
28752WAT      O86497   4.318   1.232   6.314
28752WAT     H186498   4.264   1.245   6.397
28752WAT     H286499   4.296   1.144   6.273
28753WAT      O86500   8.858   4.958   9.765
28753WAT     H186501   8.804   5.041   9.776
28753WAT     H286502   8.902   4.935   9.852
28754WAT      O86503   2.824   6.312   8.423
28754WAT     H186504   2.858   6.242   8.361
28754WAT     H286505   2.856   6.294   8.516
28755WAT      O86506   1.772   0.080   5.249
28755WAT     H186507   1.818   0.000   5.210
28755WAT     H286508   1.678   0.085   5.214
28756WAT      O86509   3.309   0.261   0.900
28756WAT     H186510   3.245   0.189   0.872
28756WAT     H286511   3.331   0.250   0.997
28757WAT      O86512   3.599   1.268   7.690
28757WAT     H186513   3.690   1.309   7.679
28757WAT     H286514   3.607   1.169   7.689
28758WAT      O86515   6.903   4.036   6.263
28758WAT     H186516   6.841   3.965   6.231
28758WAT     H286517   6.962   4.065   6.188
28759WAT      O86518   1.639   5.294   6.277
28759WAT     H186519   1.615   5.321   6.370
28759WAT     H286520   1.737   5.273   6.273
28760WAT      O86521   8.287   9.443   6.938
28760WAT     H186522   8.336   9.381   6.877
28760WAT     H286523   8.299   9.537   6.906
28761WAT      O86524   5.704   3.327   0.664
28761WAT     H186525   5.803   3.342   0.664
28761WAT     H286526   5.680   3.266   0.740
28762WAT      O86527   7.757   9.830   5.280
28762WAT     H186528   7.681   9.766   5.271
28762WAT     H286529   7.806   9.812   5.366
28763WAT      O86530   8.419   8.559   0.919
28763WAT     H186531   8.445   8.463   0.911
28763WAT     H286532   8.416   8.600   0.828
28764WAT      O86533   3.764   9.531   7.644
28764WAT     H186534   3.702   9.553   7.719
28764WAT     H286535   3.714   9.531   7.558
28765WAT      O86536   1.748   7.517   3.923
28765WAT     H186537   1.721   7.458   3.848
28765WAT     H286538   1.819   7.473   3.978
28766WAT      O86539   5.329   3.139   0.595
28766WAT     H186540   5.403   3.112   0.656
28766WAT     H286541   5.271   3.206   0.642
28767WAT      O86542   3.337   8.274   6.708
28767WAT     H186543   3.364   8.182   6.737
28767WAT     H286544   3.360   8.287   6.612
28768WAT      O86545   1.644   6.002   6.136
28768WAT     H186546   1.710   6.009   6.210
28768WAT     H286547   1.583   6.082   6.137
28769WAT      O86548   4.457   8.549   2.796
28769WAT     H186549   4.470   8.547   2.895
28769WAT     H286550   4.483   8.639   2.760
28770WAT      O86551   6.958   3.549   6.409
28770WAT     H186552   6.861   3.528   6.397
28770WAT     H286553   6.996   3.582   6.323
28771WAT      O86554   4.437   2.944   4.037
28771WAT     H186555   4.459   2.940   3.939
28771WAT     H286556   4.388   3.029   4.057
28772WAT      O86557   1.859   3.066   5.822
28772WAT     H186558   1.881   2.995   5.754
28772WAT     H286559   1.829   3.022   5.907
28773WAT      O86560   4.725   3.640   5.939
28773WAT     H186561   4.782   3.668   5.862
28773WAT     H286562   4.752   3.548   5.970
28774WAT      O86563   4.359   3.881   2.597
28774WAT     H186564   4.285   3.838   2.546
28774WAT     H286565   4.332   3.973   2.624
28775WAT      O86566   5.672   7.791   3.309
28775WAT     H186567   5.597   7.837   3.263
28775WAT     H286568   5.638   7.743   3.390
28776WAT      O86569   0.840   7.939   8.470
28776WAT     H186570   0.884   8.011   8.416
28776WAT     H286571   0.799   7.872   8.408
28777WAT      O86572   5.631   1.970   9.630
28777WAT     H186573   5.637   1.883   9.678
28777WAT     H286574   5.716   2.022   9.644
28778WAT      O86575   3.915   3.580   9.403
28778WAT     H186576   3.974   3.537   9.471
28778WAT     H286577   3.819   3.564   9.427
28779WAT      O86578   5.749   0.287   5.806
28779WAT     H186579   5.735   0.385   5.793
28779WAT     H286580   5.698   0.237   5.735
28780WAT      O86581   1.886   7.030   1.252
28780WAT     H186582   1.813   7.061   1.191
28780WAT     H286583   1.855   7.037   1.347
28781WAT      O86584   6.742   3.141   4.050
28781WAT     H186585   6.686   3.194   3.987
28781WAT     H286586   6.786   3.065   4.001
28782WAT      O86587   6.800   9.756   1.443
28782WAT     H186588   6.732   9.684   1.456
28782WAT     H286589   6.891   9.716   1.444
28783WAT      O86590   0.898   0.702   0.851
28783WAT     H186591   0.967   0.768   0.824
28783WAT     H286592   0.906   0.684   0.949
28784WAT      O86593   2.256   4.544   2.609
28784WAT     H186594   2.227   4.520   2.516
28784WAT     H286595   2.180   4.529   2.672
28785WAT      O86596   6.548   4.032   2.623
28785WAT     H186597   6.460   4.031   2.577
28785WAT     H286598   6.580   3.938   2.635
28786WAT      O86599   4.663   6.579   7.149
28786WAT     H186600   4.696   6.516   7.080
28786WAT     H286601   4.569   6.606   7.128
28787WAT      O86602   4.799   0.202   8.413
28787WAT     H186603   4.895   0.190   8.390
28787WAT     H286604   4.786   0.189   8.511
28788WAT      O86605   0.113   4.325   1.262
28788WAT     H186606   0.115   4.393   1.335
28788WAT     H286607   0.058   4.246   1.292
28789WAT      O86608   7.884   9.805   6.962
28789WAT     H186609   7.807   9.744   6.945
28789WAT     H286610   7.909   9.802   7.058
28790WAT      O86611   2.434   4.179   8.840
28790WAT     H186612   2.363   4.221   8.784
28790WAT     H286613   2.411   4.187   8.937
28791WAT      O86614   8.295   2.834   1.823
28791WAT     H186615   8.359   2.887   1.878
28791WAT     H286616   8.204   2.876   1.827
28792WAT      O86617   4.300   1.442   0.328
28792WAT     H186618   4.232   1.468   0.259
28792WAT     H286619   4.261   1.375   0.390
28793WAT      O86620   6.421   5.571   9.741
28793WAT     H186621   6.480   5.503   9.784
28793WAT     H286622   6.339   5.584   9.796
28794WAT      O86623   4.510   4.440   9.187
28794WAT     H186624   4.568   4.488   9.121
28794WAT     H286625   4.565   4.414   9.267
28795WAT      O86626   4.075   2.483   3.992
28795WAT     H186627   4.154   2.427   3.966
28795WAT     H286628   4.084   2.511   4.087
28796WAT      O86629   0.301   8.151   0.528
28796WAT     H186630   0.397   8.158   0.557
28796WAT     H286631   0.285   8.212   0.451
28797WAT      O86632   6.920   2.938   1.575
28797WAT     H186633   6.998   2.999   1.561
28797WAT     H286634   6.836   2.987   1.552
28798WAT      O86635   0.847   1.568   8.550
28798WAT     H186636   0.792   1.620   8.485
28798WAT     H286637   0.839   1.609   8.641
28799WAT      O86638   9.680   2.245   5.707
28799WAT     H186639   9.654   2.167   5.763
28799WAT     H286640   9.616   2.254   5.630
28800WAT      O86641   1.830   0.810   7.926
28800WAT     H186642   1.759   0.762   7.977
28800WAT     H286643   1.863   0.751   7.852
28801WAT      O86644   3.641   4.877   4.815
28801WAT     H186645   3.715   4.812   4.795
28801WAT     H286646   3.680   4.969   4.825
28802WAT      O86647   8.001   1.644   4.845
28802WAT     H186648   8.097   1.666   4.829
28802WAT     H286649   7.956   1.721   4.890
28803WAT      O86650   3.728   5.808   2.181
28803WAT     H186651   3.769   5.845   2.097
28803WAT     H286652   3.795   5.750   2.228
28804WAT      O86653   0.917   0.504   8.613
28804WAT     H186654   0.900   0.536   8.520
28804WAT     H286655   1.009   0.465   8.618
28805WAT      O86656   2.427   9.420   2.074
28805WAT     H186657   2.385   9.474   2.147
28805WAT     H286658   2.373   9.337   2.060
28806WAT      O86659   7.730   7.595   1.036
28806WAT     H186660   7.750   7.692   1.021
28806WAT     H286661   7.706   7.552   0.949
28807WAT      O86662   4.429   0.229   5.775
28807WAT     H186663   4.521   0.238   5.736
28807WAT     H286664   4.436   0.202   5.871
28808WAT      O86665   3.529   3.465   2.772
28808WAT     H186666   3.593   3.517   2.716
28808WAT     H286667   3.438   3.468   2.730
28809WAT      O86668   0.196   2.998   4.596
28809WAT     H186669   0.131   3.019   4.523
28809WAT     H286670   0.149   2.948   4.669
28810WAT      O86671   3.270   8.587   5.917
28810WAT     H186672   3.316   8.631   5.840
28810WAT     H286673   3.248   8.655   5.987
28811WAT      O86674   5.985   5.650   0.032
28811WAT     H186675   5.992   5.722   0.101
28811WAT     H286676   5.893   5.609   0.035
28812WAT      O86677   5.247   8.478   5.391
28812WAT     H186678   5.250   8.557   5.328
28812WAT     H286679   5.155   8.440   5.391
28813WAT      O86680   0.668   8.146   4.939
28813WAT     H186681   0.625   8.169   5.026
28813WAT     H286682   0.693   8.050   4.938
28814WAT      O86683   2.787   8.108   2.061
28814WAT     H186684   2.698   8.086   2.020
28814WAT     H286685   2.839   8.023   2.072
28815WAT      O86686   7.455   5.542   3.254
28815WAT     H186687   7.428   5.545   3.158
28815WAT     H286688   7.376   5.522   3.311
28816WAT      O86689   1.110   1.000   5.602
28816WAT     H186690   1.179   1.055   5.650
28816WAT     H286691   1.022   1.012   5.647
28817WAT      O86692   9.047   4.064   1.289
28817WAT     H186693   9.038   4.027   1.381
28817WAT     H286694   9.142   4.056   1.259
28818WAT      O86695   0.796   3.687   2.100
28818WAT     H186696   0.703   3.675   2.135
28818WAT     H286697   0.792   3.702   2.001
28819WAT      O86698   6.786   1.406   5.212
28819WAT     H186699   6.768   1.351   5.130
28819WAT     H286700   6.883   1.400   5.235
28820WAT      O86701   0.737   5.156   3.080
28820WAT     H186702   0.768   5.102   3.159
28820WAT     H286703   0.677   5.229   3.112
28821WAT      O86704   5.546   0.152   4.386
28821WAT     H186705   5.645   0.164   4.392
28821WAT     H286706   5.524   0.058   4.361
28822WAT      O86707   4.406   0.275   5.336
28822WAT     H186708   4.311   0.256   5.360
28822WAT     H286709   4.413   0.291   5.238
28823WAT      O86710   3.132   5.965   2.466
28823WAT     H186711   3.077   5.906   2.525
28823WAT     H286712   3.132   6.058   2.502
28824WAT      O86713   9.312   2.652   6.644
28824WAT     H186714   9.309   2.749   6.669
28824WAT     H286715   9.325   2.597   6.726
28825WAT      O86716   7.993   6.552   6.834
28825WAT     H186717   8.045   6.511   6.759
28825WAT     H286718   7.998   6.492   6.914
28826WAT      O86719   7.087   5.891   8.709
28826WAT     H186720   7.102   5.794   8.689
28826WAT     H286721   7.060   5.902   8.805
28827WAT      O86722   9.642   1.470   8.788
28827WAT     H186723   9.664   1.551   8.734
28827WAT     H286724   9.726   1.431   8.825
28828WAT      O86725   9.794   0.516   6.629
28828WAT     H186726   9.828   0.445   6.567
28828WAT     H286727   9.774   0.475   6.718
28829WAT      O86728   5.767   2.395   3.484
28829WAT     H186729   5.738   2.485   3.516
28829WAT     H286730   5.698   2.327   3.509
28830WAT      O86731   7.035   1.490   0.319
28830WAT     H186732   7.115   1.511   0.375
28830WAT     H286733   7.053   1.409   0.263
28831WAT      O86734   7.075   0.993   1.009
28831WAT     H186735   7.144   0.999   0.936
28831WAT     H286736   7.020   0.911   0.996
28832WAT      O86737   0.879   3.998   5.857
28832WAT     H186738   0.842   3.974   5.767
28832WAT     H286739   0.947   4.069   5.847
28833WAT      O86740   3.239   3.166   1.075
28833WAT     H186741   3.209   3.077   1.041
28833WAT     H286742   3.231   3.169   1.175
28834WAT      O86743   9.835   7.150   0.463
28834WAT     H186744   9.868   7.159   0.557
28834WAT     H286745   9.753   7.206   0.452
28835WAT      O86746   4.944   0.752   3.933
28835WAT     H186747   4.974   0.797   4.017
28835WAT     H286748   4.861   0.699   3.951
28836WAT      O86749   5.400   3.586   8.483
28836WAT     H186750   5.413   3.647   8.562
28836WAT     H286751   5.363   3.639   8.407
28837WAT      O86752   3.073   2.497   8.026
28837WAT     H186753   3.151   2.434   8.025
28837WAT     H286754   3.050   2.523   7.932
28838WAT      O86755   6.893   7.120   7.221
28838WAT     H186756   6.815   7.096   7.162
28838WAT     H286757   6.859   7.154   7.309
28839WAT      O86758   6.807   1.534   0.787
28839WAT     H186759   6.778   1.597   0.860
28839WAT     H286760   6.739   1.535   0.713
28840WAT      O86761   2.397   9.031   3.554
28840WAT     H186762   2.477   8.972   3.550
28840WAT     H286763   2.340   9.016   3.474
28841WAT      O86764   0.422   4.168   6.731
28841WAT     H186765   0.456   4.262   6.727
28841WAT     H286766   0.333   4.167   6.777
28842WAT      O86767   2.006   3.252   8.761
28842WAT     H186768   2.024   3.158   8.731
28842WAT     H286769   2.052   3.269   8.848
28843WAT      O86770   6.824   6.646   3.550
28843WAT     H186771   6.836   6.740   3.581
28843WAT     H286772   6.873   6.584   3.611
28844WAT      O86773   0.700   4.391   6.559
28844WAT     H186774   0.791   4.430   6.570
28844WAT     H286775   0.706   4.308   6.504
28845WAT      O86776   7.019   0.592   6.258
28845WAT     H186777   6.946   0.660   6.246
28845WAT     H286778   7.108   0.636   6.247
28846WAT      O86779   2.082   0.244   0.701
28846WAT     H186780   2.065   0.216   0.607
28846WAT     H286781   2.034   0.330   0.719
28847WAT      O86782   1.545   1.632   9.669
28847WAT     H186783   1.512   1.604   9.579
28847WAT     H286784   1.474   1.615   9.738
28848WAT      O86785   9.678   5.478   9.766
28848WAT     H186786   9.621   5.454   9.844
28848WAT     H286787   9.658   5.572   9.738
28849WAT      O86788   3.676   8.870   5.676
28849WAT     H186789   3.711   8.958   5.708
28849WAT     H286790   3.675   8.869   5.576
28850WAT      O86791   0.208   8.853   8.532
28850WAT     H186792   0.144   8.847   8.608
28850WAT     H286793   0.164   8.900   8.455
28851WAT      O86794   7.430   6.568   2.803
28851WAT     H186795   7.508   6.567   2.741
28851WAT     H286796   7.455   6.524   2.889
28852WAT      O86797   4.723   4.435   4.731
28852WAT     H186798   4.703   4.496   4.808
28852WAT     H286799   4.786   4.479   4.669
28853WAT      O86800   9.739   8.603   4.565
28853WAT     H186801   9.796   8.653   4.501
28853WAT     H286802   9.673   8.665   4.607
28854WAT      O86803   0.146   9.443   3.288
28854WAT     H186804   0.123   9.406   3.198
28854WAT     H286805   0.092   9.526   3.305
28855WAT      O86806   8.103   3.444   8.234
28855WAT     H186807   8.093   3.536   8.271
28855WAT     H286808   8.107   3.448   8.134
28856WAT      O86809   4.749   4.573   9.557
28856WAT     H186810   4.794   4.483   9.557
28856WAT     H286811   4.800   4.635   9.497
28857WAT      O86812   8.854   3.162   0.389
28857WAT     H186813   8.843   3.261   0.388
28857WAT     H286814   8.773   3.120   0.431
28858WAT      O86815   8.833   4.980   1.723
28858WAT     H186816   8.858   4.886   1.704
28858WAT     H286817   8.875   5.009   1.809
28859WAT      O86818   2.249   8.090   4.243
28859WAT     H186819   2.314   8.075   4.318
28859WAT     H286820   2.163   8.045   4.264
28860WAT      O86821   8.523   8.029   9.040
28860WAT     H186822   8.460   7.956   9.015
28860WAT     H286823   8.493   8.115   8.999
28861WAT      O86824   5.126   9.150   3.438
28861WAT     H186825   5.044   9.198   3.470
28861WAT     H286826   5.183   9.127   3.517
28862WAT      O86827   6.914   2.041   9.337
28862WAT     H186828   7.000   1.993   9.317
28862WAT     H286829   6.851   2.030   9.261
28863WAT      O86830   6.567   1.695   6.003
28863WAT     H186831   6.619   1.769   6.045
28863WAT     H286832   6.584   1.694   5.905
28864WAT      O86833   7.331   7.650   7.901
28864WAT     H186834   7.350   7.747   7.883
28864WAT     H286835   7.247   7.643   7.955
28865WAT      O86836   8.022   9.014   1.583
28865WAT     H186837   7.989   8.954   1.510
28865WAT     H286838   7.969   9.099   1.583
28866WAT      O86839   5.187   3.036   6.536
28866WAT     H186840   5.106   3.018   6.479
28866WAT     H286841   5.175   3.122   6.585
28867WAT      O86842   0.974   1.014   1.005
28867WAT     H186843   0.980   0.999   0.906
28867WAT     H286844   1.029   1.093   1.031
28868WAT      O86845   1.274   1.346   8.777
28868WAT     H186846   1.184   1.378   8.807
28868WAT     H286847   1.281   1.356   8.678
28869WAT      O86848   4.775   5.745   3.140
28869WAT     H186849   4.761   5.778   3.047
28869WAT     H286850   4.871   5.719   3.152
28870WAT      O86851   1.917   6.962   4.326
28870WAT     H186852   1.845   7.001   4.269
28870WAT     H286853   1.919   7.009   4.414
28871WAT      O86854   8.242   4.031   0.264
28871WAT     H186855   8.310   4.104   0.254
28871WAT     H286856   8.154   4.062   0.231
28872WAT      O86857   8.560   7.978   2.847
28872WAT     H186858   8.509   7.999   2.931
28872WAT     H286859   8.592   7.884   2.851
28873WAT      O86860   1.809   1.024   9.112
28873WAT     H186861   1.718   1.031   9.071
28873WAT     H286862   1.870   0.975   9.049
28874WAT      O86863   0.501   4.385   6.124
28874WAT     H186864   0.412   4.377   6.080
28874WAT     H286865   0.505   4.469   6.177
28875WAT      O86866   2.433   6.881   6.062
28875WAT     H186867   2.495   6.950   6.024
28875WAT     H286868   2.371   6.849   5.991
28876WAT      O86869   1.625   7.576   6.891
28876WAT     H186870   1.607   7.523   6.974
28876WAT     H286871   1.700   7.534   6.840
28877WAT      O86872   9.759   5.372   4.487
28877WAT     H186873   9.663   5.346   4.498
28877WAT     H286874   9.812   5.336   4.563
28878WAT      O86875   4.263   5.077   8.014
28878WAT     H186876   4.327   5.065   8.090
28878WAT     H286877   4.240   5.174   8.006
28879WAT      O86878   7.253   7.113   2.012
28879WAT     H186879   7.333   7.067   1.974
28879WAT     H286880   7.275   7.210   2.026
28880WAT      O86881   4.647   9.386   5.845
28880WAT     H186882   4.623   9.483   5.856
28880WAT     H286883   4.625   9.358   5.751
28881WAT      O86884   5.952   0.512   5.467
28881WAT     H186885   5.992   0.580   5.529
28881WAT     H286886   5.854   0.531   5.456
28882WAT      O86887   3.237   4.143   9.044
28882WAT     H186888   3.193   4.097   8.967
28882WAT     H286889   3.174   4.146   9.121
28883WAT      O86890   2.402   9.051   3.824
28883WAT     H186891   2.343   9.112   3.876
28883WAT     H286892   2.382   9.061   3.726
28884WAT      O86893   4.501   4.903   7.900
28884WAT     H186894   4.489   4.936   7.807
28884WAT     H286895   4.588   4.938   7.937
28885WAT      O86896   4.706   4.987   5.824
28885WAT     H186897   4.790   4.943   5.792
28885WAT     H286898   4.727   5.080   5.856
28886WAT      O86899   5.288   9.763   8.295
28886WAT     H186900   5.309   9.669   8.320
28886WAT     H286901   5.188   9.775   8.291
28887WAT      O86902   4.718   6.970   8.395
28887WAT     H186903   4.697   7.048   8.454
28887WAT     H286904   4.800   6.924   8.429
28888WAT      O86905   5.481   9.112   8.991
28888WAT     H186906   5.454   9.045   9.061
28888WAT     H286907   5.488   9.202   9.032
28889WAT      O86908   8.003   6.695   2.070
28889WAT     H186909   7.958   6.761   2.130
28889WAT     H286910   8.050   6.626   2.126
28890WAT      O86911   3.918   5.150   5.391
28890WAT     H186912   3.905   5.155   5.491
28890WAT     H286913   3.828   5.143   5.347
28891WAT      O86914   1.729   2.048   1.818
28891WAT     H186915   1.813   2.012   1.777
28891WAT     H286916   1.699   1.987   1.891
28892WAT      O86917   5.989   6.657   0.664
28892WAT     H186918   5.923   6.675   0.591
28892WAT     H286919   5.991   6.559   0.682
28893WAT      O86920   9.165   9.618   3.443
28893WAT     H186921   9.212   9.671   3.373
28893WAT     H286922   9.147   9.676   3.522
28894WAT      O86923   9.854   0.830   9.447
28894WAT     H186924   9.836   0.803   9.352
28894WAT     H286925   9.916   0.908   9.449
28895WAT      O86926   1.047   2.185   7.840
28895WAT     H186927   0.999   2.261   7.797
28895WAT     H286928   1.021   2.099   7.795
28896WAT      O86929   8.733   6.512   4.893
28896WAT     H186930   8.715   6.545   4.800
28896WAT     H286931   8.692   6.422   4.906
28897WAT      O86932   4.576   4.496   1.739
28897WAT     H186933   4.585   4.493   1.639
28897WAT     H286934   4.648   4.440   1.781
28898WAT      O86935   3.307   3.569   4.493
28898WAT     H186936   3.284   3.613   4.406
28898WAT     H286937   3.377   3.624   4.539
28899WAT      O86938   1.223   7.954   0.151
28899WAT     H186939   1.321   7.959   0.137
28899WAT     H286940   1.178   7.930   0.065
28900WAT      O86941   0.214   0.953   0.521
28900WAT     H186942   0.121   0.959   0.484
28900WAT     H286943   0.225   0.865   0.568
28901WAT      O86944   7.293   3.173   5.474
28901WAT     H186945   7.357   3.136   5.543
28901WAT     H286946   7.203   3.130   5.486
28902WAT      O86947   4.738   8.321   5.620
28902WAT     H186948   4.661   8.315   5.683
28902WAT     H286949   4.767   8.229   5.593
28903WAT      O86950   7.790   6.781   7.301
28903WAT     H186951   7.763   6.710   7.366
28903WAT     H286952   7.812   6.865   7.351
28904WAT      O86953   8.780   1.602   3.464
28904WAT     H186954   8.716   1.544   3.516
28904WAT     H286955   8.832   1.659   3.528
28905WAT      O86956   1.516   2.683   0.102
28905WAT     H186957   1.434   2.636   0.133
28905WAT     H286958   1.561   2.629   0.031
28906WAT      O86959   2.530   9.348   5.309
28906WAT     H186960   2.445   9.295   5.313
28906WAT     H286961   2.527   9.423   5.375
28907WAT      O86962   9.758   3.077   4.051
28907WAT     H186963   9.838   3.039   4.097
28907WAT     H286964   9.698   3.002   4.022
28908WAT      O86965   4.764   4.276   3.637
28908WAT     H186966   4.673   4.248   3.606
28908WAT     H286967   4.767   4.273   3.737
28909WAT      O86968   6.119   0.026   3.846
28909WAT     H186969   6.202  -0.018   3.880
28909WAT     H286970   6.116   0.019   3.746
28910WAT      O86971   0.233   8.292   9.049
28910WAT     H186972   0.262   8.386   9.067
28910WAT     H286973   0.229   8.276   8.950
28911WAT      O86974   8.055   6.310   5.660
28911WAT     H186975   7.973   6.290   5.715
28911WAT     H286976   8.084   6.404   5.677
28912WAT      O86977   6.566   5.123   1.311
28912WAT     H186978   6.665   5.134   1.306
28912WAT     H286979   6.544   5.045   1.370
28913WAT      O86980   9.512   6.822   6.904
28913WAT     H186981   9.595   6.776   6.871
28913WAT     H286982   9.511   6.916   6.872
28914WAT      O86983   5.375   2.764   5.039
28914WAT     H186984   5.320   2.814   5.106
28914WAT     H286985   5.354   2.798   4.947
28915WAT      O86986   8.717   4.816   6.824
28915WAT     H186987   8.621   4.817   6.852
28915WAT     H286988   8.770   4.873   6.887
28916WAT      O86989   6.808   5.271   9.062
28916WAT     H186990   6.767   5.182   9.084
28916WAT     H286991   6.793   5.291   8.966
28917WAT      O86992   3.323   2.537   0.600
28917WAT     H186993   3.400   2.564   0.658
28917WAT     H286994   3.250   2.606   0.607
28918WAT      O86995   0.012   4.539   5.946
28918WAT     H186996   0.044   4.592   5.868
28918WAT     H286997  -0.023   4.602   6.016
28919WAT      O86998   2.448   7.939   4.861
28919WAT     H186999   2.469   7.968   4.768
28919WAT     H287000   2.492   7.851   4.879
28920WAT      O87001   7.109   3.573   2.779
28920WAT     H187002   7.086   3.476   2.774
28920WAT     H287003   7.044   3.625   2.724
28921WAT      O87004   6.042   8.211   9.784
28921WAT     H187005   5.989   8.279   9.834
28921WAT     H287006   6.124   8.253   9.747
28922WAT      O87007   3.411   8.255   2.149
28922WAT     H187008   3.368   8.250   2.239
28922WAT     H287009   3.341   8.241   2.078
28923WAT      O87010   4.885   6.798   8.544
28923WAT     H187011   4.965   6.838   8.589
28923WAT     H287012   4.865   6.709   8.583
28924WAT      O87013   0.432   1.483   2.223
28924WAT     H187014   0.405   1.519   2.133
28924WAT     H287015   0.356   1.494   2.287
28925WAT      O87016   3.470   6.340   2.785
28925WAT     H187017   3.370   6.347   2.783
28925WAT     H287018   3.504   6.333   2.691
28926WAT      O87019   5.299   6.615   4.618
28926WAT     H187020   5.286   6.559   4.699
28926WAT     H287021   5.363   6.570   4.555
28927WAT      O87022   3.235   5.275   3.912
28927WAT     H187023   3.233   5.341   3.837
28927WAT     H287024   3.150   5.222   3.911
28928WAT      O87025   7.667   2.505   0.182
28928WAT     H187026   7.630   2.435   0.243
28928WAT     H287027   7.592   2.555   0.139
28929WAT      O87028   7.890   6.209   3.770
28929WAT     H187029   7.819   6.185   3.705
28929WAT     H287030   7.979   6.210   3.724
28930WAT      O87031   5.576   8.732   3.458
28930WAT     H187032   5.557   8.676   3.538
28930WAT     H287033   5.534   8.822   3.469
28931WAT      O87034   8.312   0.831   7.495
28931WAT     H187035   8.354   0.886   7.568
28931WAT     H287036   8.301   0.887   7.413
28932WAT      O87037   0.874   3.764   2.840
28932WAT     H187038   0.956   3.798   2.887
28932WAT     H287039   0.900   3.694   2.774
28933WAT      O87040   8.885   9.110   2.686
28933WAT     H187041   8.812   9.051   2.651
28933WAT     H287042   8.851   9.204   2.693
28934WAT      O87043   1.992   8.926   6.189
28934WAT     H187044   1.935   8.845   6.178
28934WAT     H287045   2.084   8.906   6.154
28935WAT      O87046   8.155   3.994   1.968
28935WAT     H187047   8.156   3.905   1.922
28935WAT     H287048   8.137   4.066   1.901
28936WAT      O87049   8.354   4.074   8.204
28936WAT     H187050   8.310   4.081   8.293
28936WAT     H287051   8.295   4.023   8.141
28937WAT      O87052   4.573   0.838   3.664
28937WAT     H187053   4.542   0.795   3.749
28937WAT     H287054   4.643   0.906   3.685
28938WAT      O87055   3.829   4.431   4.834
28938WAT     H187056   3.810   4.445   4.737
28938WAT     H287057   3.758   4.373   4.874
28939WAT      O87058   3.170   6.676   4.900
28939WAT     H187059   3.114   6.643   4.824
28939WAT     H287060   3.117   6.739   4.957
28940WAT      O87061   1.839   4.707   8.144
28940WAT     H187062   1.811   4.765   8.068
28940WAT     H287063   1.825   4.755   8.231
28941WAT      O87064   8.470   2.192   5.332
28941WAT     H187065   8.427   2.279   5.306
28941WAT     H287066   8.565   2.192   5.302
28942WAT      O87067   5.318   4.675   6.550
28942WAT     H187068   5.264   4.653   6.469
28942WAT     H287069   5.345   4.772   6.547
28943WAT      O87070   1.117   5.262   3.731
28943WAT     H187071   1.143   5.214   3.815
28943WAT     H287072   1.186   5.247   3.661
28944WAT      O87073   7.145   4.490   1.209
28944WAT     H187074   7.089   4.410   1.194
28944WAT     H287075   7.241   4.468   1.191
28945WAT      O87076   5.849   0.813   5.371
28945WAT     H187077   5.802   0.733   5.334
28945WAT     H287078   5.826   0.893   5.316
28946WAT      O87079   3.105   8.029   7.945
28946WAT     H187080   3.054   7.974   8.011
28946WAT     H287081   3.052   8.111   7.922
28947WAT      O87082   9.506   8.616   2.864
28947WAT     H187083   9.462   8.537   2.821
28947WAT     H287084   9.518   8.598   2.962
28948WAT      O87085   1.912   7.850   2.982
28948WAT     H187086   1.998   7.902   2.980
28948WAT     H287087   1.901   7.801   2.895
28949WAT      O87088   7.752   3.299   7.664
28949WAT     H187089   7.752   3.397   7.682
28949WAT     H287090   7.661   3.262   7.682
28950WAT      O87091   2.733   7.285   5.161
28950WAT     H187092   2.790   7.264   5.241
28950WAT     H287093   2.746   7.216   5.091
28951WAT      O87094   6.437   0.234   2.994
28951WAT     H187095   6.470   0.255   3.086
28951WAT     H287096   6.414   0.137   2.988
28952WAT      O87097   5.811   2.632   4.108
28952WAT     H187098   5.864   2.549   4.126
28952WAT     H287099   5.755   2.654   4.188
28953WAT      O87100   1.765   8.569   3.603
28953WAT     H187101   1.716   8.654   3.623
28953WAT     H287102   1.842   8.559   3.666
28954WAT      O87103   5.412   3.822   1.541
28954WAT     H187104   5.328   3.856   1.499
28954WAT     H287105   5.472   3.785   1.469
28955WAT      O87106   5.142   0.988   7.421
28955WAT     H187107   5.047   0.957   7.419
28955WAT     H287108   5.202   0.912   7.397
28956WAT      O87109   4.409   9.391   2.184
28956WAT     H187110   4.376   9.302   2.153
28956WAT     H287111   4.508   9.397   2.170
28957WAT      O87112   2.443   3.578   4.891
28957WAT     H187113   2.347   3.606   4.902
28957WAT     H287114   2.465   3.575   4.794
28958WAT      O87115   8.498   1.564   0.381
28958WAT     H187116   8.574   1.585   0.319
28958WAT     H287117   8.420   1.529   0.328
28959WAT      O87118   6.390   9.268   4.343
28959WAT     H187119   6.334   9.311   4.272
28959WAT     H287120   6.354   9.293   4.433
28960WAT      O87121   2.473   8.701   9.588
28960WAT     H187122   2.538   8.768   9.622
28960WAT     H287123   2.508   8.661   9.503
28961WAT      O87124   1.174   7.187   2.636
28961WAT     H187125   1.214   7.164   2.547
28961WAT     H287126   1.210   7.275   2.667
28962WAT      O87127   5.742   7.356   8.555
28962WAT     H187128   5.782   7.435   8.508
28962WAT     H287129   5.730   7.377   8.652
28963WAT      O87130   5.690   6.428   8.668
28963WAT     H187131   5.704   6.332   8.694
28963WAT     H287132   5.777   6.477   8.674
28964WAT      O87133   9.177   2.454   1.336
28964WAT     H187134   9.230   2.439   1.253
28964WAT     H287135   9.079   2.447   1.315
28965WAT      O87136   9.253   8.881   0.767
28965WAT     H187137   9.208   8.886   0.856
28965WAT     H287138   9.347   8.849   0.778
28966WAT      O87139   9.773   1.888   9.037
28966WAT     H187140   9.838   1.860   8.966
28966WAT     H287141   9.749   1.984   9.024
28967WAT      O87142   4.769   8.214   0.418
28967WAT     H187143   4.796   8.309   0.434
28967WAT     H287144   4.670   8.209   0.404
28968WAT      O87145   3.224   1.277   1.080
28968WAT     H187146   3.300   1.332   1.114
28968WAT     H287147   3.161   1.257   1.154
28969WAT      O87148   6.721   5.752   6.248
28969WAT     H187149   6.643   5.781   6.194
28969WAT     H287150   6.743   5.823   6.316
28970WAT      O87151   9.457   2.879   3.748
28970WAT     H187152   9.367   2.898   3.708
28970WAT     H287153   9.502   2.965   3.772
28971WAT      O87154   4.913   9.729   6.293
28971WAT     H187155   4.929   9.811   6.347
28971WAT     H287156   5.001   9.684   6.275
28972WAT      O87157   7.411   6.113   1.588
28972WAT     H187158   7.491   6.132   1.645
28972WAT     H287159   7.373   6.199   1.555
28973WAT      O87160   4.763   2.099   4.596
28973WAT     H187161   4.797   2.040   4.670
28973WAT     H287162   4.779   2.054   4.508
28974WAT      O87163   2.402   9.818   1.827
28974WAT     H187164   2.491   9.777   1.805
28974WAT     H287165   2.393   9.827   1.926
28975WAT      O87166   1.097   6.940   6.653
28975WAT     H187167   1.022   7.003   6.630
28975WAT     H287168   1.175   6.958   6.594
28976WAT      O87169   1.189   7.327   9.388
28976WAT     H187170   1.198   7.408   9.329
28976WAT     H287171   1.219   7.350   9.480
28977WAT      O87172   0.398   5.590   0.682
28977WAT     H187173   0.496   5.600   0.703
28977WAT     H287174   0.344   5.607   0.764
28978WAT      O87175   0.961   5.982   9.178
28978WAT     H187176   0.983   5.982   9.080
28978WAT     H287177   0.903   6.061   9.199
28979WAT      O87178   9.857   2.007   7.383
28979WAT     H187179   9.908   1.973   7.462
28979WAT     H287180   9.917   2.062   7.325
28980WAT      O87181   4.705   0.922   0.709
28980WAT     H187182   4.694   1.017   0.680
28980WAT     H287183   4.800   0.906   0.734
28981WAT      O87184   2.379   7.353   4.752
28981WAT     H187185   2.296   7.349   4.806
28981WAT     H287186   2.384   7.441   4.704
28982WAT      O87187   4.701   8.549   0.190
28982WAT     H187188   4.800   8.534   0.200
28982WAT     H287189   4.673   8.627   0.245
28983WAT      O87190   7.040   8.101   6.942
28983WAT     H187191   6.955   8.126   6.989
28983WAT     H287192   7.019   8.059   6.854
28984WAT      O87193   1.710   1.855   3.646
28984WAT     H187194   1.624   1.883   3.689
28984WAT     H287195   1.694   1.773   3.591
28985WAT      O87196   5.072   0.975   0.548
28985WAT     H187197   5.110   0.933   0.466
28985WAT     H287198   5.127   1.055   0.572
28986WAT      O87199   2.926   5.464   9.458
28986WAT     H187200   2.967   5.372   9.463
28986WAT     H287201   2.872   5.480   9.540
28987WAT      O87202   0.593   5.362   1.715
28987WAT     H187203   0.564   5.276   1.756
28987WAT     H287204   0.619   5.345   1.619
28988WAT      O87205   7.335   4.074   8.148
28988WAT     H187206   7.363   4.132   8.072
28988WAT     H287207   7.339   4.127   8.233
28989WAT      O87208   2.734   0.095   0.841
28989WAT     H187209   2.815   0.114   0.786
28989WAT     H287210   2.752   0.017   0.901
28990WAT      O87211   5.910   1.056   7.931
28990WAT     H187212   5.959   0.969   7.920
28990WAT     H287213   5.891   1.071   8.028
28991WAT      O87214   2.131   8.673   6.488
28991WAT     H187215   2.101   8.590   6.441
28991WAT     H287216   2.059   8.704   6.550
28992WAT      O87217   8.908   8.626   1.388
28992WAT     H187218   8.832   8.590   1.335
28992WAT     H287219   8.991   8.574   1.368
28993WAT      O87220   2.723   8.201   9.443
28993WAT     H187221   2.810   8.218   9.397
28993WAT     H287222   2.698   8.281   9.498
28994WAT      O87223   9.035   7.506   4.935
28994WAT     H187224   9.032   7.485   5.033
28994WAT     H287225   9.094   7.440   4.888
28995WAT      O87226   9.155   9.342   3.218
28995WAT     H187227   9.098   9.393   3.281
28995WAT     H287228   9.252   9.361   3.237
28996WAT      O87229   4.875   1.157   2.626
28996WAT     H187230   4.918   1.148   2.716
28996WAT     H287231   4.894   1.076   2.572
28997WAT      O87232   8.157   7.084   4.150
28997WAT     H187233   8.144   7.090   4.249
28997WAT     H287234   8.239   7.029   4.131
28998WAT      O87235   0.679   6.233   8.579
28998WAT     H187236   0.617   6.220   8.502
28998WAT     H287237   0.686   6.331   8.600
28999WAT      O87238   5.110   8.482   9.233
28999WAT     H187239   5.103   8.438   9.143
28999WAT     H287240   5.026   8.533   9.252
29000WAT      O87241   9.870   8.661   3.699
29000WAT     H187242   9.891   8.758   3.691
29000WAT     H287243   9.953   8.610   3.721
29001WAT      O87244   2.522   1.080   2.424
29001WAT     H187245   2.431   1.100   2.461
29001WAT     H287246   2.587   1.073   2.500
29002WAT      O87247   4.071   1.743   0.497
29002WAT     H187248   4.072   1.780   0.404
29002WAT     H287249   4.057   1.644   0.493
29003WAT      O87250   9.328   9.244   5.828
29003WAT     H187251   9.274   9.209   5.905
29003WAT     H287252   9.386   9.318   5.860
29004WAT      O87253   6.251   0.753   6.936
29004WAT     H187254   6.165   0.802   6.928
29004WAT     H287255   6.285   0.759   7.030
29005WAT      O87256   5.806   0.559   4.738
29005WAT     H187257   5.817   0.503   4.655
29005WAT     H287258   5.832   0.653   4.717
29006WAT      O87259   8.802   9.105   9.623
29006WAT     H187260   8.769   9.013   9.644
29006WAT     H287261   8.759   9.137   9.539
29007WAT      O87262   0.826   5.514   1.405
29007WAT     H187263   0.812   5.575   1.483
29007WAT     H287264   0.799   5.421   1.430
29008WAT      O87265   4.785   2.426   4.880
29008WAT     H187266   4.706   2.486   4.896
29008WAT     H287267   4.785   2.396   4.784
29009WAT      O87268   1.142   5.899   0.419
29009WAT     H187269   1.169   5.913   0.514
29009WAT     H287270   1.114   5.804   0.406
29010WAT      O87271   7.802   8.820   1.093
29010WAT     H187272   7.722   8.878   1.106
29010WAT     H287273   7.854   8.853   1.014
29011WAT      O87274   1.701   5.683   8.640
29011WAT     H187275   1.774   5.663   8.574
29011WAT     H287276   1.683   5.781   8.640
29012WAT      O87277   2.146   8.480   4.637
29012WAT     H187278   2.074   8.540   4.669
29012WAT     H287279   2.107   8.393   4.607
29013WAT      O87280   7.685   6.073   1.336
29013WAT     H187281   7.666   5.991   1.391
29013WAT     H287282   7.770   6.115   1.367
29014WAT      O87283   7.132   4.344   6.506
29014WAT     H187284   7.148   4.416   6.438
29014WAT     H287285   7.036   4.344   6.531
29015WAT      O87286   7.922   1.485   2.752
29015WAT     H187287   7.890   1.428   2.827
29015WAT     H287288   8.018   1.508   2.765
29016WAT      O87289   4.487   6.403   6.304
29016WAT     H187290   4.450   6.495   6.288
29016WAT     H287291   4.566   6.410   6.365
29017WAT      O87292   1.368   9.527   7.690
29017WAT     H187293   1.465   9.549   7.685
29017WAT     H287294   1.342   9.510   7.785
29018WAT      O87295   4.813   2.493   5.434
29018WAT     H187296   4.738   2.558   5.442
29018WAT     H287297   4.853   2.477   5.525
29019WAT      O87298   1.409   7.875   3.221
29019WAT     H187299   1.411   7.968   3.259
29019WAT     H287300   1.465   7.872   3.139
29020WAT      O87301   2.080   1.373   4.836
29020WAT     H187302   2.176   1.345   4.835
29020WAT     H287303   2.021   1.293   4.844
29021WAT      O87304   8.242   7.074   1.326
29021WAT     H187305   8.316   7.008   1.316
29021WAT     H287306   8.281   7.166   1.336
29022WAT      O87307   0.548   1.674   8.520
29022WAT     H187308   0.506   1.584   8.505
29022WAT     H287309   0.540   1.729   8.437
29023WAT      O87310   3.303   1.570   4.544
29023WAT     H187311   3.348   1.659   4.542
29023WAT     H287312   3.215   1.576   4.497
29024WAT      O87313   9.448   4.703   4.721
29024WAT     H187314   9.465   4.774   4.653
29024WAT     H287315   9.534   4.663   4.751
29025WAT      O87316   8.008   6.031   1.175
29025WAT     H187317   7.945   6.093   1.223
29025WAT     H287318   8.100   6.071   1.175
29026WAT      O87319   2.158   2.268   3.234
29026WAT     H187320   2.189   2.177   3.204
29026WAT     H287321   2.101   2.258   3.315
29027WAT      O87322   9.758   9.464   0.974
29027WAT     H187323   9.764   9.549   0.920
29027WAT     H287324   9.849   9.424   0.983
29028WAT      O87325   8.726   1.688   8.004
29028WAT     H187326   8.629   1.665   8.003
29028WAT     H287327   8.748   1.736   8.089
29029WAT      O87328   9.306   9.294   0.890
29029WAT     H187329   9.242   9.237   0.837
29029WAT     H287330   9.277   9.297   0.985
29030WAT      O87331   1.319   8.344   2.072
29030WAT     H187332   1.399   8.396   2.043
29030WAT     H287333   1.342   8.285   2.149
29031WAT      O87334   3.731   7.446   2.362
29031WAT     H187335   3.800   7.515   2.385
29031WAT     H287336   3.756   7.358   2.403
29032WAT      O87337   8.410   5.876   8.814
29032WAT     H187338   8.413   5.780   8.839
29032WAT     H287339   8.489   5.899   8.757
29033WAT      O87340   2.768   3.338   4.563
29033WAT     H187341   2.741   3.421   4.513
29033WAT     H287342   2.858   3.309   4.531
29034WAT      O87343   2.599   6.316   3.249
29034WAT     H187344   2.682   6.295   3.299
29034WAT     H287345   2.525   6.337   3.313
29035WAT      O87346   8.719   7.538   0.428
29035WAT     H187347   8.784   7.593   0.374
29035WAT     H287348   8.677   7.469   0.369
29036WAT      O87349   0.496   0.511   0.071
29036WAT     H187350   0.522   0.426   0.024
29036WAT     H287351   0.423   0.555   0.019
29037WAT      O87352   0.778   9.376   7.689
29037WAT     H187353   0.776   9.453   7.625
29037WAT     H287354   0.786   9.290   7.637
29038WAT      O87355   3.092   3.306   6.685
29038WAT     H187356   3.190   3.326   6.691
29038WAT     H287357   3.071   3.269   6.594
29039WAT      O87358   1.350   3.993   6.494
29039WAT     H187359   1.447   4.012   6.478
29039WAT     H287360   1.336   3.974   6.592
29040WAT      O87361   0.312   2.953   5.938
29040WAT     H187362   0.371   2.926   5.862
29040WAT     H287363   0.362   3.017   5.997
29041WAT      O87364   5.173   8.874   9.004
29041WAT     H187365   5.188   8.808   9.078
29041WAT     H287366   5.153   8.964   9.043
29042WAT      O87367   0.364   5.537   1.799
29042WAT     H187368   0.449   5.484   1.803
29042WAT     H287369   0.300   5.493   1.737
29043WAT      O87370   4.250   7.473   0.058
29043WAT     H187371   4.203   7.515  -0.019
29043WAT     H287372   4.336   7.522   0.075
29044WAT      O87373   4.188   6.743   8.623
29044WAT     H187374   4.201   6.647   8.645
29044WAT     H287375   4.243   6.767   8.542
29045WAT      O87376   2.504   8.303   9.138
29045WAT     H187377   2.590   8.352   9.135
29045WAT     H287378   2.475   8.280   9.045
29046WAT      O87379   7.959   1.531   0.618
29046WAT     H187380   8.050   1.546   0.579
29046WAT     H287381   7.960   1.553   0.715
29047WAT      O87382   0.390   7.933   5.273
29047WAT     H187383   0.469   7.892   5.227
29047WAT     H287384   0.328   7.860   5.303
29048WAT      O87385   4.960   3.655   4.203
29048WAT     H187386   5.029   3.725   4.185
29048WAT     H287387   5.004   3.567   4.217
29049WAT      O87388   9.838   8.370   0.648
29049WAT     H187389   9.833   8.296   0.581
29049WAT     H287390   9.761   8.363   0.711
29050WAT      O87391   0.008   0.053   1.291
29050WAT     H187392  -0.078   0.058   1.240
29050WAT     H287393   0.049   0.145   1.295
29051WAT      O87394   4.650   8.995   6.364
29051WAT     H187395   4.711   8.930   6.319
29051WAT     H287396   4.560   8.993   6.320
29052WAT      O87397   3.755   2.591   5.537
29052WAT     H187398   3.660   2.590   5.569
29052WAT     H287399   3.812   2.639   5.604
29053WAT      O87400   2.545   0.947   6.228
29053WAT     H187401   2.643   0.963   6.236
29053WAT     H287402   2.504   0.944   6.319
29054WAT      O87403   4.072   6.823   9.694
29054WAT     H187404   4.158   6.772   9.684
29054WAT     H287405   4.046   6.824   9.790
29055WAT      O87406   5.158   6.395   5.578
29055WAT     H187407   5.074   6.346   5.600
29055WAT     H287408   5.151   6.490   5.609
29056WAT      O87409   6.377   4.228   2.827
29056WAT     H187410   6.408   4.305   2.883
29056WAT     H287411   6.432   4.147   2.847
29057WAT      O87412   0.986   3.742   1.398
29057WAT     H187413   0.962   3.740   1.496
29057WAT     H287414   0.910   3.703   1.345
29058WAT      O87415   4.733   5.068   7.318
29058WAT     H187416   4.712   5.158   7.356
29058WAT     H287417   4.808   5.077   7.253
29059WAT      O87418   4.057   8.190   1.969
29059WAT     H187419   3.957   8.180   1.961
29059WAT     H287420   4.085   8.274   1.923
29060WAT      O87421   3.345   0.857   0.964
29060WAT     H187422   3.249   0.879   0.981
29060WAT     H287423   3.403   0.914   1.022
29061WAT      O87424   5.508   1.958   5.093
29061WAT     H187425   5.507   1.898   5.172
29061WAT     H287426   5.601   1.963   5.056
29062WAT      O87427   9.819   4.895   3.143
29062WAT     H187428   9.864   4.815   3.181
29062WAT     H287429   9.745   4.924   3.203
29063WAT      O87430   4.238   4.616   4.497
29063WAT     H187431   4.180   4.682   4.449
29063WAT     H287432   4.333   4.628   4.467
29064WAT      O87433   3.041   2.531   4.663
29064WAT     H187434   3.027   2.602   4.594
29064WAT     H287435   3.119   2.556   4.721
29065WAT      O87436   8.971   6.058   7.216
29065WAT     H187437   9.032   6.081   7.292
29065WAT     H287438   8.993   5.967   7.181
29066WAT      O87439   2.994   4.352   8.744
29066WAT     H187440   3.006   4.367   8.842
29066WAT     H287441   3.069   4.295   8.709
29067WAT      O87442   6.219   2.906   4.649
29067WAT     H187443   6.157   2.980   4.625
29067WAT     H287444   6.249   2.918   4.744
29068WAT      O87445   5.574   2.291   4.939
29068WAT     H187446   5.565   2.389   4.958
29068WAT     H287447   5.670   2.269   4.920
29069WAT      O87448   1.858   4.295   7.116
29069WAT     H187449   1.868   4.289   7.215
29069WAT     H287450   1.858   4.392   7.089
29070WAT      O87451   3.638   5.465   3.042
29070WAT     H187452   3.633   5.410   3.126
29070WAT     H287453   3.712   5.430   2.985
29071WAT      O87454   6.170   1.127   9.698
29071WAT     H187455   6.214   1.209   9.734
29071WAT     H287456   6.232   1.082   9.634
29072WAT      O87457   1.282   1.492   3.629
29072WAT     H187458   1.360   1.458   3.682
29072WAT     H287459   1.279   1.591   3.635
29073WAT      O87460   5.156   3.146   7.528
29073WAT     H187461   5.082   3.123   7.466
29073WAT     H287462   5.161   3.246   7.538
29074WAT      O87463   3.885   6.209   0.868
29074WAT     H187464   3.792   6.247   0.872
29074WAT     H287465   3.937   6.257   0.798
29075WAT      O87466   3.154   7.943   0.873
29075WAT     H187467   3.186   7.941   0.779
29075WAT     H287468   3.161   8.036   0.910
29076WAT      O87469   9.475   5.395   6.418
29076WAT     H187470   9.474   5.440   6.507
29076WAT     H287471   9.471   5.464   6.345
29077WAT      O87472   8.847   1.816   4.592
29077WAT     H187473   8.788   1.738   4.606
29077WAT     H287474   8.935   1.801   4.638
29078WAT      O87475   1.431   9.321   7.301
29078WAT     H187476   1.372   9.347   7.378
29078WAT     H287477   1.475   9.403   7.264
29079WAT      O87478   0.682   1.397   0.382
29079WAT     H187479   0.772   1.435   0.404
29079WAT     H287480   0.622   1.469   0.347
29080WAT      O87481   9.206   1.432   9.376
29080WAT     H187482   9.280   1.391   9.429
29080WAT     H287483   9.214   1.404   9.280
29081WAT      O87484   8.214   4.533   0.626
29081WAT     H187485   8.230   4.471   0.550
29081WAT     H287486   8.281   4.607   0.623
29082WAT      O87487   8.526   3.366   7.287
29082WAT     H187488   8.568   3.446   7.330
29082WAT     H287489   8.427   3.370   7.299
29083WAT      O87490   0.601   1.635   3.656
29083WAT     H187491   0.527   1.701   3.660
29083WAT     H287492   0.599   1.577   3.737
29084WAT      O87493   6.342   2.147   6.268
29084WAT     H187494   6.347   2.063   6.324
29084WAT     H287495   6.367   2.226   6.324
29085WAT      O87496   0.502   2.641   0.438
29085WAT     H187497   0.534   2.600   0.352
29085WAT     H287498   0.402   2.636   0.442
29086WAT      O87499   5.651   3.279   7.920
29086WAT     H187500   5.614   3.201   7.871
29086WAT     H287501   5.580   3.349   7.931
29087WAT      O87502   6.148   4.300   1.002
29087WAT     H187503   6.183   4.234   1.068
29087WAT     H287504   6.216   4.371   0.986
29088WAT      O87505   5.551   9.779   9.275
29088WAT     H187506   5.590   9.871   9.277
29088WAT     H287507   5.617   9.715   9.235
29089WAT      O87508   8.645   8.687   2.336
29089WAT     H187509   8.738   8.656   2.355
29089WAT     H287510   8.606   8.632   2.262
29090WAT      O87511   4.811   0.264   2.856
29090WAT     H187512   4.766   0.182   2.892
29090WAT     H287513   4.794   0.270   2.757
29091WAT      O87514   5.960   5.030   1.861
29091WAT     H187515   6.050   5.066   1.837
29091WAT     H287516   5.944   4.944   1.813
29092WAT      O87517   2.242   2.288   4.294
29092WAT     H187518   2.293   2.330   4.369
29092WAT     H287519   2.283   2.316   4.207
29093WAT      O87520   7.068   1.280   2.762
29093WAT     H187521   6.989   1.220   2.750
29093WAT     H287522   7.105   1.305   2.673
29094WAT      O87523   8.746   3.057   7.085
29094WAT     H187524   8.793   3.134   7.042
29094WAT     H287525   8.811   2.983   7.103
29095WAT      O87526   7.004   9.520   8.099
29095WAT     H187527   7.044   9.592   8.042
29095WAT     H287528   7.061   9.506   8.180
29096WAT      O87529   2.130   9.379   6.988
29096WAT     H187530   2.205   9.385   7.054
29096WAT     H287531   2.137   9.293   6.938
29097WAT      O87532   0.902   8.501   1.096
29097WAT     H187533   0.854   8.510   1.184
29097WAT     H287534   0.994   8.467   1.113
29098WAT      O87535   6.930   5.132   1.734
29098WAT     H187536   6.966   5.060   1.794
29098WAT     H287537   7.005   5.189   1.700
29099WAT      O87538   0.152   7.887   9.815
29099WAT     H187539   0.056   7.916   9.825
29099WAT     H287540   0.200   7.901   9.901
29100WAT      O87541   0.529   5.439   7.668
29100WAT     H187542   0.469   5.516   7.646
29100WAT     H287543   0.565   5.450   7.761
29101WAT      O87544   7.732   2.671   3.992
29101WAT     H187545   7.713   2.618   4.075
29101WAT     H287546   7.654   2.730   3.972
29102WAT      O87547   3.436   5.076   5.015
29102WAT     H187548   3.450   5.121   4.927
29102WAT     H287549   3.500   5.112   5.082
29103WAT      O87550   3.299   6.906   3.379
29103WAT     H187551   3.327   6.912   3.474
29103WAT     H287552   3.241   6.825   3.367
29104WAT      O87553   1.359   8.273   8.684
29104WAT     H187554   1.305   8.191   8.702
29104WAT     H287555   1.320   8.351   8.734
29105WAT      O87556   2.596   9.329   7.139
29105WAT     H187557   2.560   9.420   7.119
29105WAT     H287558   2.614   9.321   7.237
29106WAT      O87559   2.583   7.756   0.990
29106WAT     H187560   2.621   7.842   0.955
29106WAT     H287561   2.483   7.760   0.986
29107WAT      O87562   9.871   5.600   3.465
29107WAT     H187563   9.840   5.654   3.544
29107WAT     H287564   9.792   5.559   3.420
29108WAT      O87565   3.724   3.938   4.232
29108WAT     H187566   3.780   3.879   4.291
29108WAT     H287567   3.653   3.982   4.287
29109WAT      O87568   2.103   4.069   8.984
29109WAT     H187569   2.097   4.039   8.888
29109WAT     H287570   2.044   4.148   8.998
29110WAT      O87571   2.828   9.735   1.130
29110WAT     H187572   2.875   9.792   1.197
29110WAT     H287573   2.743   9.780   1.102
29111WAT      O87574   5.777   8.032   8.248
29111WAT     H187575   5.721   7.978   8.310
29111WAT     H287576   5.864   8.055   8.293
29112WAT      O87577   3.320   0.548   8.535
29112WAT     H187578   3.325   0.480   8.608
29112WAT     H287579   3.402   0.543   8.479
29113WAT      O87580   1.174   7.208   0.063
29113WAT     H187581   1.273   7.203   0.073
29113WAT     H287582   1.149   7.179  -0.029
29114WAT      O87583   0.244   2.635   9.253
29114WAT     H187584   0.291   2.666   9.171
29114WAT     H287585   0.145   2.647   9.242
29115WAT      O87586   9.156   7.714   4.476
29115WAT     H187587   9.250   7.716   4.441
29115WAT     H287588   9.126   7.619   4.485
29116WAT      O87589   4.062   4.113   5.050
29116WAT     H187590   4.129   4.183   5.074
29116WAT     H287591   4.054   4.108   4.950
29117WAT      O87592   5.863   6.320   4.032
29117WAT     H187593   5.890   6.416   4.037
29117WAT     H287594   5.922   6.266   4.092
29118WAT      O87595   8.225   5.279   9.031
29118WAT     H187596   8.229   5.373   9.067
29118WAT     H287597   8.276   5.219   9.092
29119WAT      O87598   8.029   4.383   8.459
29119WAT     H187599   8.113   4.344   8.497
29119WAT     H287600   8.046   4.479   8.433
29120WAT      O87601   7.248   7.322   2.491
29120WAT     H187602   7.168   7.266   2.470
29120WAT     H287603   7.238   7.412   2.449
29121WAT      O87604   9.768   0.332   2.322
29121WAT     H187605   9.863   0.302   2.320
29121WAT     H287606   9.710   0.260   2.284
29122WAT      O87607   8.350   7.869   0.298
29122WAT     H187608   8.340   7.931   0.219
29122WAT     H287609   8.360   7.775   0.265
29123WAT      O87610   4.175   0.835   2.312
29123WAT     H187611   4.182   0.851   2.411
29123WAT     H287612   4.252   0.779   2.282
29124WAT      O87613   5.900   1.264   5.345
29124WAT     H187614   5.950   1.247   5.430
29124WAT     H287615   5.929   1.199   5.275
29125WAT      O87616   0.041   8.118   8.258
29125WAT     H187617  -0.040   8.094   8.205
29125WAT     H287618   0.014   8.157   8.345
29126WAT      O87619   1.950   3.707   2.434
29126WAT     H187620   1.897   3.786   2.462
29126WAT     H287621   1.904   3.661   2.357
29127WAT      O87622   0.296   2.954   1.091
29127WAT     H187623   0.370   2.898   1.129
29127WAT     H287624   0.265   2.914   1.005
29128WAT      O87625   5.007   7.540   4.717
29128WAT     H187626   5.031   7.474   4.787
29128WAT     H287627   4.917   7.517   4.679
29129WAT      O87628   5.300   3.121   7.756
29129WAT     H187629   5.254   3.130   7.668
29129WAT     H287630   5.399   3.117   7.742
29130WAT      O87631   4.386   7.129   5.363
29130WAT     H187632   4.307   7.089   5.317
29130WAT     H287633   4.458   7.147   5.296
29131WAT      O87634   4.115   0.608   4.488
29131WAT     H187635   4.160   0.521   4.473
29131WAT     H287636   4.113   0.660   4.403
29132WAT      O87637   3.306   0.915   8.626
29132WAT     H187638   3.346   0.975   8.696
29132WAT     H287639   3.346   0.936   8.537
29133WAT      O87640   3.218   0.216   6.872
29133WAT     H187641   3.262   0.130   6.849
29133WAT     H287642   3.139   0.198   6.932
29134WAT      O87643   9.550   2.208   6.929
29134WAT     H187644   9.572   2.271   7.003
29134WAT     H287645   9.553   2.257   6.842
29135WAT      O87646   5.073   5.745   6.199
29135WAT     H187647   5.096   5.822   6.139
29135WAT     H287648   5.142   5.735   6.270
29136WAT      O87649   5.676   9.371   7.789
29136WAT     H187650   5.619   9.308   7.736
29136WAT     H287651   5.652   9.365   7.886
29137WAT      O87652   7.390   6.600   7.662
29137WAT     H187653   7.334   6.519   7.642
29137WAT     H287654   7.466   6.604   7.598
29138WAT      O87655   1.453   7.210   0.144
29138WAT     H187656   1.470   7.125   0.095
29138WAT     H287657   1.540   7.247   0.177
29139WAT      O87658   1.691   5.100   4.352
29139WAT     H187659   1.644   5.011   4.356
29139WAT     H287660   1.657   5.158   4.426
29140WAT      O87661   4.344   0.821   8.722
29140WAT     H187662   4.276   0.847   8.790
29140WAT     H287663   4.399   0.901   8.697
29141WAT      O87664   7.823   4.169   2.100
29141WAT     H187665   7.821   4.119   2.014
29141WAT     H287666   7.879   4.120   2.167
29142WAT      O87667   5.187   2.755   1.788
29142WAT     H187668   5.147   2.751   1.697
29142WAT     H287669   5.286   2.744   1.782
29143WAT      O87670   6.140   0.975   2.106
29143WAT     H187671   6.226   0.926   2.121
29143WAT     H287672   6.077   0.958   2.181
29144WAT      O87673   8.127   8.918   0.533
29144WAT     H187674   8.065   8.858   0.482
29144WAT     H287675   8.143   8.880   0.624
29145WAT      O87676   7.689   8.332   2.388
29145WAT     H187677   7.722   8.426   2.394
29145WAT     H287678   7.635   8.321   2.304
29146WAT      O87679   3.091   4.924   6.936
29146WAT     H187680   3.020   4.854   6.946
29146WAT     H287681   3.088   4.986   7.014
29147WAT      O87682   2.338   9.734   4.405
29147WAT     H187683   2.323   9.656   4.466
29147WAT     H287684   2.299   9.816   4.447
29148WAT      O87685   5.773   9.728   0.311
29148WAT     H187686   5.722   9.733   0.225
29148WAT     H287687   5.768   9.816   0.358
29149WAT      O87688   6.859   7.435   2.285
29149WAT     H187689   6.847   7.478   2.195
29149WAT     H287690   6.788   7.469   2.347
29150WAT      O87691   2.818   4.402   1.699
29150WAT     H187692   2.785   4.492   1.728
29150WAT     H287693   2.767   4.330   1.746
29151WAT      O87694   6.884   0.460   8.466
29151WAT     H187695   6.829   0.530   8.421
29151WAT     H287696   6.904   0.387   8.401
29152WAT      O87697   8.334   1.381   6.472
29152WAT     H187698   8.352   1.283   6.482
29152WAT     H287699   8.278   1.412   6.548
29153WAT      O87700   1.117   3.815   5.691
29153WAT     H187701   1.082   3.905   5.666
29153WAT     H287702   1.051   3.745   5.667
29154WAT      O87703   2.938   2.841   0.916
29154WAT     H187704   2.876   2.889   0.855
29154WAT     H287705   2.949   2.746   0.884
29155WAT      O87706   5.326   0.329   1.240
29155WAT     H187707   5.375   0.298   1.322
29155WAT     H287708   5.234   0.290   1.239
29156WAT      O87709   1.032   6.324   3.866
29156WAT     H187710   0.987   6.390   3.806
29156WAT     H287711   1.015   6.231   3.832
29157WAT      O87712   0.667   2.327   3.429
29157WAT     H187713   0.652   2.229   3.412
29157WAT     H287714   0.628   2.380   3.353
29158WAT      O87715   1.625   8.306   6.615
29158WAT     H187716   1.630   8.396   6.659
29158WAT     H287717   1.529   8.283   6.599
29159WAT      O87718   4.141   5.602   9.837
29159WAT     H187719   4.046   5.611   9.805
29159WAT     H287720   4.194   5.681   9.806
29160WAT      O87721   1.106   8.338   9.660
29160WAT     H187722   1.088   8.292   9.747
29160WAT     H287723   1.204   8.332   9.639
29161WAT      O87724   2.721   0.702   2.400
29161WAT     H187725   2.690   0.629   2.340
29161WAT     H287726   2.761   0.663   2.483
29162WAT      O87727   4.722   0.993   2.278
29162WAT     H187728   4.639   1.045   2.298
29162WAT     H287729   4.765   1.031   2.196
29163WAT      O87730   1.536   9.756   0.802
29163WAT     H187731   1.506   9.664   0.828
29163WAT     H287732   1.487   9.823   0.858
29164WAT      O87733   3.146   0.702   0.637
29164WAT     H187734   3.243   0.678   0.630
29164WAT     H287735   3.135   0.801   0.622
29165WAT      O87736   1.807   6.980   5.280
29165WAT     H187737   1.781   6.934   5.195
29165WAT     H287738   1.735   7.044   5.307
29166WAT      O87739   7.337   7.158   8.886
29166WAT     H187740   7.302   7.251   8.890
29166WAT     H287741   7.364   7.128   8.978
29167WAT      O87742   2.646   0.321   3.421
29167WAT     H187743   2.564   0.304   3.474
29167WAT     H287744   2.668   0.419   3.425
29168WAT      O87745   4.785   0.133   1.899
29168WAT     H187746   4.715   0.098   1.961
29168WAT     H287747   4.770   0.230   1.882
29169WAT      O87748   1.395   1.624   0.533
29169WAT     H187749   1.413   1.527   0.553
29169WAT     H287750   1.480   1.669   0.507
29170WAT      O87751   6.914   2.732   2.760
29170WAT     H187752   6.963   2.647   2.744
29170WAT     H287753   6.974   2.810   2.742
29171WAT      O87754   0.794   5.558   7.326
29171WAT     H187755   0.787   5.647   7.280
29171WAT     H287756   0.826   5.490   7.261
29172WAT      O87757   1.551   0.146   9.008
29172WAT     H187758   1.524   0.202   9.086
29172WAT     H287759   1.619   0.078   9.037
29173WAT      O87760   7.504   3.379   2.056
29173WAT     H187761   7.545   3.332   1.978
29173WAT     H287762   7.528   3.476   2.052
29174WAT      O87763   4.232   3.163   6.521
29174WAT     H187764   4.197   3.090   6.579
29174WAT     H287765   4.207   3.146   6.426
29175WAT      O87766   6.162   1.743   5.823
29175WAT     H187767   6.173   1.686   5.742
29175WAT     H287768   6.205   1.698   5.901
29176WAT      O87769   5.070   2.572   0.177
29176WAT     H187770   5.115   2.597   0.091
29176WAT     H287771   5.024   2.484   0.165
29177WAT      O87772   5.531   6.734   5.828
29177WAT     H187773   5.526   6.755   5.730
29177WAT     H287774   5.555   6.817   5.878
29178WAT      O87775   7.518   5.615   5.615
29178WAT     H187776   7.568   5.701   5.626
29178WAT     H287777   7.494   5.579   5.705
29179WAT      O87778   2.596   4.745   0.449
29179WAT     H187779   2.520   4.806   0.424
29179WAT     H287780   2.582   4.711   0.542
29180WAT      O87781   2.426   8.710   6.797
29180WAT     H187782   2.421   8.806   6.770
29180WAT     H287783   2.473   8.702   6.885
29181WAT      O87784   9.740   2.711   5.218
29181WAT     H187785   9.730   2.788   5.155
29181WAT     H287786   9.710   2.737   5.309
29182WAT      O87787   6.979   6.299   1.708
29182WAT     H187788   7.025   6.272   1.793
29182WAT     H287789   6.884   6.323   1.728
29183WAT      O87790   5.973   8.443   6.659
29183WAT     H187791   5.984   8.432   6.758
29183WAT     H287792   5.876   8.456   6.637
29184WAT      O87793   8.294   1.338   4.855
29184WAT     H187794   8.323   1.392   4.776
29184WAT     H287795   8.196   1.353   4.871
29185WAT      O87796   0.842   4.043   6.165
29185WAT     H187797   0.851   4.042   6.066
29185WAT     H287798   0.932   4.056   6.207
29186WAT      O87799   3.449   2.080   0.493
29186WAT     H187800   3.456   2.026   0.577
29186WAT     H287801   3.353   2.100   0.474
29187WAT      O87802   4.906   6.328   8.991
29187WAT     H187803   4.946   6.373   8.911
29187WAT     H287804   4.935   6.232   8.994
29188WAT      O87805   2.113   8.699   8.241
29188WAT     H187806   2.177   8.655   8.303
29188WAT     H287807   2.049   8.755   8.294
29189WAT      O87808   3.065   7.354   7.058
29189WAT     H187809   3.011   7.324   6.980
29189WAT     H287810   3.103   7.274   7.105
29190WAT      O87811   1.902   1.609   6.155
29190WAT     H187812   1.812   1.645   6.128
29190WAT     H287813   1.900   1.509   6.153
29191WAT      O87814   7.548   4.159   9.827
29191WAT     H187815   7.581   4.190   9.916
29191WAT     H287816   7.502   4.071   9.836
29192WAT      O87817   1.343   0.433   9.016
29192WAT     H187818   1.408   0.495   8.973
29192WAT     H287819   1.367   0.421   9.112
29193WAT      O87820   3.140   7.027   8.170
29193WAT     H187821   3.156   7.062   8.263
29193WAT     H287822   3.089   6.942   8.175
29194WAT      O87823   3.444   3.064   8.962
29194WAT     H187824   3.503   3.110   8.896
29194WAT     H287825   3.485   2.978   8.991
29195WAT      O87826   1.498   9.374   8.952
29195WAT     H187827   1.528   9.279   8.957
29195WAT     H287828   1.480   9.398   8.856
29196WAT      O87829   6.651   6.445   6.967
29196WAT     H187830   6.595   6.500   6.904
29196WAT     H287831   6.747   6.469   6.956
29197WAT      O87832   7.449   8.492   1.071
29197WAT     H187833   7.465   8.413   1.132
29197WAT     H287834   7.497   8.572   1.107
29198WAT      O87835   1.420   1.927   9.738
29198WAT     H187836   1.380   1.859   9.676
29198WAT     H287837   1.406   1.898   9.833
29199WAT      O87838   8.568   8.651   0.393
29199WAT     H187839   8.574   8.750   0.378
29199WAT     H287840   8.479   8.628   0.432
29200WAT      O87841   6.304   0.457   1.152
29200WAT     H187842   6.393   0.418   1.174
29200WAT     H287843   6.311   0.556   1.147
29201WAT      O87844   9.578   4.560   9.213
29201WAT     H187845   9.643   4.631   9.187
29201WAT     H287846   9.576   4.551   9.313
29202WAT      O87847   8.748   5.138   8.821
29202WAT     H187848   8.696   5.113   8.740
29202WAT     H287849   8.760   5.057   8.880
29203WAT      O87850   7.765   2.230   7.645
29203WAT     H187851   7.788   2.327   7.652
29203WAT     H287852   7.773   2.187   7.736
29204WAT      O87853   4.337   7.672   0.237
29204WAT     H187854   4.401   7.596   0.253
29204WAT     H287855   4.246   7.635   0.220
29205WAT      O87856   8.330   4.394   8.098
29205WAT     H187857   8.274   4.464   8.142
29205WAT     H287858   8.304   4.304   8.134
29206WAT      O87859   1.749   8.715   5.897
29206WAT     H187860   1.665   8.663   5.881
29206WAT     H287861   1.726   8.809   5.921
29207WAT      O87862   7.095   2.294   9.497
29207WAT     H187863   7.129   2.262   9.409
29207WAT     H287864   7.107   2.223   9.566
29208WAT      O87865   8.112   9.117   8.576
29208WAT     H187866   8.173   9.102   8.498
29208WAT     H287867   8.147   9.193   8.631
29209WAT      O87868   7.499   2.951   1.594
29209WAT     H187869   7.544   2.999   1.519
29209WAT     H287870   7.442   2.878   1.558
29210WAT      O87871   5.507   7.883   5.542
29210WAT     H187872   5.461   7.906   5.457
29210WAT     H287873   5.571   7.956   5.567
29211WAT      O87874   8.543   9.808   4.829
29211WAT     H187875   8.457   9.765   4.857
29211WAT     H287876   8.618   9.772   4.884
29212WAT      O87877   1.876   8.385   8.400
29212WAT     H187878   1.805   8.317   8.380
29212WAT     H287879   1.963   8.354   8.361
29213WAT      O87880   1.720   5.713   7.891
29213WAT     H187881   1.661   5.745   7.816
29213WAT     H287882   1.808   5.685   7.854
29214WAT      O87883   4.143   6.245   9.844
29214WAT     H187884   4.145   6.311   9.919
29214WAT     H287885   4.164   6.153   9.879
29215WAT      O87886   7.959   8.569   1.100
29215WAT     H187887   7.954   8.523   1.189
29215WAT     H287888   7.887   8.637   1.094
29216WAT      O87889   8.132   9.063   3.375
29216WAT     H187890   8.138   9.085   3.278
29216WAT     H287891   8.071   9.129   3.420
29217WAT      O87892   8.460   3.300   5.376
29217WAT     H187893   8.533   3.261   5.433
29217WAT     H287894   8.419   3.228   5.321
29218WAT      O87895   5.339   1.223   8.994
29218WAT     H187896   5.267   1.251   9.058
29218WAT     H287897   5.300   1.161   8.926
29219WAT      O87898   7.214   2.632   9.837
29219WAT     H187899   7.157   2.592   9.909
29219WAT     H287900   7.185   2.595   9.748
29220WAT      O87901   8.613   9.660   6.623
29220WAT     H187902   8.686   9.727   6.617
29220WAT     H287903   8.561   9.674   6.707
29221WAT      O87904   4.546   0.782   6.385
29221WAT     H187905   4.621   0.817   6.441
29221WAT     H287906   4.582   0.738   6.303
29222WAT      O87907   3.674   7.536   2.695
29222WAT     H187908   3.662   7.485   2.780
29222WAT     H287909   3.756   7.593   2.702
29223WAT      O87910   6.853   3.255   9.376
29223WAT     H187911   6.780   3.271   9.442
29223WAT     H287912   6.869   3.156   9.366
29224WAT      O87913   0.195   5.207   1.045
29224WAT     H187914   0.271   5.244   0.992
29224WAT     H287915   0.226   5.183   1.137
29225WAT      O87916   7.247   4.140   2.306
29225WAT     H187917   7.302   4.140   2.222
29225WAT     H287918   7.196   4.226   2.311
29226WAT      O87919   5.005   5.517   5.013
29226WAT     H187920   5.095   5.474   5.015
29226WAT     H287921   5.007   5.595   4.951
29227WAT      O87922   0.054   4.134   7.772
29227WAT     H187923   0.117   4.211   7.781
29227WAT     H287924   0.107   4.048   7.773
29228WAT      O87925   8.572   1.048   4.341
29228WAT     H187926   8.519   1.045   4.426
29228WAT     H287927   8.622   1.134   4.336
29229WAT      O87928   3.583   9.324   1.750
29229WAT     H187929   3.664   9.362   1.796
29229WAT     H287930   3.502   9.343   1.805
29230WAT      O87931   9.799   6.973   0.828
29230WAT     H187932   9.780   7.006   0.920
29230WAT     H287933   9.855   7.040   0.779
29231WAT      O87934   6.896   2.454   1.177
29231WAT     H187935   6.837   2.374   1.187
29231WAT     H287936   6.845   2.537   1.199
29232WAT      O87937   8.147   9.692   2.056
29232WAT     H187938   8.230   9.641   2.076
29232WAT     H287939   8.147   9.718   1.959
29233WAT      O87940   8.195   7.249   0.576
29233WAT     H187941   8.276   7.248   0.634
29233WAT     H287942   8.162   7.156   0.563
29234WAT      O87943   7.577   6.688   7.856
29234WAT     H187944   7.635   6.762   7.823
29234WAT     H287945   7.508   6.665   7.787
29235WAT      O87946   9.570   2.879   8.254
29235WAT     H187947   9.639   2.838   8.314
29235WAT     H287948   9.534   2.810   8.192
29236WAT      O87949   0.273   4.185   5.876
29236WAT     H187950   0.362   4.159   5.840
29236WAT     H287951   0.205   4.186   5.803
29237WAT      O87952   8.326   3.755   9.751
29237WAT     H187953   8.410   3.710   9.721
29237WAT     H287954   8.341   3.853   9.760
29238WAT      O87955   6.979   0.955   4.971
29238WAT     H187956   7.031   1.018   5.030
29238WAT     H287957   7.040   0.916   4.903
29239WAT      O87958   1.589   4.289   0.617
29239WAT     H187959   1.543   4.331   0.538
29239WAT     H287960   1.677   4.252   0.588
29240WAT      O87961   3.081   2.300   6.909
29240WAT     H187962   3.154   2.333   6.849
29240WAT     H287963   3.053   2.209   6.880
29241WAT      O87964   2.272   1.369   1.960
29241WAT     H187965   2.328   1.321   2.028
29241WAT     H287966   2.331   1.401   1.886
29242WAT      O87967   4.977   7.908   0.377
29242WAT     H187968   4.891   7.931   0.330
29242WAT     H287969   5.053   7.913   0.311
29243WAT      O87970   1.442   8.374   8.388
29243WAT     H187971   1.460   8.472   8.388
29243WAT     H287972   1.401   8.348   8.475
29244WAT      O87973   1.582   4.237   8.961
29244WAT     H187974   1.628   4.236   8.872
29244WAT     H287975   1.648   4.215   9.033
29245WAT      O87976   7.670   6.568   1.884
29245WAT     H187977   7.686   6.499   1.955
29245WAT     H287978   7.672   6.659   1.925
29246WAT      O87979   2.737   8.087   4.389
29246WAT     H187980   2.828   8.123   4.412
29246WAT     H287981   2.688   8.065   4.473
29247WAT      O87982   6.402   6.688   4.087
29247WAT     H187983   6.371   6.710   4.180
29247WAT     H287984   6.388   6.767   4.028
29248WAT      O87985   1.709   8.865   0.815
29248WAT     H187986   1.681   8.770   0.808
29248WAT     H287987   1.713   8.892   0.912
29249WAT      O87988   8.527   6.257   5.718
29249WAT     H187989   8.548   6.224   5.810
29249WAT     H287990   8.517   6.356   5.719
29250WAT      O87991   5.741   1.746   2.104
29250WAT     H187992   5.718   1.729   2.199
29250WAT     H287993   5.795   1.830   2.097
29251WAT      O87994   5.214   6.452   2.237
29251WAT     H187995   5.293   6.464   2.178
29251WAT     H287996   5.201   6.354   2.256
29252WAT      O87997   1.975   9.229   2.038
29252WAT     H187998   1.893   9.223   2.095
29252WAT     H287999   1.961   9.298   1.967
29253WAT      O88000   8.635   9.467   3.129
29253WAT     H188001   8.608   9.532   3.200
29253WAT     H288002   8.700   9.401   3.167
29254WAT      O88003   5.816   3.515   9.302
29254WAT     H188004   5.831   3.460   9.385
29254WAT     H288005   5.812   3.612   9.327
29255WAT      O88006   7.519   5.816   4.065
29255WAT     H188007   7.549   5.729   4.025
29255WAT     H288008   7.464   5.798   4.147
29256WAT      O88009   6.169   3.979   8.742
29256WAT     H188010   6.244   4.044   8.755
29256WAT     H288011   6.174   3.909   8.813
29257WAT      O88012   3.934   3.062   0.536
29257WAT     H188013   3.882   3.022   0.460
29257WAT     H288014   3.887   3.043   0.622
29258WAT      O88015   2.776   5.899   8.099
29258WAT     H188016   2.718   5.923   8.022
29258WAT     H288017   2.720   5.886   8.181
29259WAT      O88018   0.334   5.192   6.331
29259WAT     H188019   0.368   5.285   6.351
29259WAT     H288020   0.380   5.127   6.391
29260WAT      O88021   3.379   9.412   8.634
29260WAT     H188022   3.363   9.486   8.699
29260WAT     H288023   3.473   9.379   8.642
29261WAT      O88024   5.263   3.551   1.018
29261WAT     H188025   5.287   3.533   0.923
29261WAT     H288026   5.189   3.489   1.046
29262WAT      O88027   4.946   3.747   9.667
29262WAT     H188028   4.936   3.678   9.740
29262WAT     H288029   4.969   3.701   9.581
29263WAT      O88030   2.962   7.762   1.443
29263WAT     H188031   2.927   7.778   1.535
29263WAT     H288032   2.947   7.844   1.387
29264WAT      O88033   4.895   4.811   7.686
29264WAT     H188034   4.825   4.776   7.624
29264WAT     H288035   4.981   4.761   7.671
29265WAT      O88036   1.024   4.100   0.730
29265WAT     H188037   1.049   4.197   0.727
29265WAT     H288038   0.925   4.092   0.716
29266WAT      O88039   3.990   5.734   3.673
29266WAT     H188040   3.963   5.724   3.577
29266WAT     H288041   4.089   5.724   3.682
29267WAT      O88042   2.468   0.064   5.980
29267WAT     H188043   2.497  -0.030   5.998
29267WAT     H288044   2.538   0.127   6.013
29268WAT      O88045   9.721   0.693   1.805
29268WAT     H188046   9.771   0.676   1.890
29268WAT     H288047   9.680   0.784   1.807
29269WAT      O88048   1.782   1.097   5.911
29269WAT     H188049   1.855   1.151   5.952
29269WAT     H288050   1.818   1.042   5.836
29270WAT      O88051   4.919   7.649   1.272
29270WAT     H188052   4.845   7.582   1.264
29270WAT     H288053   4.903   7.723   1.207
29271WAT      O88054   7.041   8.692   0.754
29271WAT     H188055   7.091   8.646   0.827
29271WAT     H288056   7.091   8.679   0.668
29272WAT      O88057   5.755   6.890   1.834
29272WAT     H188058   5.682   6.958   1.834
29272WAT     H288059   5.752   6.838   1.920
29273WAT      O88060   8.287   3.732   3.147
29273WAT     H188061   8.191   3.759   3.153
29273WAT     H288062   8.330   3.738   3.237
29274WAT      O88063   4.999   3.583   4.623
29274WAT     H188064   4.913   3.537   4.598
29274WAT     H288065   5.076   3.522   4.605
29275WAT      O88066   9.287   9.298   3.702
29275WAT     H188067   9.298   9.398   3.706
29275WAT     H288068   9.197   9.276   3.665
29276WAT      O88069   4.850   1.847   9.085
29276WAT     H188070   4.753   1.871   9.082
29276WAT     H288071   4.879   1.818   8.993
29277WAT      O88072   6.574   5.123   1.619
29277WAT     H188073   6.661   5.080   1.594
29277WAT     H288074   6.502   5.092   1.557
29278WAT      O88075   5.116   4.002   7.747
29278WAT     H188076   5.200   4.032   7.701
29278WAT     H288077   5.063   4.082   7.775
29279WAT      O88078   3.406   4.714   6.759
29279WAT     H188079   3.486   4.691   6.703
29279WAT     H288080   3.340   4.764   6.703
29280WAT      O88081   9.736   6.279   3.271
29280WAT     H188082   9.681   6.281   3.355
29280WAT     H288083   9.808   6.348   3.277
29281WAT      O88084   2.378   3.923   6.353
29281WAT     H188085   2.400   3.833   6.315
29281WAT     H288086   2.287   3.951   6.323
29282WAT      O88087   2.997   8.215   8.947
29282WAT     H188088   2.980   8.303   8.902
29282WAT     H288089   2.910   8.172   8.970
29283WAT      O88090   6.761   6.673   7.552
29283WAT     H188091   6.812   6.728   7.617
29283WAT     H288092   6.664   6.697   7.555
29284WAT      O88093   4.225   5.424   8.937
29284WAT     H188094   4.169   5.366   8.878
29284WAT     H288095   4.320   5.421   8.906
29285WAT      O88096   5.578   9.535   5.810
29285WAT     H188097   5.553   9.543   5.714
29285WAT     H288098   5.668   9.576   5.825
29286WAT      O88099   9.428   1.644   4.202
29286WAT     H188100   9.466   1.555   4.177
29286WAT     H288101   9.475   1.716   4.152
29287WAT      O88102   6.546   7.286   5.092
29287WAT     H188103   6.618   7.313   5.156
29287WAT     H288104   6.577   7.209   5.037
29288WAT      O88105   6.851   2.198   7.002
29288WAT     H188106   6.799   2.283   6.997
29288WAT     H288107   6.878   2.180   7.096
29289WAT      O88108   0.660   1.948   2.242
29289WAT     H188109   0.689   1.992   2.327
29289WAT     H288110   0.619   1.859   2.264
29290WAT      O88111   7.776   0.700   3.983
29290WAT     H188112   7.809   0.653   3.902
29290WAT     H288113   7.838   0.776   4.006
29291WAT      O88114   5.823   2.968   6.834
29291WAT     H188115   5.806   2.898   6.904
29291WAT     H288116   5.804   3.059   6.872
29292WAT      O88117   1.748   9.215   0.882
29292WAT     H188118   1.834   9.227   0.832
29292WAT     H288119   1.768   9.202   0.979
29293WAT      O88120   6.708   8.289   3.390
29293WAT     H188121   6.734   8.201   3.431
29293WAT     H288122   6.624   8.322   3.433
29294WAT      O88123   8.565   0.674   4.062
29294WAT     H188124   8.508   0.715   4.132
29294WAT     H288125   8.568   0.733   3.981
29295WAT      O88126   8.216   1.864   6.371
29295WAT     H188127   8.282   1.858   6.296
29295WAT     H288128   8.260   1.839   6.457
29296WAT      O88129   6.911   5.095   9.412
29296WAT     H188130   6.944   5.179   9.369
29296WAT     H288131   6.916   5.020   9.347
29297WAT      O88132   5.650   6.380   0.666
29297WAT     H188133   5.728   6.376   0.729
29297WAT     H288134   5.590   6.301   0.683
29298WAT      O88135   8.350   8.681   8.758
29298WAT     H188136   8.344   8.601   8.700
29298WAT     H288137   8.396   8.657   8.844
29299WAT      O88138   7.998   0.088   3.626
29299WAT     H188139   8.069   0.136   3.575
29299WAT     H288140   8.039   0.040   3.704
29300WAT      O88141   5.784   3.978   2.741
29300WAT     H188142   5.821   3.886   2.756
29300WAT     H288143   5.777   3.996   2.643
29301WAT      O88144   8.601   0.532   8.605
29301WAT     H188145   8.574   0.615   8.655
29301WAT     H288146   8.693   0.505   8.632
29302WAT      O88147   4.675   8.359   6.949
29302WAT     H188148   4.622   8.315   7.022
29302WAT     H288149   4.616   8.422   6.898
29303WAT      O88150   9.691   6.749   6.543
29303WAT     H188151   9.640   6.666   6.565
29303WAT     H288152   9.768   6.727   6.484
29304WAT      O88153   1.325   9.093   3.843
29304WAT     H188154   1.251   9.128   3.786
29304WAT     H288155   1.290   9.068   3.933
29305WAT      O88156   7.122   3.926   6.499
29305WAT     H188157   7.178   4.006   6.476
29305WAT     H288158   7.035   3.931   6.452
29306WAT      O88159   8.755   6.054   2.325
29306WAT     H188160   8.839   6.011   2.358
29306WAT     H288161   8.676   6.009   2.367
29307WAT      O88162   1.276   9.084   8.819
29307WAT     H188163   1.262   9.056   8.914
29307WAT     H288164   1.197   9.137   8.788
29308WAT      O88165   1.270   1.737   0.074
29308WAT     H188166   1.244   1.807   0.140
29308WAT     H288167   1.330   1.671   0.118
29309WAT      O88168   0.533   5.910   7.770
29309WAT     H188169   0.618   5.932   7.819
29309WAT     H288170   0.460   5.969   7.803
29310WAT      O88171   7.082   4.255   5.634
29310WAT     H188172   7.107   4.201   5.554
29310WAT     H288173   7.025   4.199   5.695
29311WAT      O88174   5.137   8.067   9.444
29311WAT     H188175   5.140   7.969   9.429
29311WAT     H288176   5.044   8.101   9.427
29312WAT      O88177   5.863   8.733   1.668
29312WAT     H188178   5.921   8.734   1.586
29312WAT     H288179   5.824   8.642   1.680
29313WAT      O88180   6.872   3.268   1.629
29313WAT     H188181   6.814   3.337   1.673
29313WAT     H288182   6.921   3.216   1.698
29314WAT      O88183   1.277   4.593   4.377
29314WAT     H188184   1.225   4.542   4.309
29314WAT     H288185   1.215   4.648   4.433
29315WAT      O88186   5.093   3.076   0.885
29315WAT     H188187   5.107   3.017   0.806
29315WAT     H288188   5.148   3.160   0.874
29316WAT      O88189   5.249   2.036   5.225
29316WAT     H188190   5.258   2.117   5.166
29316WAT     H288191   5.312   1.965   5.194
29317WAT      O88192   5.237   6.841   7.038
29317WAT     H188193   5.229   6.888   6.950
29317WAT     H288194   5.149   6.845   7.086
29318WAT      O88195   6.966   3.156   1.859
29318WAT     H188196   6.954   3.056   1.858
29318WAT     H288197   7.051   3.179   1.905
29319WAT      O88198   7.549   6.322   1.273
29319WAT     H188199   7.454   6.294   1.259
29319WAT     H288200   7.604   6.243   1.299
29320WAT      O88201   6.591   4.443   7.815
29320WAT     H188202   6.653   4.426   7.739
29320WAT     H288203   6.556   4.536   7.809
29321WAT      O88204   4.652   7.465   2.011
29321WAT     H188205   4.621   7.551   1.972
29321WAT     H288206   4.622   7.458   2.106
29322WAT      O88207   6.872   5.321   4.809
29322WAT     H188208   6.866   5.273   4.896
29322WAT     H288209   6.831   5.264   4.737
29323WAT      O88210   7.490   0.159   8.560
29323WAT     H188211   7.394   0.134   8.553
29323WAT     H288212   7.498   0.257   8.580
29324WAT      O88213   1.508   0.062   6.477
29324WAT     H188214   1.535  -0.008   6.543
29324WAT     H288215   1.507   0.151   6.521
29325WAT      O88216   3.428   2.255   6.202
29325WAT     H188217   3.497   2.183   6.208
29325WAT     H288218   3.447   2.325   6.271
29326WAT      O88219   1.697   0.083   8.600
29326WAT     H188220   1.629   0.039   8.541
29326WAT     H288221   1.726   0.019   8.671
29327WAT      O88222   3.697   9.596   3.434
29327WAT     H188223   3.761   9.583   3.510
29327WAT     H288224   3.721   9.679   3.383
29328WAT      O88225   0.996   6.674   5.767
29328WAT     H188226   0.929   6.615   5.721
29328WAT     H288227   1.029   6.629   5.849
29329WAT      O88228   8.134   4.141   4.002
29329WAT     H188229   8.084   4.056   3.984
29329WAT     H288230   8.205   4.153   3.932
29330WAT      O88231   9.802   2.688   1.308
29330WAT     H188232   9.760   2.724   1.391
29330WAT     H288233   9.798   2.588   1.309
29331WAT      O88234   7.614   7.171   9.069
29331WAT     H188235   7.520   7.205   9.069
29331WAT     H288236   7.664   7.209   9.147
29332WAT      O88237   4.899   6.541   5.297
29332WAT     H188238   4.994   6.517   5.316
29332WAT     H288239   4.843   6.458   5.296
29333WAT      O88240   8.525   4.186   7.232
29333WAT     H188241   8.452   4.204   7.298
29333WAT     H288242   8.610   4.226   7.266
29334WAT      O88243   6.622   6.907   6.628
29334WAT     H188244   6.573   6.922   6.542
29334WAT     H288245   6.708   6.957   6.627
29335WAT      O88246   3.509   2.683   1.766
29335WAT     H188247   3.575   2.722   1.829
29335WAT     H288248   3.483   2.591   1.797
29336WAT      O88249   3.823   0.593   8.902
29336WAT     H188250   3.838   0.527   8.828
29336WAT     H288251   3.860   0.682   8.875
29337WAT      O88252   7.398   1.753   2.430
29337WAT     H188253   7.392   1.810   2.512
29337WAT     H288254   7.493   1.725   2.416
29338WAT      O88255   8.709   3.036   4.869
29338WAT     H188256   8.663   3.109   4.920
29338WAT     H288257   8.801   3.023   4.906
29339WAT      O88258   1.418   8.669   7.072
29339WAT     H188259   1.337   8.616   7.097
29339WAT     H288260   1.390   8.747   7.016
29340WAT      O88261   3.477   3.253   5.618
29340WAT     H188262   3.439   3.337   5.657
29340WAT     H288263   3.522   3.201   5.690
29341WAT      O88264   8.208   8.891   7.413
29341WAT     H188265   8.186   8.861   7.506
29341WAT     H288266   8.124   8.899   7.359
29342WAT      O88267   0.050   5.609   1.099
29342WAT     H188268  -0.030   5.577   1.047
29342WAT     H288269   0.073   5.702   1.072
29343WAT      O88270   5.506   6.328   8.494
29343WAT     H188271   5.496   6.232   8.519
29343WAT     H288272   5.593   6.363   8.529
29344WAT      O88273   5.370   1.723   3.904
29344WAT     H188274   5.315   1.653   3.857
29344WAT     H288275   5.420   1.681   3.979
29345WAT      O88276   8.643   5.681   7.098
29345WAT     H188277   8.585   5.717   7.025
29345WAT     H288278   8.607   5.709   7.187
29346WAT      O88279   3.833   1.105   2.191
29346WAT     H188280   3.931   1.086   2.195
29346WAT     H288281   3.786   1.054   2.264
29347WAT      O88282   7.315   4.281   3.158
29347WAT     H188283   7.376   4.321   3.089
29347WAT     H288284   7.353   4.194   3.190
29348WAT      O88285   4.817   7.523   1.618
29348WAT     H188286   4.854   7.506   1.709
29348WAT     H288287   4.885   7.499   1.549
29349WAT      O88288   8.308   4.624   9.431
29349WAT     H188289   8.396   4.615   9.476
29349WAT     H288290   8.259   4.537   9.435
29350WAT      O88291   2.334   6.431   4.290
29350WAT     H188292   2.277   6.505   4.324
29350WAT     H288293   2.335   6.433   4.190
29351WAT      O88294   4.589   4.215   6.838
29351WAT     H188295   4.501   4.199   6.792
29351WAT     H288296   4.662   4.221   6.770
29352WAT      O88297   3.397   8.825   9.818
29352WAT     H188298   3.353   8.880   9.889
29352WAT     H288299   3.400   8.729   9.848
29353WAT      O88300   0.723   8.872   0.980
29353WAT     H188301   0.658   8.900   0.910
29353WAT     H288302   0.706   8.923   1.064
29354WAT      O88303   6.334   1.136   2.826
29354WAT     H188304   6.328   1.125   2.926
29354WAT     H288305   6.403   1.205   2.804
29355WAT      O88306   1.059   1.367   2.904
29355WAT     H188307   0.976   1.343   2.854
29355WAT     H288308   1.046   1.349   3.001
29356WAT      O88309   4.303   4.238   4.678
29356WAT     H188310   4.229   4.273   4.621
29356WAT     H288311   4.278   4.147   4.712
29357WAT      O88312   1.674   4.906   8.705
29357WAT     H188313   1.743   4.943   8.642
29357WAT     H288314   1.583   4.930   8.674
29358WAT      O88315   6.674   5.794   0.904
29358WAT     H188316   6.686   5.721   0.838
29358WAT     H288317   6.614   5.762   0.978
29359WAT      O88318   3.948   5.590   7.310
29359WAT     H188319   3.912   5.634   7.392
29359WAT     H288320   3.995   5.505   7.336
29360WAT      O88321   3.863   6.192   2.932
29360WAT     H188322   3.840   6.097   2.911
29360WAT     H288323   3.868   6.204   3.031
29361WAT      O88324   4.476   7.213   7.416
29361WAT     H188325   4.472   7.128   7.365
29361WAT     H288326   4.388   7.261   7.407
29362WAT      O88327   5.167   7.945   6.596
29362WAT     H188328   5.260   7.907   6.600
29362WAT     H288329   5.170   8.042   6.620
29363WAT      O88330   6.768   0.985   4.812
29363WAT     H188331   6.845   0.960   4.871
29363WAT     H288332   6.784   1.075   4.773
29364WAT      O88333   1.022   1.847   5.584
29364WAT     H188334   1.001   1.896   5.500
29364WAT     H288335   1.017   1.911   5.661
29365WAT      O88336   1.427   6.746   2.868
29365WAT     H188337   1.506   6.756   2.806
29365WAT     H288338   1.432   6.658   2.914
29366WAT      O88339   7.178   1.650   7.981
29366WAT     H188340   7.112   1.631   8.053
29366WAT     H288341   7.247   1.577   7.979
29367WAT      O88342   9.319   2.259   9.042
29367WAT     H188343   9.322   2.270   8.943
29367WAT     H288344   9.225   2.241   9.071
29368WAT      O88345   7.073   1.832   0.659
29368WAT     H188346   6.984   1.823   0.615
29368WAT     H288347   7.127   1.749   0.644
29369WAT      O88348   8.772   4.907   8.955
29369WAT     H188349   8.739   4.886   9.048
29369WAT     H288350   8.843   4.841   8.930
29370WAT      O88351   7.540   1.987   8.386
29370WAT     H188352   7.515   2.030   8.300
29370WAT     H288353   7.458   1.953   8.432
29371WAT      O88354   8.765   8.942   8.766
29371WAT     H188355   8.670   8.916   8.751
29371WAT     H288356   8.823   8.861   8.760
29372WAT      O88357   9.040   7.114   8.863
29372WAT     H188358   9.101   7.074   8.793
29372WAT     H288359   8.984   7.185   8.821
29373WAT      O88360   7.803   2.622   4.575
29373WAT     H188361   7.826   2.710   4.532
29373WAT     H288362   7.774   2.638   4.669
29374WAT      O88363   3.655   1.433   0.954
29374WAT     H188364   3.687   1.443   0.860
29374WAT     H288365   3.595   1.510   0.977
29375WAT      O88366   6.818   7.252   0.715
29375WAT     H188367   6.798   7.318   0.787
29375WAT     H288368   6.733   7.208   0.686
29376WAT      O88369   3.970   7.307   1.611
29376WAT     H188370   3.956   7.229   1.671
29376WAT     H288371   4.043   7.286   1.546
29377WAT      O88372   3.025   6.484   5.230
29377WAT     H188373   2.999   6.387   5.236
29377WAT     H288374   3.115   6.491   5.185
29378WAT      O88375   1.619   3.116   8.276
29378WAT     H188376   1.520   3.109   8.288
29378WAT     H288377   1.644   3.211   8.259
29379WAT      O88378   7.647   1.693   6.206
29379WAT     H188379   7.651   1.643   6.292
29379WAT     H288380   7.724   1.665   6.148
29380WAT      O88381   5.357   8.837   0.641
29380WAT     H188382   5.341   8.817   0.738
29380WAT     H288383   5.456   8.840   0.623
29381WAT      O88384   3.927   4.315   9.340
29381WAT     H188385   3.910   4.326   9.438
29381WAT     H288386   3.845   4.276   9.297
29382WAT      O88387   6.800   4.668   5.340
29382WAT     H188388   6.752   4.692   5.424
29382WAT     H288389   6.861   4.590   5.357
29383WAT      O88390   9.499   6.461   9.165
29383WAT     H188391   9.568   6.534   9.167
29383WAT     H288392   9.424   6.485   9.226
29384WAT      O88393   7.844   5.321   5.459
29384WAT     H188394   7.935   5.350   5.430
29384WAT     H288395   7.852   5.241   5.519
29385WAT      O88396   4.432   8.862   7.697
29385WAT     H188397   4.436   8.865   7.598
29385WAT     H288398   4.428   8.955   7.734
29386WAT      O88399   7.430   9.533   4.390
29386WAT     H188400   7.471   9.470   4.456
29386WAT     H288401   7.441   9.627   4.423
29387WAT      O88402   9.314   6.469   0.694
29387WAT     H188403   9.411   6.484   0.716
29387WAT     H288404   9.270   6.423   0.771
29388WAT      O88405   7.963   7.620   2.669
29388WAT     H188406   7.911   7.551   2.718
29388WAT     H288407   7.900   7.684   2.624
29389WAT      O88408   8.438   2.847   3.768
29389WAT     H188409   8.415   2.934   3.724
29389WAT     H288410   8.363   2.820   3.829
29390WAT      O88411   7.983   5.012   1.200
29390WAT     H188412   8.063   4.960   1.228
29390WAT     H288413   7.987   5.104   1.240
29391WAT      O88414   1.007   6.812   1.615
29391WAT     H188415   1.037   6.863   1.535
29391WAT     H288416   0.959   6.729   1.585
29392WAT      O88417   0.252   6.503   9.202
29392WAT     H188418   0.329   6.446   9.172
29392WAT     H288419   0.283   6.563   9.276
29393WAT      O88420   2.041   5.933   6.194
29393WAT     H188421   1.962   5.895   6.242
29393WAT     H288422   2.101   5.858   6.164
29394WAT      O88423   8.559   7.943   8.112
29394WAT     H188424   8.621   7.929   8.190
29394WAT     H288425   8.525   8.037   8.113
29395WAT      O88426   3.456   7.535   5.172
29395WAT     H188427   3.549   7.498   5.174
29395WAT     H288428   3.452   7.614   5.111
29396WAT      O88429   4.967   4.723   0.586
29396WAT     H188430   5.031   4.796   0.609
29396WAT     H288431   4.965   4.711   0.487
29397WAT      O88432   0.148   8.181   6.022
29397WAT     H188433   0.147   8.277   5.994
29397WAT     H288434   0.056   8.144   6.018
29398WAT      O88435   1.545   2.662   8.280
29398WAT     H188436   1.617   2.706   8.225
29398WAT     H288437   1.493   2.599   8.223
29399WAT      O88438   7.320   5.474   7.738
29399WAT     H188439   7.221   5.482   7.722
29399WAT     H288440   7.339   5.485   7.835
29400WAT      O88441   6.909   5.389   0.046
29400WAT     H188442   6.910   5.457   0.120
29400WAT     H288443   6.824   5.397  -0.005
29401WAT      O88444   2.412   7.102   0.457
29401WAT     H188445   2.335   7.164   0.443
29401WAT     H288446   2.494   7.154   0.480
29402WAT      O88447   8.031   0.512   2.238
29402WAT     H188448   8.014   0.485   2.333
29402WAT     H288449   7.994   0.442   2.177
29403WAT      O88450   5.122   3.869   8.463
29403WAT     H188451   5.054   3.914   8.404
29403WAT     H288452   5.176   3.805   8.409
29404WAT      O88453   0.962   5.807   7.003
29404WAT     H188454   0.989   5.807   6.906
29404WAT     H288455   1.040   5.834   7.059
29405WAT      O88456   6.172   1.229   6.599
29405WAT     H188457   6.078   1.198   6.585
29405WAT     H288458   6.228   1.202   6.520
29406WAT      O88459   5.278   8.331   3.405
29406WAT     H188460   5.292   8.337   3.306
29406WAT     H288461   5.240   8.418   3.438
29407WAT      O88462   0.990   3.777   6.034
29407WAT     H188463   0.959   3.775   6.129
29407WAT     H288464   0.942   3.849   5.985
29408WAT      O88465   0.518   8.630   3.489
29408WAT     H188466   0.551   8.643   3.395
29408WAT     H288467   0.574   8.560   3.535
29409WAT      O88468   0.290   0.842   8.617
29409WAT     H188469   0.263   0.868   8.524
29409WAT     H288470   0.389   0.842   8.624
29410WAT      O88471   7.536   2.599   2.395
29410WAT     H188472   7.476   2.599   2.476
29410WAT     H288473   7.525   2.513   2.346
29411WAT      O88474   3.159   3.040   4.976
29411WAT     H188475   3.093   3.072   4.908
29411WAT     H288476   3.149   3.094   5.060
29412WAT      O88477   2.514   8.425   2.089
29412WAT     H188478   2.460   8.494   2.041
29412WAT     H288479   2.605   8.420   2.048
29413WAT      O88480   3.923   4.570   9.235
29413WAT     H188481   4.004   4.629   9.242
29413WAT     H288482   3.935   4.491   9.295
29414WAT      O88483   7.297   1.363   4.899
29414WAT     H188484   7.379   1.399   4.856
29414WAT     H288485   7.258   1.432   4.960
29415WAT      O88486   8.825   9.643   5.392
29415WAT     H188487   8.776   9.582   5.454
29415WAT     H288488   8.760   9.697   5.339
29416WAT      O88489   8.453   9.193   1.590
29416WAT     H188490   8.523   9.233   1.531
29416WAT     H288491   8.487   9.108   1.629
29417WAT      O88492   3.197   7.119   8.432
29417WAT     H188493   3.294   7.093   8.436
29417WAT     H288494   3.152   7.093   8.517
29418WAT      O88495   1.533   8.142   4.770
29418WAT     H188496   1.460   8.201   4.736
29418WAT     H288497   1.498   8.050   4.787
29419WAT      O88498   4.876   4.913   3.827
29419WAT     H188499   4.912   4.922   3.734
29419WAT     H288500   4.810   4.838   3.831
29420WAT      O88501   6.609   5.158   9.762
29420WAT     H188502   6.539   5.088   9.745
29420WAT     H288503   6.679   5.120   9.824
29421WAT      O88504   2.360   4.011   8.512
29421WAT     H188505   2.424   4.086   8.529
29421WAT     H288506   2.396   3.926   8.552
29422WAT      O88507   1.032   1.318   1.960
29422WAT     H188508   1.074   1.275   1.880
29422WAT     H288509   1.088   1.395   1.990
29423WAT      O88510   1.530   4.742   0.563
29423WAT     H188511   1.512   4.659   0.510
29423WAT     H288512   1.627   4.747   0.585
29424WAT      O88513   2.740   1.550   7.953
29424WAT     H188514   2.683   1.472   7.979
29424WAT     H288515   2.684   1.617   7.904
29425WAT      O88516   2.622   7.576   7.917
29425WAT     H188517   2.695   7.644   7.911
29425WAT     H288518   2.660   7.485   7.904
29426WAT      O88519   4.985   9.830   7.779
29426WAT     H188520   4.908   9.842   7.716
29426WAT     H288521   5.059   9.892   7.754
29427WAT      O88522   0.170   4.354   3.958
29427WAT     H188523   0.132   4.290   3.891
29427WAT     H288524   0.123   4.342   4.045
29428WAT      O88525   0.226   6.256   1.087
29428WAT     H188526   0.225   6.338   1.146
29428WAT     H288527   0.229   6.284   0.991
29429WAT      O88528   9.125   9.222   5.316
29429WAT     H188529   9.173   9.170   5.387
29429WAT     H288530   9.138   9.178   5.228
29430WAT      O88531   2.491   2.199   6.216
29430WAT     H188532   2.413   2.238   6.264
29430WAT     H288533   2.575   2.247   6.243
29431WAT      O88534   8.819   6.259   8.410
29431WAT     H188535   8.833   6.171   8.363
29431WAT     H288536   8.794   6.329   8.344
29432WAT      O88537   5.117   7.944   8.799
29432WAT     H188538   5.026   7.978   8.821
29432WAT     H288539   5.116   7.844   8.797
29433WAT      O88540   1.559   9.066   2.033
29433WAT     H188541   1.545   9.161   2.004
29433WAT     H288542   1.611   9.064   2.118
29434WAT      O88543   3.290   4.480   8.146
29434WAT     H188544   3.322   4.491   8.052
29434WAT     H288545   3.358   4.516   8.209
29435WAT      O88546   6.443   9.063   4.666
29435WAT     H188547   6.527   9.079   4.614
29435WAT     H288548   6.369   9.039   4.603
29436WAT      O88549   6.049   3.113   3.802
29436WAT     H188550   5.975   3.116   3.869
29436WAT     H288551   6.010   3.106   3.710
29437WAT      O88552   5.354   8.922   4.500
29437WAT     H188553   5.367   9.013   4.461
29437WAT     H288554   5.412   8.857   4.452
29438WAT      O88555   2.172   9.074   5.793
29438WAT     H188556   2.096   9.060   5.857
29438WAT     H288557   2.259   9.068   5.842
29439WAT      O88558   8.516   1.409   1.569
29439WAT     H188559   8.498   1.500   1.608
29439WAT     H288560   8.614   1.392   1.568
29440WAT      O88561   7.213   3.784   2.132
29440WAT     H188562   7.261   3.852   2.076
29440WAT     H288563   7.120   3.815   2.151
29441WAT      O88564   5.087   8.530   4.711
29441WAT     H188565   5.017   8.601   4.696
29441WAT     H288566   5.143   8.553   4.790
29442WAT      O88567   3.002   4.346   9.684
29442WAT     H188568   2.906   4.356   9.656
29442WAT     H288569   3.056   4.315   9.606
29443WAT      O88570   7.526   5.695   4.916
29443WAT     H188571   7.427   5.687   4.904
29443WAT     H288572   7.562   5.607   4.947
29444WAT      O88573   8.940   0.657   0.140
29444WAT     H188574   8.959   0.563   0.114
29444WAT     H288575   8.968   0.672   0.235
29445WAT      O88576   9.535   0.147   2.973
29445WAT     H188577   9.578   0.058   2.958
29445WAT     H288578   9.444   0.147   2.932
29446WAT      O88579   4.741   0.259   5.138
29446WAT     H188580   4.641   0.272   5.137
29446WAT     H288581   4.775   0.272   5.231
29447WAT      O88582   2.099   6.559   6.020
29447WAT     H188583   2.193   6.543   6.051
29447WAT     H288584   2.093   6.538   5.922
29448WAT      O88585   2.841   1.877   4.002
29448WAT     H188586   2.878   1.791   4.039
29448WAT     H288587   2.818   1.938   4.078
29449WAT      O88588   0.186   3.745   3.103
29449WAT     H188589   0.245   3.826   3.105
29449WAT     H288590   0.216   3.685   3.028
29450WAT      O88591   6.234   5.132   8.400
29450WAT     H188592   6.180   5.145   8.483
29450WAT     H288593   6.291   5.051   8.410
29451WAT      O88594   7.528   8.554   5.108
29451WAT     H188595   7.550   8.648   5.085
29451WAT     H288596   7.596   8.493   5.069
29452WAT      O88597   6.859   7.142   4.281
29452WAT     H188598   6.926   7.175   4.214
29452WAT     H288599   6.795   7.080   4.236
29453WAT      O88600   2.739   4.071   3.672
29453WAT     H188601   2.709   3.976   3.668
29453WAT     H288602   2.767   4.093   3.766
29454WAT      O88603   4.181   7.138   8.360
29454WAT     H188604   4.258   7.081   8.390
29454WAT     H288605   4.111   7.138   8.431
29455WAT      O88606   2.465   0.530   9.662
29455WAT     H188607   2.427   0.449   9.706
29455WAT     H288608   2.422   0.612   9.700
29456WAT      O88609   3.324   6.605   1.962
29456WAT     H188610   3.333   6.696   1.920
29456WAT     H288611   3.415   6.565   1.973
29457WAT      O88612   2.080   2.650   5.141
29457WAT     H188613   2.093   2.686   5.049
29457WAT     H288614   2.149   2.579   5.159
29458WAT      O88615   7.986   1.736   6.435
29458WAT     H188616   8.065   1.772   6.386
29458WAT     H288617   7.937   1.811   6.479
29459WAT      O88618   9.356   2.123   1.556
29459WAT     H188619   9.421   2.184   1.511
29459WAT     H288620   9.324   2.165   1.641
29460WAT      O88621   0.034   5.442   3.757
29460WAT     H188622   0.092   5.461   3.678
29460WAT     H288623  -0.062   5.457   3.734
29461WAT      O88624   2.529   8.475   3.759
29461WAT     H188625   2.572   8.393   3.797
29461WAT     H288626   2.493   8.531   3.833
29462WAT      O88627   1.449   8.101   5.629
29462WAT     H188628   1.351   8.100   5.609
29462WAT     H288629   1.470   8.173   5.694
29463WAT      O88630   2.612   1.348   1.382
29463WAT     H188631   2.559   1.278   1.334
29463WAT     H288632   2.605   1.435   1.334
29464WAT      O88633   7.632   0.532   2.733
29464WAT     H188634   7.608   0.550   2.637
29464WAT     H288635   7.625   0.616   2.786
29465WAT      O88636   2.117   0.129   9.670
29465WAT     H188637   2.041   0.078   9.628
29465WAT     H288638   2.204   0.096   9.633
29466WAT      O88639   0.542   5.936   9.035
29466WAT     H188640   0.538   6.005   9.107
29466WAT     H288641   0.462   5.945   8.976
29467WAT      O88642   7.973   2.416   4.469
29467WAT     H188643   8.002   2.442   4.377
29467WAT     H288644   7.907   2.482   4.503
29468WAT      O88645   5.751   6.972   3.097
29468WAT     H188646   5.815   6.895   3.094
29468WAT     H288647   5.769   7.027   3.179
29469WAT      O88648   4.456   7.616   7.096
29469WAT     H188649   4.489   7.556   7.170
29469WAT     H288650   4.532   7.670   7.061
29470WAT      O88651   1.265   2.148   6.052
29470WAT     H188652   1.240   2.179   5.960
29470WAT     H288653   1.183   2.147   6.110
29471WAT      O88654   5.776   9.391   8.953
29471WAT     H188655   5.828   9.337   9.019
29471WAT     H288656   5.816   9.379   8.862
29472WAT      O88657   9.322   9.480   1.870
29472WAT     H188658   9.359   9.525   1.952
29472WAT     H288659   9.293   9.548   1.804
29473WAT      O88660   8.102   8.173   8.290
29473WAT     H188661   8.160   8.092   8.299
29473WAT     H288662   8.064   8.196   8.380
29474WAT      O88663   8.740   4.600   2.626
29474WAT     H188664   8.715   4.508   2.598
29474WAT     H288665   8.691   4.624   2.710
29475WAT      O88666   1.905   7.717   5.995
29475WAT     H188667   1.953   7.752   6.076
29475WAT     H288668   1.807   7.727   6.007
29476WAT      O88669   4.641   3.166   9.672
29476WAT     H188670   4.734   3.195   9.694
29476WAT     H288671   4.604   3.224   9.599
29477WAT      O88672   4.127   0.278   5.460
29477WAT     H188673   4.159   0.188   5.489
29477WAT     H288674   4.066   0.268   5.382
29478WAT      O88675   7.245   5.044   1.235
29478WAT     H188676   7.181   5.002   1.171
29478WAT     H288677   7.313   4.976   1.262
29479WAT      O88678   3.995   8.959   3.389
29479WAT     H188679   3.959   9.030   3.329
29479WAT     H288680   4.057   8.900   3.337
29480WAT      O88681   3.493   7.721   1.770
29480WAT     H188682   3.550   7.731   1.852
29480WAT     H288683   3.480   7.623   1.751
29481WAT      O88684   2.566   4.873   9.669
29481WAT     H188685   2.645   4.903   9.723
29481WAT     H288686   2.483   4.911   9.710
29482WAT      O88687   4.941   7.703   2.101
29482WAT     H188688   4.963   7.737   2.010
29482WAT     H288689   4.955   7.604   2.105
29483WAT      O88690   4.900   7.497   0.776
29483WAT     H188691   4.896   7.408   0.729
29483WAT     H288692   4.994   7.515   0.804
29484WAT      O88693   9.209   0.150   8.982
29484WAT     H188694   9.290   0.197   8.946
29484WAT     H288695   9.133   0.214   8.987
29485WAT      O88696   3.481   5.215   2.754
29485WAT     H188697   3.408   5.177   2.698
29485WAT     H288698   3.452   5.302   2.793
29486WAT      O88699   1.173   3.568   7.792
29486WAT     H188700   1.243   3.520   7.740
29486WAT     H288701   1.138   3.508   7.864
29487WAT      O88702   5.226   6.181   6.472
29487WAT     H188703   5.213   6.204   6.376
29487WAT     H288704   5.275   6.094   6.479
29488WAT      O88705   4.448   8.720   1.984
29488WAT     H188706   4.509   8.731   1.905
29488WAT     H288707   4.409   8.628   1.984
29489WAT      O88708   6.367   6.363   6.540
29489WAT     H188709   6.295   6.296   6.559
29489WAT     H288710   6.406   6.346   6.450
29490WAT      O88711   8.277   6.186   4.808
29490WAT     H188712   8.351   6.130   4.769
29490WAT     H288713   8.273   6.171   4.907
29491WAT      O88714   8.679   4.808   9.521
29491WAT     H188715   8.749   4.776   9.585
29491WAT     H288716   8.594   4.759   9.537
29492WAT      O88717   8.656   6.629   4.658
29492WAT     H188718   8.595   6.569   4.607
29492WAT     H288719   8.604   6.705   4.697
29493WAT      O88720   4.766   4.384   1.919
29493WAT     H188721   4.843   4.436   1.956
29493WAT     H288722   4.683   4.408   1.970
29494WAT      O88723   3.990   6.764   8.236
29494WAT     H188724   3.963   6.708   8.157
29494WAT     H288725   4.070   6.722   8.280
29495WAT      O88726   6.573   4.832   5.930
29495WAT     H188727   6.515   4.774   5.874
29495WAT     H288728   6.649   4.868   5.875
29496WAT      O88729   9.791   0.098   7.055
29496WAT     H188730   9.862   0.167   7.062
29496WAT     H288731   9.705   0.141   7.025
29497WAT      O88732   6.466   0.028   2.163
29497WAT     H188733   6.438   0.112   2.208
29497WAT     H288734   6.393  -0.002   2.100
29498WAT      O88735   4.063   1.331   4.177
29498WAT     H188736   4.068   1.313   4.079
29498WAT     H288737   4.154   1.355   4.211
29499WAT      O88738   9.716   5.728   8.429
29499WAT     H188739   9.814   5.730   8.445
29499WAT     H288740   9.697   5.703   8.334
29500WAT      O88741   6.337   7.505   9.582
29500WAT     H188742   6.323   7.422   9.636
29500WAT     H288743   6.274   7.504   9.504
29501WAT      O88744   6.205   0.321   5.162
29501WAT     H188745   6.126   0.276   5.121
29501WAT     H288746   6.261   0.362   5.089
29502WAT      O88747   8.168   2.872   8.154
29502WAT     H188748   8.199   2.850   8.246
29502WAT     H288749   8.247   2.898   8.098
29503WAT      O88750   6.917   0.509   7.796
29503WAT     H188751   6.935   0.517   7.698
29503WAT     H288752   6.825   0.475   7.811
29504WAT      O88753   5.413   9.501   3.930
29504WAT     H188754   5.428   9.459   4.019
29504WAT     H288755   5.496   9.494   3.875
29505WAT      O88756   9.613   5.936   2.353
29505WAT     H188757   9.699   5.985   2.342
29505WAT     H288758   9.541   5.984   2.304
29506WAT      O88759   0.943   2.635   8.815
29506WAT     H188760   1.028   2.607   8.771
29506WAT     H288761   0.865   2.597   8.766
29507WAT      O88762   4.109   3.917   7.322
29507WAT     H188763   4.103   3.912   7.422
29507WAT     H288764   4.160   3.839   7.287
29508WAT      O88765   5.153   3.042   3.266
29508WAT     H188766   5.172   3.084   3.354
29508WAT     H288767   5.099   2.959   3.279
29509WAT      O88768   6.256   5.621   0.056
29509WAT     H188769   6.162   5.587   0.047
29509WAT     H288770   6.255   5.721   0.060
29510WAT      O88771   0.168   5.075   5.534
29510WAT     H188772   0.112   5.145   5.579
29510WAT     H288773   0.221   5.118   5.461
29511WAT      O88774   7.412   1.349   6.715
29511WAT     H188775   7.385   1.301   6.798
29511WAT     H288776   7.468   1.428   6.739
29512WAT      O88777   2.892   2.802   6.720
29512WAT     H188778   2.888   2.806   6.820
29512WAT     H288779   2.988   2.799   6.691
29513WAT      O88780   3.318   8.067   7.583
29513WAT     H188781   3.415   8.089   7.582
29513WAT     H288782   3.286   8.052   7.489
29514WAT      O88783   1.663   1.634   4.715
29514WAT     H188784   1.702   1.545   4.693
29514WAT     H288785   1.595   1.659   4.645
29515WAT      O88786   3.302   8.863   0.850
29515WAT     H188787   3.253   8.935   0.899
29515WAT     H288788   3.360   8.813   0.914
29516WAT      O88789   7.046   5.818   0.733
29516WAT     H188790   6.984   5.887   0.770
29516WAT     H288791   7.063   5.837   0.636
29517WAT      O88792   2.267   6.270   8.232
29517WAT     H188793   2.358   6.301   8.203
29517WAT     H288794   2.209   6.349   8.250
29518WAT      O88795   8.992   3.751   0.675
29518WAT     H188796   8.899   3.716   0.666
29518WAT     H288797   9.015   3.803   0.592
29519WAT      O88798   9.008   7.026   6.898
29519WAT     H188799   8.944   7.088   6.943
29519WAT     H288800   9.006   6.937   6.944
29520WAT      O88801   2.380   6.535   4.939
29520WAT     H188802   2.355   6.621   4.983
29520WAT     H288803   2.314   6.464   4.965
29521WAT      O88804   4.014   1.365   5.826
29521WAT     H188805   4.067   1.294   5.779
29521WAT     H288806   3.917   1.353   5.804
29522WAT      O88807   0.903   5.747   9.308
29522WAT     H188808   0.901   5.704   9.218
29522WAT     H288809   0.941   5.839   9.300
29523WAT      O88810   4.031   1.786   3.787
29523WAT     H188811   3.941   1.745   3.804
29523WAT     H288812   4.101   1.715   3.788
29524WAT      O88813   8.693   5.643   9.587
29524WAT     H188814   8.635   5.590   9.525
29524WAT     H288815   8.780   5.596   9.601
29525WAT      O88816   8.294   7.380   2.152
29525WAT     H188817   8.205   7.416   2.124
29525WAT     H288818   8.282   7.293   2.200
29526WAT      O88819   2.654   2.805   3.035
29526WAT     H188820   2.727   2.772   3.095
29526WAT     H288821   2.680   2.894   2.996
29527WAT      O88822   9.071   1.749   6.124
29527WAT     H188823   9.163   1.785   6.110
29527WAT     H288824   9.069   1.696   6.209
29528WAT      O88825   1.972   7.880   8.123
29528WAT     H188826   1.915   7.815   8.073
29528WAT     H288827   2.068   7.867   8.099
29529WAT      O88828   9.566   0.436   8.147
29529WAT     H188829   9.554   0.437   8.048
29529WAT     H288830   9.483   0.468   8.192
29530WAT      O88831   6.367   3.084   8.508
29530WAT     H188832   6.279   3.099   8.463
29530WAT     H288833   6.382   2.986   8.519
29531WAT      O88834   6.027   6.245   1.810
29531WAT     H188835   6.061   6.337   1.826
29531WAT     H288836   5.991   6.238   1.717
29532WAT      O88837   4.024   3.035   9.603
29532WAT     H188838   3.943   3.091   9.618
29532WAT     H288839   4.034   3.015   9.505
29533WAT      O88840   9.254   4.726   0.197
29533WAT     H188841   9.353   4.713   0.209
29533WAT     H288842   9.209   4.726   0.287
29534WAT      O88843   3.639   8.968   0.542
29534WAT     H188844   3.674   9.062   0.538
29534WAT     H288845   3.698   8.909   0.488
29535WAT      O88846   5.182   3.776   2.678
29535WAT     H188847   5.273   3.800   2.642
29535WAT     H288848   5.192   3.712   2.754
29536WAT      O88849   3.251   1.591   5.990
29536WAT     H188850   3.249   1.686   6.022
29536WAT     H288851   3.161   1.549   6.002
29537WAT      O88852   1.966   8.443   6.700
29537WAT     H188853   1.978   8.521   6.760
29537WAT     H288854   2.022   8.366   6.733
29538WAT      O88855   0.621   0.689   8.902
29538WAT     H188856   0.598   0.786   8.904
29538WAT     H288857   0.551   0.636   8.950
29539WAT      O88858   5.310   0.519   7.879
29539WAT     H188859   5.351   0.568   7.802
29539WAT     H288860   5.377   0.457   7.919
29540WAT      O88861   4.769   9.442   6.229
29540WAT     H188862   4.789   9.477   6.321
29540WAT     H288863   4.671   9.449   6.212
29541WAT      O88864   4.604   0.039   2.062
29541WAT     H188865   4.616   0.001   2.154
29541WAT     H288866   4.516   0.086   2.056
29542WAT      O88867   8.744   0.250   9.114
29542WAT     H188868   8.663   0.276   9.166
29542WAT     H288869   8.797   0.331   9.090
29543WAT      O88870   0.293   0.690   9.855
29543WAT     H188871   0.373   0.748   9.844
29543WAT     H288872   0.217   0.744   9.892
29544WAT      O88873   4.756   0.353   3.900
29544WAT     H188874   4.718   0.298   3.975
29544WAT     H288875   4.798   0.436   3.938
29545WAT      O88876   8.617   4.103   8.257
29545WAT     H188877   8.649   4.100   8.163
29545WAT     H288878   8.524   4.065   8.261
29546WAT      O88879   6.786   6.926   6.093
29546WAT     H188880   6.852   6.999   6.077
29546WAT     H288881   6.782   6.904   6.190
29547WAT      O88882   1.348   2.514   8.018
29547WAT     H188883   1.263   2.468   8.044
29547WAT     H288884   1.329   2.610   7.995
29548WAT      O88885   2.759   2.918   5.883
29548WAT     H188886   2.667   2.933   5.919
29548WAT     H288887   2.786   2.995   5.826
29549WAT      O88888   7.357   6.571   7.314
29549WAT     H188889   7.437   6.588   7.371
29549WAT     H288890   7.304   6.656   7.304
29550WAT      O88891   5.303   0.041   0.825
29550WAT     H188892   5.250   0.014   0.745
29550WAT     H288893   5.283   0.136   0.848
29551WAT      O88894   2.730   1.562   7.474
29551WAT     H188895   2.825   1.578   7.446
29551WAT     H288896   2.675   1.538   7.394
29552WAT      O88897   4.790   8.917   2.166
29552WAT     H188898   4.846   8.840   2.134
29552WAT     H288899   4.840   9.002   2.154
29553WAT      O88900   1.318   5.536   0.979
29553WAT     H188901   1.234   5.510   0.931
29553WAT     H288902   1.397   5.499   0.930
29554WAT      O88903   2.651   8.616   4.563
29554WAT     H188904   2.749   8.601   4.548
29554WAT     H288905   2.611   8.661   4.483
29555WAT      O88906   1.129   4.507   3.202
29555WAT     H188907   1.037   4.529   3.169
29555WAT     H288908   1.175   4.591   3.232
29556WAT      O88909   1.667   1.488   5.941
29556WAT     H188910   1.738   1.452   6.001
29556WAT     H288911   1.577   1.467   5.978
29557WAT      O88912   1.063   5.176   2.340
29557WAT     H188913   1.025   5.250   2.395
29557WAT     H288914   1.131   5.126   2.394
29558WAT      O88915   9.163   4.127   1.569
29558WAT     H188916   9.125   4.147   1.660
29558WAT     H288917   9.220   4.045   1.574
29559WAT      O88918   4.998   8.343   4.377
29559WAT     H188919   5.004   8.260   4.321
29559WAT     H288920   5.078   8.347   4.437
29560WAT      O88921   8.807   0.324   5.207
29560WAT     H188922   8.894   0.320   5.157
29560WAT     H288923   8.732   0.336   5.142
29561WAT      O88924   0.620   7.778   4.284
29561WAT     H188925   0.695   7.824   4.235
29561WAT     H288926   0.657   7.731   4.364
29562WAT      O88927   2.437   6.622   2.493
29562WAT     H188928   2.418   6.540   2.439
29562WAT     H288929   2.375   6.627   2.571
29563WAT      O88930   9.708   8.473   2.270
29563WAT     H188931   9.734   8.545   2.206
29563WAT     H288932   9.633   8.505   2.328
29564WAT      O88933   6.324   6.659   0.975
29564WAT     H188934   6.394   6.689   1.040
29564WAT     H288935   6.243   6.630   1.025
29565WAT      O88936   5.324   1.846   6.304
29565WAT     H188937   5.322   1.917   6.233
29565WAT     H288938   5.419   1.819   6.322
29566WAT      O88939   0.170   1.147   4.416
29566WAT     H188940   0.238   1.139   4.343
29566WAT     H288941   0.079   1.160   4.376
29567WAT      O88942   9.557   8.942   8.592
29567WAT     H188943   9.588   9.000   8.668
29567WAT     H288944   9.512   8.861   8.628
29568WAT      O88945   0.092   4.178   8.194
29568WAT     H188946   0.068   4.181   8.097
29568WAT     H288947   0.012   4.201   8.249
29569WAT      O88948   5.695   0.255   7.746
29569WAT     H188949   5.611   0.221   7.704
29569WAT     H288950   5.679   0.270   7.844
29570WAT      O88951   2.225   1.968   7.598
29570WAT     H188952   2.178   1.953   7.511
29570WAT     H288953   2.299   1.902   7.607
29571WAT      O88954   1.526   0.397   6.859
29571WAT     H188955   1.497   0.431   6.948
29571WAT     H288956   1.612   0.347   6.869
29572WAT      O88957   6.552   9.302   3.792
29572WAT     H188958   6.521   9.208   3.781
29572WAT     H288959   6.588   9.336   3.705
29573WAT      O88960   1.588   5.379   3.675
29573WAT     H188961   1.685   5.389   3.651
29573WAT     H288962   1.580   5.345   3.768
29574WAT      O88963   4.523   7.759   6.637
29574WAT     H188964   4.523   7.757   6.537
29574WAT     H288965   4.472   7.680   6.672
29575WAT      O88966   4.800   8.848   5.234
29575WAT     H188967   4.850   8.817   5.314
29575WAT     H288968   4.736   8.920   5.260
29576WAT      O88969   0.462   1.766   1.632
29576WAT     H188970   0.397   1.753   1.707
29576WAT     H288971   0.539   1.703   1.644
29577WAT      O88972   3.509   6.473   4.639
29577WAT     H188973   3.486   6.378   4.621
29577WAT     H288974   3.442   6.532   4.594
29578WAT      O88975   3.515   3.695   2.957
29578WAT     H188976   3.551   3.763   2.893
29578WAT     H288977   3.495   3.611   2.908
29579WAT      O88978   1.036   4.236   5.845
29579WAT     H188979   0.979   4.315   5.866
29579WAT     H288980   1.129   4.252   5.879
29580WAT      O88981   5.043   5.166   9.778
29580WAT     H188982   5.017   5.259   9.804
29580WAT     H288983   5.054   5.111   9.861
29581WAT      O88984   2.553   7.922   3.668
29581WAT     H188985   2.543   8.007   3.616
29581WAT     H288986   2.614   7.936   3.746
29582WAT      O88987   5.840   5.845   6.513
29582WAT     H188988   5.778   5.796   6.452
29582WAT     H288989   5.795   5.928   6.547
29583WAT      O88990   5.022   3.447   3.220
29583WAT     H188991   4.995   3.394   3.301
29583WAT     H288992   5.119   3.435   3.203
29584WAT      O88993   1.626   5.155   5.229
29584WAT     H188994   1.528   5.175   5.240
29584WAT     H288995   1.680   5.235   5.256
29585WAT      O88996   0.184   7.270   7.225
29585WAT     H188997   0.118   7.261   7.300
29585WAT     H288998   0.194   7.182   7.178
29586WAT      O88999   3.763   3.405   9.102
29586WAT     H189000   3.828   3.477   9.075
29586WAT     H289001   3.676   3.446   9.127
29587WAT      O89002   0.428   5.028   8.516
29587WAT     H189003   0.445   4.930   8.528
29587WAT     H289004   0.371   5.062   8.591
29588WAT      O89005   7.956   9.039   2.911
29588WAT     H189006   7.944   8.940   2.902
29588WAT     H289007   7.973   9.078   2.820
29589WAT      O89008   0.992   0.296   2.009
29589WAT     H189009   0.918   0.301   2.076
29589WAT     H289010   1.078   0.325   2.052
29590WAT      O89011   7.523   2.674   9.097
29590WAT     H189012   7.576   2.593   9.119
29590WAT     H289013   7.557   2.752   9.150
29591WAT      O89014   3.809   2.393   7.959
29591WAT     H189015   3.884   2.327   7.968
29591WAT     H289016   3.775   2.392   7.865
29592WAT      O89017   1.958   6.508   3.635
29592WAT     H189018   1.908   6.513   3.721
29592WAT     H289019   2.050   6.545   3.647
29593WAT      O89020   4.232   8.980   0.507
29593WAT     H189021   4.173   9.061   0.509
29593WAT     H289022   4.327   9.009   0.496
29594WAT      O89023   3.607   9.192   8.301
29594WAT     H189024   3.516   9.224   8.273
29594WAT     H289025   3.597   9.121   8.371
29595WAT      O89026   1.005   9.550   1.474
29595WAT     H189027   1.055   9.469   1.506
29595WAT     H289028   0.917   9.554   1.521
29596WAT      O89029   8.928   7.050   5.232
29596WAT     H189030   8.984   7.094   5.303
29596WAT     H289031   8.861   6.990   5.275
29597WAT      O89032   3.756   5.798   9.565
29597WAT     H189033   3.722   5.892   9.559
29597WAT     H289034   3.719   5.755   9.648
29598WAT      O89035   9.852   4.172   8.585
29598WAT     H189036   9.897   4.244   8.638
29598WAT     H289037   9.830   4.207   8.494
29599WAT      O89038   1.928   6.271   7.442
29599WAT     H189039   1.911   6.262   7.344
29599WAT     H289040   2.025   6.256   7.460
29600WAT      O89041   6.401   5.197   9.066
29600WAT     H189042   6.493   5.228   9.091
29600WAT     H289043   6.401   5.166   8.971
29601WAT      O89044   4.552   0.775   9.347
29601WAT     H189045   4.544   0.873   9.327
29601WAT     H289046   4.612   0.731   9.280
29602WAT      O89047   4.313   9.053   3.067
29602WAT     H189048   4.346   8.965   3.032
29602WAT     H289049   4.331   9.057   3.166
29603WAT      O89050   0.407   1.780   8.275
29603WAT     H189051   0.402   1.845   8.198
29603WAT     H289052   0.434   1.690   8.241
29604WAT      O89053   7.942   8.902   8.642
29604WAT     H189054   7.974   8.839   8.571
29604WAT     H289055   7.993   8.988   8.636
29605WAT      O89056   7.856   7.033   5.807
29605WAT     H189057   7.921   7.076   5.744
29605WAT     H289058   7.763   7.054   5.777
29606WAT      O89059   3.865   9.081   9.612
29606WAT     H189060   3.842   9.012   9.544
29606WAT     H289061   3.963   9.073   9.635
29607WAT      O89062   6.265   8.613   1.510
29607WAT     H189063   6.234   8.607   1.415
29607WAT     H289064   6.187   8.606   1.571
29608WAT      O89065   7.777   3.672   5.911
29608WAT     H189066   7.712   3.743   5.883
29608WAT     H289067   7.870   3.706   5.898
29609WAT      O89068   8.304   9.720   4.905
29609WAT     H189069   8.298   9.660   4.985
29609WAT     H289070   8.214   9.757   4.884
29610WAT      O89071   3.619   4.388   8.675
29610WAT     H189072   3.671   4.405   8.592
29610WAT     H289073   3.590   4.474   8.715
29611WAT      O89074   4.582   9.209   4.243
29611WAT     H189075   4.644   9.204   4.165
29611WAT     H289076   4.490   9.232   4.212
29612WAT      O89077   1.427   0.199   6.729
29612WAT     H189078   1.358   0.240   6.669
29612WAT     H289079   1.466   0.270   6.788
29613WAT      O89080   5.779   5.892   3.095
29613WAT     H189081   5.788   5.812   3.037
29613WAT     H289082   5.732   5.965   3.045
29614WAT      O89083   1.305   4.352   6.546
29614WAT     H189084   1.286   4.320   6.639
29614WAT     H289085   1.281   4.449   6.538
29615WAT      O89086   6.670   9.545   6.245
29615WAT     H189087   6.644   9.450   6.264
29615WAT     H289088   6.589   9.596   6.214
29616WAT      O89089   6.713   2.426   0.087
29616WAT     H189090   6.766   2.430   0.002
29616WAT     H289091   6.752   2.489   0.154
29617WAT      O89092   7.121   5.455   7.305
29617WAT     H189093   7.172   5.525   7.355
29617WAT     H289094   7.184   5.397   7.254
29618WAT      O89095   5.893   8.618   0.648
29618WAT     H189096   5.887   8.566   0.563
29618WAT     H289097   5.989   8.643   0.665
29619WAT      O89098   2.021   3.328   4.197
29619WAT     H189099   1.945   3.264   4.201
29619WAT     H289100   2.006   3.403   4.262
29620WAT      O89101   8.483   3.772   7.162
29620WAT     H189102   8.417   3.716   7.212
29620WAT     H289103   8.441   3.860   7.140
29621WAT      O89104   0.706   7.238   5.436
29621WAT     H189105   0.619   7.195   5.414
29621WAT     H289106   0.779   7.193   5.384
29622WAT      O89107   2.903   5.758   3.690
29622WAT     H189108   2.849   5.695   3.745
29622WAT     H289109   2.955   5.818   3.751
29623WAT      O89110   5.080   7.536   5.434
29623WAT     H189111   5.102   7.496   5.345
29623WAT     H289112   5.039   7.626   5.421
29624WAT      O89113   1.343   8.565   0.763
29624WAT     H189114   1.335   8.654   0.808
29624WAT     H289115   1.323   8.493   0.828
29625WAT      O89116   6.810   3.349   6.726
29625WAT     H189117   6.801   3.326   6.823
29625WAT     H289118   6.759   3.433   6.707
29626WAT      O89119   6.137   7.761   1.915
29626WAT     H189120   6.071   7.809   1.857
29626WAT     H289121   6.107   7.667   1.930
29627WAT      O89122   7.346   0.849   5.584
29627WAT     H189123   7.368   0.832   5.488
29627WAT     H289124   7.420   0.899   5.628
29628WAT      O89125   8.404   3.263   0.321
29628WAT     H189126   8.356   3.211   0.250
29628WAT     H289127   8.429   3.353   0.285
29629WAT      O89128   2.238   6.737   8.058
29629WAT     H189129   2.163   6.795   8.025
29629WAT     H289130   2.280   6.779   8.138
29630WAT      O89131   6.392   4.424   0.277
29630WAT     H189132   6.328   4.351   0.303
29630WAT     H289133   6.365   4.509   0.322
29631WAT      O89134   2.138   2.617   4.552
29631WAT     H189135   2.126   2.573   4.641
29631WAT     H289136   2.147   2.715   4.564
29632WAT      O89137   7.013   3.245   9.782
29632WAT     H189138   6.936   3.185   9.761
29632WAT     H289139   6.997   3.336   9.743
29633WAT      O89140   6.752   9.825   7.139
29633WAT     H189141   6.711   9.761   7.204
29633WAT     H289142   6.779   9.776   7.056
29634WAT      O89143   8.463   6.511   4.517
29634WAT     H189144   8.443   6.520   4.420
29634WAT     H289145   8.381   6.529   4.571
29635WAT      O89146   1.654   8.825   6.325
29635WAT     H189147   1.582   8.874   6.276
29635WAT     H289148   1.723   8.793   6.259
29636WAT      O89149   4.014   9.381   0.897
29636WAT     H189150   4.013   9.316   0.973
29636WAT     H289151   3.920   9.404   0.871
29637WAT      O89152   2.943   6.083   7.954
29637WAT     H189153   2.880   6.014   7.990
29637WAT     H289154   3.018   6.038   7.906
29638WAT      O89155   0.410   9.793   8.117
29638WAT     H189156   0.391   9.868   8.054
29638WAT     H289157   0.326   9.741   8.133
29639WAT      O89158   0.455   0.592   8.145
29639WAT     H189159   0.497   0.521   8.089
29639WAT     H289160   0.364   0.614   8.108
29640WAT      O89161   7.843   5.753   2.139
29640WAT     H189162   7.743   5.755   2.149
29640WAT     H289163   7.885   5.749   2.230
29641WAT      O89164   7.140   1.079   2.475
29641WAT     H189165   7.073   1.041   2.411
29641WAT     H289166   7.150   1.018   2.553
29642WAT      O89167   4.555   2.569   3.068
29642WAT     H189168   4.636   2.607   3.025
29642WAT     H289169   4.580   2.526   3.155
29643WAT      O89170   0.387   0.278   6.022
29643WAT     H189171   0.302   0.291   6.073
29643WAT     H289172   0.382   0.327   5.935
29644WAT      O89173   3.614   2.083   1.015
29644WAT     H189174   3.550   2.140   1.066
29644WAT     H289175   3.581   2.070   0.922
29645WAT      O89176   9.404   9.341   4.479
29645WAT     H189177   9.449   9.403   4.416
29645WAT     H289178   9.390   9.386   4.567
29646WAT      O89179   6.561   5.249   3.674
29646WAT     H189180   6.617   5.276   3.596
29646WAT     H289181   6.529   5.331   3.721
29647WAT      O89182   0.130   9.251   9.005
29647WAT     H189183   0.227   9.268   9.022
29647WAT     H289184   0.091   9.200   9.082
29648WAT      O89185   9.289   0.798   2.168
29648WAT     H189186   9.220   0.763   2.231
29648WAT     H289187   9.371   0.824   2.220
29649WAT      O89188   1.800   2.559   2.161
29649WAT     H189189   1.847   2.625   2.103
29649WAT     H289190   1.743   2.499   2.105
29650WAT      O89191   5.349   5.022   8.571
29650WAT     H189192   5.431   5.028   8.628
29650WAT     H289193   5.323   5.114   8.542
29651WAT      O89194   1.772   3.942   0.020
29651WAT     H189195   1.749   3.948   0.117
29651WAT     H289196   1.792   4.033  -0.016
29652WAT      O89197   3.892   5.019   2.176
29652WAT     H189198   3.917   5.116   2.178
29652WAT     H289199   3.971   4.964   2.151
29653WAT      O89200   2.481   9.499   1.429
29653WAT     H189201   2.505   9.410   1.393
29653WAT     H289202   2.473   9.494   1.529
29654WAT      O89203   4.237   5.554   7.425
29654WAT     H189204   4.233   5.617   7.347
29654WAT     H289205   4.194   5.468   7.400
29655WAT      O89206   7.091   3.635   6.166
29655WAT     H189207   7.109   3.538   6.154
29655WAT     H289208   7.177   3.686   6.166
29656WAT      O89209   8.708   8.564   2.982
29656WAT     H189210   8.706   8.664   2.972
29656WAT     H289211   8.718   8.541   3.078
29657WAT      O89212   7.358   3.964   1.943
29657WAT     H189213   7.401   4.037   1.996
29657WAT     H289214   7.368   3.985   1.845
29658WAT      O89215   2.819   4.801   2.380
29658WAT     H189216   2.760   4.780   2.302
29658WAT     H289217   2.779   4.765   2.464
29659WAT      O89218   1.578   4.889   7.241
29659WAT     H189219   1.490   4.915   7.202
29659WAT     H289220   1.612   4.806   7.197
29660WAT      O89221   6.284   2.838   1.686
29660WAT     H189222   6.269   2.757   1.628
29660WAT     H289223   6.369   2.882   1.660
29661WAT      O89224   2.799   7.845   9.078
29661WAT     H189225   2.795   7.772   9.010
29661WAT     H289226   2.798   7.805   9.169
29662WAT      O89227   3.537   9.737   8.898
29662WAT     H189228   3.577   9.761   8.810
29662WAT     H289229   3.437   9.737   8.891
29663WAT      O89230   7.986   6.961   6.055
29663WAT     H189231   7.960   6.988   5.962
29663WAT     H289232   8.073   6.913   6.053
29664WAT      O89233   5.421   6.218   1.696
29664WAT     H189234   5.466   6.307   1.693
29664WAT     H289235   5.400   6.188   1.603
29665WAT      O89236   4.437   9.024   4.429
29665WAT     H189237   4.498   8.945   4.423
29665WAT     H289238   4.484   9.105   4.394
29666WAT      O89239   7.732   9.072   0.045
29666WAT     H189240   7.826   9.103   0.060
29666WAT     H289241   7.684   9.138  -0.012
29667WAT      O89242   0.558   8.264   6.663
29667WAT     H189243   0.508   8.185   6.626
29667WAT     H289244   0.627   8.293   6.598
29668WAT      O89245   5.924   0.926   5.067
29668WAT     H189246   5.970   0.838   5.077
29668WAT     H289247   5.849   0.917   5.002
29669WAT      O89248   1.198   1.938   1.420
29669WAT     H189249   1.193   1.922   1.321
29669WAT     H289250   1.250   2.021   1.438
29670WAT      O89251   8.633   2.081   3.821
29670WAT     H189252   8.727   2.047   3.817
29670WAT     H289253   8.630   2.172   3.779
29671WAT      O89254   6.909   4.096   7.835
29671WAT     H189255   6.937   4.162   7.905
29671WAT     H289256   6.941   4.004   7.862
29672WAT      O89257   3.884   7.121   0.407
29672WAT     H189258   3.953   7.104   0.337
29672WAT     H289259   3.885   7.218   0.432
29673WAT      O89260   4.578   8.528   5.840
29673WAT     H189261   4.608   8.586   5.765
29673WAT     H289262   4.554   8.437   5.804
29674WAT      O89263   4.253   3.124   3.216
29674WAT     H189264   4.230   3.041   3.165
29674WAT     H289265   4.263   3.102   3.313
29675WAT      O89266   4.304   9.222   5.647
29675WAT     H189267   4.266   9.256   5.561
29675WAT     H289268   4.270   9.277   5.723
29676WAT      O89269   6.836   8.316   5.168
29676WAT     H189270   6.851   8.287   5.073
29676WAT     H289271   6.831   8.415   5.172
29677WAT      O89272   9.241   4.617   4.563
29677WAT     H189273   9.293   4.665   4.634
29677WAT     H289274   9.188   4.543   4.604
29678WAT      O89275   0.393   0.168   1.936
29678WAT     H189276   0.308   0.217   1.951
29678WAT     H289277   0.377   0.089   1.877
29679WAT      O89278   7.251   3.359   7.350
29679WAT     H189279   7.164   3.355   7.302
29679WAT     H289280   7.291   3.450   7.340
29680WAT      O89281   8.697   1.950   0.143
29680WAT     H189282   8.769   1.890   0.180
29680WAT     H289283   8.640   1.899   0.079
29681WAT      O89284   6.404   6.728   3.302
29681WAT     H189285   6.482   6.671   3.275
29681WAT     H289286   6.389   6.798   3.232
29682WAT      O89287   4.608   6.275   4.973
29682WAT     H189288   4.637   6.217   4.897
29682WAT     H289289   4.674   6.266   5.048
29683WAT      O89290   8.768   2.933   8.505
29683WAT     H189291   8.855   2.982   8.502
29683WAT     H289292   8.740   2.919   8.600
29684WAT      O89293   1.669   6.619   9.758
29684WAT     H189294   1.722   6.704   9.750
29684WAT     H289295   1.599   6.629   9.829
29685WAT      O89296   2.448   3.046   4.031
29685WAT     H189297   2.406   3.022   4.119
29685WAT     H289298   2.486   3.139   4.037
29686WAT      O89299   6.396   3.020   5.173
29686WAT     H189300   6.425   3.086   5.243
29686WAT     H289301   6.338   3.066   5.106
29687WAT      O89302   2.227   0.850   8.760
29687WAT     H189303   2.240   0.949   8.765
29687WAT     H289304   2.131   0.831   8.739
29688WAT      O89305   2.291   6.451   6.249
29688WAT     H189306   2.310   6.363   6.292
29688WAT     H289307   2.376   6.492   6.217
29689WAT      O89308   6.940   7.778   5.731
29689WAT     H189309   6.981   7.823   5.652
29689WAT     H289310   6.868   7.716   5.701
29690WAT      O89311   5.554   8.568   6.889
29690WAT     H189312   5.637   8.607   6.928
29690WAT     H289313   5.552   8.584   6.791
29691WAT      O89314   5.960   5.426   6.611
29691WAT     H189315   5.905   5.360   6.661
29691WAT     H289316   6.045   5.382   6.582
29692WAT      O89317   9.813   4.154   1.634
29692WAT     H189318   9.732   4.139   1.690
29692WAT     H289319   9.795   4.125   1.540
29693WAT      O89320   2.002   7.648   1.699
29693WAT     H189321   2.030   7.676   1.607
29693WAT     H289322   2.070   7.681   1.765
29694WAT      O89323   0.828   5.602   6.382
29694WAT     H189324   0.922   5.600   6.416
29694WAT     H289325   0.821   5.545   6.300
29695WAT      O89326   5.423   9.249   7.328
29695WAT     H189327   5.374   9.287   7.250
29695WAT     H289328   5.363   9.189   7.380
29696WAT      O89329   7.616   7.974   7.555
29696WAT     H189330   7.626   8.062   7.603
29696WAT     H289331   7.594   7.902   7.621
29697WAT      O89332   3.672   8.994   5.152
29697WAT     H189333   3.621   8.990   5.066
29697WAT     H289334   3.738   9.069   5.148
29698WAT      O89335   2.867   8.707   0.628
29698WAT     H189336   2.774   8.693   0.662
29698WAT     H289337   2.866   8.717   0.529
29699WAT      O89338   8.194   5.183   7.811
29699WAT     H189339   8.142   5.125   7.749
29699WAT     H289340   8.148   5.186   7.900
29700WAT      O89341   8.474   9.435   2.693
29700WAT     H189342   8.555   9.379   2.712
29700WAT     H289343   8.480   9.472   2.601
29701WAT      O89344   4.898   4.437   8.115
29701WAT     H189345   4.991   4.422   8.150
29701WAT     H289346   4.860   4.350   8.085
29702WAT      O89347   8.888   0.266   1.891
29702WAT     H189348   8.881   0.314   1.979
29702WAT     H289349   8.964   0.304   1.839
29703WAT      O89350   3.530   4.047   4.414
29703WAT     H189351   3.611   4.094   4.448
29703WAT     H289352   3.463   4.114   4.382
29704WAT      O89353   3.511   1.286   5.975
29704WAT     H189354   3.516   1.193   6.011
29704WAT     H289355   3.459   1.286   5.890
29705WAT      O89356   0.816   7.589   2.978
29705WAT     H189357   0.777   7.578   2.887
29705WAT     H289358   0.784   7.515   3.037
29706WAT      O89359   3.197   0.181   5.311
29706WAT     H189360   3.251   0.243   5.368
29706WAT     H289361   3.133   0.129   5.369
29707WAT      O89362   8.952   2.479   5.708
29707WAT     H189363   8.993   2.440   5.791
29707WAT     H289364   8.854   2.460   5.707
29708WAT      O89365   2.127   7.668   4.095
29708WAT     H189366   2.210   7.718   4.069
29708WAT     H289367   2.147   7.570   4.100
29709WAT      O89368   1.650   4.234   8.653
29709WAT     H189369   1.571   4.233   8.592
29709WAT     H289370   1.724   4.285   8.610
29710WAT      O89371   7.883   2.022   8.656
29710WAT     H189372   7.954   2.092   8.666
29710WAT     H289373   7.918   1.935   8.691
29711WAT      O89374   7.075   0.926   2.049
29711WAT     H189375   7.113   0.841   2.085
29711WAT     H289376   7.148   0.981   2.009
29712WAT      O89377   8.292   9.160   8.365
29712WAT     H189378   8.313   9.250   8.402
29712WAT     H289379   8.366   9.131   8.304
29713WAT      O89380   9.216   4.383   0.873
29713WAT     H189381   9.184   4.386   0.778
29713WAT     H289382   9.173   4.306   0.920
29714WAT      O89383   5.335   1.123   1.239
29714WAT     H189384   5.281   1.133   1.322
29714WAT     H289385   5.386   1.037   1.241
29715WAT      O89386   0.354   2.392   6.762
29715WAT     H189387   0.372   2.295   6.743
29715WAT     H289388   0.325   2.437   6.677
29716WAT      O89389   8.858   3.519   5.076
29716WAT     H189390   8.935   3.570   5.037
29716WAT     H289391   8.800   3.485   5.002
29717WAT      O89392   0.961   2.930   8.137
29717WAT     H189393   1.018   2.998   8.090
29717WAT     H289394   0.992   2.838   8.114
29718WAT      O89395   7.643   9.417   0.659
29718WAT     H189396   7.591   9.367   0.591
29718WAT     H289397   7.644   9.514   0.636
29719WAT      O89398   8.184   8.791   4.575
29719WAT     H189399   8.123   8.717   4.547
29719WAT     H289400   8.164   8.817   4.670
29720WAT      O89401   1.502   3.149   4.007
29720WAT     H189402   1.419   3.095   3.990
29720WAT     H289403   1.573   3.123   3.942
29721WAT      O89404   9.392   4.356   4.125
29721WAT     H189405   9.457   4.408   4.071
29721WAT     H289406   9.396   4.385   4.221
29722WAT      O89407   4.127   4.739   3.831
29722WAT     H189408   4.204   4.707   3.886
29722WAT     H289409   4.159   4.807   3.765
29723WAT      O89410   2.523   2.969   7.289
29723WAT     H189411   2.618   2.962   7.321
29723WAT     H289412   2.467   2.901   7.336
29724WAT      O89413   6.670   8.522   6.771
29724WAT     H189414   6.733   8.498   6.698
29724WAT     H289415   6.627   8.439   6.806
29725WAT      O89416   4.526   6.275   7.997
29725WAT     H189417   4.480   6.191   7.970
29725WAT     H289418   4.611   6.253   8.045
29726WAT      O89419   3.545   8.317   4.193
29726WAT     H189420   3.507   8.406   4.218
29726WAT     H289421   3.527   8.299   4.096
29727WAT      O89422   1.381   5.989   3.236
29727WAT     H189423   1.371   6.087   3.219
29727WAT     H289424   1.333   5.938   3.166
29728WAT      O89425   0.238   1.362   3.592
29728WAT     H189426   0.202   1.420   3.665
29728WAT     H289427   0.191   1.383   3.507
29729WAT      O89428   1.222   3.557   4.555
29729WAT     H189429   1.279   3.636   4.537
29729WAT     H289430   1.130   3.572   4.517
29730WAT      O89431   1.301   4.251   0.541
29730WAT     H189432   1.205   4.226   0.525
29730WAT     H289433   1.359   4.206   0.473
29731WAT      O89434   1.906   0.562   3.023
29731WAT     H189435   1.991   0.537   3.071
29731WAT     H289436   1.839   0.488   3.034
29732WAT      O89437   0.382   8.216   0.846
29732WAT     H189438   0.452   8.184   0.782
29732WAT     H289439   0.292   8.209   0.802
29733WAT      O89440   2.291   8.574   9.788
29733WAT     H189441   2.364   8.617   9.735
29733WAT     H289442   2.215   8.551   9.727
29734WAT      O89443   3.724   0.306   6.234
29734WAT     H189444   3.733   0.338   6.328
29734WAT     H289445   3.627   0.296   6.212
29735WAT      O89446   9.699   1.457   0.263
29735WAT     H189447   9.608   1.416   0.270
29735WAT     H289448   9.716   1.513   0.344
29736WAT      O89449   4.169   1.713   8.710
29736WAT     H189450   4.159   1.622   8.749
29736WAT     H289451   4.083   1.763   8.718
29737WAT      O89452   6.608   7.672   4.596
29737WAT     H189453   6.647   7.632   4.513
29737WAT     H289454   6.558   7.755   4.572
29738WAT      O89455   5.725   3.004   3.534
29738WAT     H189456   5.634   2.992   3.494
29738WAT     H289457   5.718   3.002   3.633
29739WAT      O89458   2.081   6.595   2.997
29739WAT     H189459   2.160   6.538   3.018
29739WAT     H289460   2.029   6.613   3.081
29740WAT      O89461   2.739   5.050   9.829
29740WAT     H189462   2.760   4.971   9.886
29740WAT     H289463   2.736   5.133   9.885
29741WAT      O89464   2.755   8.613   2.449
29741WAT     H189465   2.840   8.606   2.397
29741WAT     H289466   2.757   8.548   2.525
29742WAT      O89467   2.245   3.918   1.077
29742WAT     H189468   2.283   3.882   1.162
29742WAT     H289469   2.146   3.908   1.078
29743WAT      O89470   4.116   0.163   1.117
29743WAT     H189471   4.120   0.113   1.204
29743WAT     H289472   4.205   0.156   1.072
29744WAT      O89473   2.663   4.274   0.347
29744WAT     H189474   2.619   4.209   0.284
29744WAT     H289475   2.628   4.366   0.330
29745WAT      O89476   9.476   0.096   7.614
29745WAT     H189477   9.573   0.082   7.593
29745WAT     H289478   9.465   0.118   7.711
29746WAT      O89479   3.884   7.940   9.049
29746WAT     H189480   3.850   7.887   9.127
29746WAT     H289481   3.907   7.878   8.974
29747WAT      O89482   5.041   2.051   1.144
29747WAT     H189483   4.945   2.052   1.169
29747WAT     H289484   5.057   2.114   1.067
29748WAT      O89485   0.896   3.446   2.014
29748WAT     H189486   0.988   3.453   1.976
29748WAT     H289487   0.876   3.528   2.069
29749WAT      O89488   1.150   5.456   1.549
29749WAT     H189489   1.095   5.373   1.548
29749WAT     H289490   1.241   5.436   1.514
29750WAT      O89491   4.796   2.984   4.869
29750WAT     H189492   4.860   3.000   4.794
29750WAT     H289493   4.840   3.005   4.956
29751WAT      O89494   5.041   0.755   1.122
29751WAT     H189495   5.091   0.739   1.037
29751WAT     H289496   5.076   0.694   1.193
29752WAT      O89497   7.130   5.846   0.113
29752WAT     H189498   7.182   5.825   0.196
29752WAT     H289499   7.176   5.805   0.034
29753WAT      O89500   6.777   4.195   1.752
29753WAT     H189501   6.701   4.213   1.690
29753WAT     H289502   6.752   4.223   1.845
29754WAT      O89503   9.405   0.392   9.826
29754WAT     H189504   9.329   0.449   9.794
29754WAT     H289505   9.443   0.340   9.750
29755WAT      O89506   8.098   3.806   9.607
29755WAT     H189507   8.170   3.769   9.667
29755WAT     H289508   8.049   3.730   9.564
29756WAT      O89509   0.421   9.405   4.591
29756WAT     H189510   0.345   9.342   4.572
29756WAT     H289511   0.387   9.499   4.591
29757WAT      O89512   5.178   8.352   5.873
29757WAT     H189513   5.259   8.391   5.916
29757WAT     H289514   5.133   8.422   5.817
29758WAT      O89515   9.379   3.891   3.873
29758WAT     H189516   9.372   3.959   3.946
29758WAT     H289517   9.334   3.924   3.791
29759WAT      O89518   1.708   3.623   0.526
29759WAT     H189519   1.750   3.571   0.600
29759WAT     H289520   1.614   3.645   0.551
29760WAT      O89521   8.384   1.955   9.633
29760WAT     H189522   8.292   1.928   9.604
29760WAT     H289523   8.389   2.054   9.639
29761WAT      O89524   8.453   4.246   5.685
29761WAT     H189525   8.428   4.160   5.641
29761WAT     H289526   8.513   4.298   5.624
29762WAT      O89527   5.992   6.942   2.809
29762WAT     H189528   6.018   6.958   2.904
29762WAT     H289529   6.074   6.933   2.753
29763WAT      O89530   2.745   8.414   6.609
29763WAT     H189531   2.731   8.330   6.662
29763WAT     H289532   2.822   8.402   6.547
29764WAT      O89533   7.086   3.846   9.646
29764WAT     H189534   7.126   3.937   9.637
29764WAT     H289535   6.988   3.855   9.664
29765WAT      O89536   1.837   0.497   7.327
29765WAT     H189537   1.849   0.506   7.228
29765WAT     H289538   1.745   0.528   7.352
29766WAT      O89539   2.716   1.702   3.028
29766WAT     H189540   2.787   1.764   3.063
29766WAT     H289541   2.738   1.608   3.056
29767WAT      O89542   9.457   7.393   7.249
29767WAT     H189543   9.372   7.404   7.301
29767WAT     H289544   9.505   7.312   7.282
29768WAT      O89545   3.370   8.525   8.601
29768WAT     H189546   3.409   8.499   8.513
29768WAT     H289547   3.443   8.547   8.666
29769WAT      O89548   5.230   3.087   2.270
29769WAT     H189549   5.134   3.104   2.291
29769WAT     H289550   5.254   2.994   2.298
29770WAT      O89551   4.904   8.774   1.067
29770WAT     H189552   4.965   8.844   1.029
29770WAT     H289553   4.854   8.730   0.993
29771WAT      O89554   8.230   1.124   9.430
29771WAT     H189555   8.323   1.106   9.398
29771WAT     H289556   8.179   1.038   9.433
29772WAT      O89557   1.195   5.664   2.327
29772WAT     H189558   1.187   5.648   2.425
29772WAT     H289559   1.284   5.631   2.295
29773WAT      O89560   8.122   2.005   0.204
29773WAT     H189561   8.191   2.038   0.267
29773WAT     H289562   8.139   2.042   0.113
29774WAT      O89563   7.596   0.095   7.579
29774WAT     H189564   7.575  -0.003   7.573
29774WAT     H289565   7.511   0.147   7.578
29775WAT      O89566   2.369   8.425   8.006
29775WAT     H189567   2.380   8.404   7.909
29775WAT     H289568   2.295   8.491   8.017
29776WAT      O89569   8.943   0.063   4.831
29776WAT     H189570   8.877   0.103   4.769
29776WAT     H289571   9.017   0.021   4.779
29777WAT      O89572   0.121   3.391   2.639
29777WAT     H189573   0.075   3.334   2.572
29777WAT     H289574   0.162   3.332   2.710
29778WAT      O89575   5.735   2.032   3.652
29778WAT     H189576   5.653   2.023   3.595
29778WAT     H289577   5.810   1.980   3.609
29779WAT      O89578   0.598   9.095   8.468
29779WAT     H189579   0.693   9.087   8.441
29779WAT     H289580   0.563   9.006   8.496
29780WAT      O89581   8.945   5.788   9.609
29780WAT     H189582   8.854   5.828   9.617
29780WAT     H289583   8.954   5.744   9.519
29781WAT      O89584   8.312   8.404   7.613
29781WAT     H189585   8.340   8.499   7.622
29781WAT     H289586   8.212   8.398   7.612
29782WAT      O89587   0.071   7.846   7.124
29782WAT     H189588   0.003   7.877   7.057
29782WAT     H289589   0.074   7.910   7.201
29783WAT      O89590   6.900   2.814   7.028
29783WAT     H189591   6.932   2.722   7.003
29783WAT     H289592   6.978   2.868   7.059
29784WAT      O89593   8.200   2.955   5.073
29784WAT     H189594   8.235   2.892   5.004
29784WAT     H289595   8.113   2.992   5.043
29785WAT      O89596   3.372   4.289   0.450
29785WAT     H189597   3.368   4.387   0.430
29785WAT     H289598   3.428   4.273   0.531
29786WAT      O89599   6.921   6.823   0.131
29786WAT     H189600   6.838   6.774   0.103
29786WAT     H289601   6.974   6.764   0.192
29787WAT      O89602   4.377   5.139   4.722
29787WAT     H189603   4.288   5.103   4.695
29787WAT     H289604   4.434   5.151   4.640
29788WAT      O89605   9.282   6.917   1.721
29788WAT     H189606   9.283   6.994   1.785
29788WAT     H289607   9.198   6.865   1.733
29789WAT      O89608   3.736   8.635   3.988
29789WAT     H189609   3.672   8.670   4.056
29789WAT     H289610   3.737   8.696   3.908
29790WAT      O89611   5.117   0.598   0.556
29790WAT     H189612   5.025   0.595   0.595
29790WAT     H289613   5.147   0.693   0.548
29791WAT      O89614   5.890   0.833   5.630
29791WAT     H189615   5.968   0.783   5.667
29791WAT     H289616   5.881   0.814   5.533
29792WAT      O89617   9.089   5.498   2.303
29792WAT     H189618   9.039   5.412   2.293
29792WAT     H289619   9.037   5.572   2.261
29793WAT      O89620   1.125   2.565   1.036
29793WAT     H189621   1.034   2.527   1.052
29793WAT     H289622   1.192   2.513   1.088
29794WAT      O89623   3.843   1.640   2.132
29794WAT     H189624   3.753   1.624   2.173
29794WAT     H289625   3.844   1.603   2.039
29795WAT      O89626   4.762   2.856   9.047
29795WAT     H189627   4.778   2.946   9.006
29795WAT     H289628   4.729   2.793   8.977
29796WAT      O89629   4.035   0.835   6.225
29796WAT     H189630   4.119   0.781   6.232
29796WAT     H289631   4.058   0.929   6.198
29797WAT      O89632   3.565   3.890   2.759
29797WAT     H189633   3.509   3.962   2.800
29797WAT     H289634   3.593   3.918   2.667
29798WAT      O89635   2.840   3.432   8.711
29798WAT     H189636   2.762   3.378   8.741
29798WAT     H289637   2.907   3.373   8.666
29799WAT      O89638   5.214   8.695   1.838
29799WAT     H189639   5.169   8.748   1.910
29799WAT     H289640   5.150   8.679   1.763
29800WAT      O89641   6.849   2.089   9.604
29800WAT     H189642   6.939   2.110   9.641
29800WAT     H289643   6.855   2.075   9.505
29801WAT      O89644   1.926   0.966   4.261
29801WAT     H189645   2.004   0.905   4.273
29801WAT     H289646   1.883   0.982   4.350
29802WAT      O89647   7.062   1.946   1.732
29802WAT     H189648   7.091   1.897   1.814
29802WAT     H289649   7.137   1.946   1.665
29803WAT      O89650   9.326   5.632   5.862
29803WAT     H189651   9.264   5.609   5.787
29803WAT     H289652   9.275   5.633   5.948
29804WAT      O89653   9.298   8.095   6.334
29804WAT     H189654   9.225   8.137   6.280
29804WAT     H289655   9.266   8.078   6.427
29805WAT      O89656   3.866   3.882   7.211
29805WAT     H189657   3.884   3.814   7.139
29805WAT     H289658   3.949   3.894   7.267
29806WAT      O89659   3.570   0.641   6.385
29806WAT     H189660   3.654   0.619   6.335
29806WAT     H289661   3.497   0.662   6.321
29807WAT      O89662   2.343   7.434   2.665
29807WAT     H189663   2.346   7.340   2.700
29807WAT     H289664   2.354   7.432   2.565
29808WAT      O89665   7.970   3.414   6.235
29808WAT     H189666   7.906   3.397   6.309
29808WAT     H289667   7.928   3.474   6.167
29809WAT      O89668   5.321   0.452   6.190
29809WAT     H189669   5.303   0.425   6.095
29809WAT     H289670   5.359   0.545   6.192
29810WAT      O89671   0.520   3.908   6.226
29810WAT     H189672   0.437   3.859   6.253
29810WAT     H289673   0.504   4.006   6.230
29811WAT      O89674   5.741   7.621   3.039
29811WAT     H189675   5.830   7.583   3.065
29811WAT     H289676   5.691   7.648   3.121
29812WAT      O89677   3.686   8.968   2.061
29812WAT     H189678   3.711   8.871   2.061
29812WAT     H289679   3.624   8.987   1.985
29813WAT      O89680   6.728   5.825   9.030
29813WAT     H189681   6.710   5.744   8.974
29813WAT     H289682   6.682   5.904   8.989
29814WAT      O89683   8.193   7.704   2.790
29814WAT     H189684   8.184   7.730   2.886
29814WAT     H289685   8.104   7.676   2.755
29815WAT      O89686   5.104   5.928   0.329
29815WAT     H189687   5.054   5.979   0.259
29815WAT     H289688   5.040   5.892   0.397
29816WAT      O89689   0.255   4.169   7.170
29816WAT     H189690   0.289   4.084   7.210
29816WAT     H289691   0.165   4.191   7.210
29817WAT      O89692   2.046   1.948   9.795
29817WAT     H189693   2.032   1.857   9.835
29817WAT     H289694   2.140   1.977   9.811
29818WAT      O89695   3.923   0.275   1.489
29818WAT     H189696   3.831   0.236   1.492
29818WAT     H289697   3.930   0.340   1.414
29819WAT      O89698   1.582   6.407   9.105
29819WAT     H189699   1.654   6.372   9.164
29819WAT     H289700   1.547   6.493   9.142
29820WAT      O89701   5.910   0.273   5.389
29820WAT     H189702   5.885   0.316   5.302
29820WAT     H289703   5.933   0.343   5.456
29821WAT      O89704   2.613   5.861   3.944
29821WAT     H189705   2.672   5.782   3.957
29821WAT     H289706   2.570   5.855   3.853
29822WAT      O89707   7.060   3.234   5.100
29822WAT     H189708   7.129   3.284   5.048
29822WAT     H289709   6.987   3.204   5.039
29823WAT      O89710   6.365   7.227   3.015
29823WAT     H189711   6.376   7.129   3.033
29823WAT     H289712   6.298   7.240   2.942
29824WAT      O89713   3.935   5.975   6.806
29824WAT     H189714   3.968   6.053   6.753
29824WAT     H289715   3.901   6.007   6.894
29825WAT      O89716   5.971   3.559   3.453
29825WAT     H189717   5.886   3.507   3.445
29825WAT     H289718   5.999   3.563   3.549
29826WAT      O89719   9.671   5.147   7.518
29826WAT     H189720   9.645   5.051   7.505
29826WAT     H289721   9.613   5.205   7.460
29827WAT      O89722   1.087   0.689   7.992
29827WAT     H189723   1.000   0.643   7.975
29827WAT     H289724   1.086   0.732   8.082
29828WAT      O89725   2.352   9.035   5.237
29828WAT     H189726   2.298   8.962   5.279
29828WAT     H289727   2.314   9.124   5.265
29829WAT      O89728   4.638   6.430   9.090
29829WAT     H189729   4.620   6.498   9.019
29829WAT     H289730   4.724   6.383   9.069
29830WAT      O89731   0.650   9.416   6.062
29830WAT     H189732   0.558   9.448   6.039
29830WAT     H289733   0.644   9.324   6.099
29831WAT      O89734   2.515   2.047   6.538
29831WAT     H189735   2.472   2.129   6.576
29831WAT     H289736   2.520   2.055   6.438
29832WAT      O89737   5.420   8.183   5.843
29832WAT     H189738   5.395   8.088   5.855
29832WAT     H289739   5.339   8.237   5.819
29833WAT      O89740   7.940   6.683   4.236
29833WAT     H189741   7.869   6.621   4.269
29833WAT     H289742   7.914   6.777   4.259
29834WAT      O89743   8.978   7.283   2.661
29834WAT     H189744   9.051   7.220   2.637
29834WAT     H289745   8.974   7.356   2.593
29835WAT      O89746   8.734   9.314   6.654
29835WAT     H189747   8.714   9.334   6.558
29835WAT     H289748   8.701   9.223   6.677
29836WAT      O89749   4.211   3.924   5.715
29836WAT     H189750   4.308   3.949   5.717
29836WAT     H289751   4.196   3.845   5.775
29837WAT      O89752   4.951   4.502   9.820
29837WAT     H189753   5.004   4.586   9.833
29837WAT     H289754   4.883   4.495   9.893
29838WAT      O89755   0.870   0.263   3.947
29838WAT     H189756   0.933   0.332   3.914
29838WAT     H289757   0.786   0.307   3.979
29839WAT      O89758   5.074   3.307   2.636
29839WAT     H189759   5.160   3.358   2.631
29839WAT     H289760   5.081   3.237   2.708
29840WAT      O89761   3.228   2.095   2.891
29840WAT     H189762   3.219   2.187   2.930
29840WAT     H289763   3.138   2.061   2.866
29841WAT      O89764   6.517   6.687   8.424
29841WAT     H189765   6.546   6.637   8.342
29841WAT     H289766   6.551   6.640   8.505
29842WAT      O89767   0.639   8.859   3.662
29842WAT     H189768   0.601   8.774   3.624
29842WAT     H289769   0.618   8.864   3.759
29843WAT      O89770   4.367   7.065   1.180
29843WAT     H189771   4.286   7.120   1.158
29843WAT     H289772   4.355   7.024   1.270
29844WAT      O89773   0.376   3.873   5.584
29844WAT     H189774   0.409   3.780   5.604
29844WAT     H289775   0.454   3.935   5.580
29845WAT      O89776   1.255   1.842   6.965
29845WAT     H189777   1.226   1.814   6.873
29845WAT     H289778   1.330   1.784   6.996
29846WAT      O89779   6.898   1.197   5.809
29846WAT     H189780   6.850   1.111   5.795
29846WAT     H289781   6.897   1.250   5.724
29847WAT      O89782   7.188   2.568   1.221
29847WAT     H189783   7.127   2.501   1.263
29847WAT     H289784   7.135   2.627   1.160
29848WAT      O89785   0.504   0.799   6.507
29848WAT     H189786   0.466   0.840   6.589
29848WAT     H289787   0.586   0.747   6.530
29849WAT      O89788   1.067   8.304   8.877
29849WAT     H189789   1.115   8.334   8.960
29849WAT     H289790   1.102   8.215   8.850
29850WAT      O89791   3.368   5.011   7.543
29850WAT     H189792   3.398   4.946   7.613
29850WAT     H289793   3.408   4.986   7.455
29851WAT      O89794   3.607   7.320   5.007
29851WAT     H189795   3.534   7.356   4.949
29851WAT     H289796   3.683   7.386   5.009
29852WAT      O89797   0.554   9.542   9.088
29852WAT     H189798   0.494   9.548   9.008
29852WAT     H289799   0.643   9.505   9.060
29853WAT      O89800   8.124   0.044   9.105
29853WAT     H189801   8.098   0.138   9.083
29853WAT     H289802   8.071   0.011   9.182
29854WAT      O89803   6.623   1.195   1.135
29854WAT     H189804   6.683   1.255   1.083
29854WAT     H289805   6.647   1.199   1.232
29855WAT      O89806   1.593   1.828   1.537
29855WAT     H189807   1.606   1.899   1.468
29855WAT     H289808   1.499   1.794   1.531
29856WAT      O89809   7.111   3.625   0.854
29856WAT     H189810   7.187   3.659   0.800
29856WAT     H289811   7.042   3.696   0.864
29857WAT      O89812   4.930   8.827   3.306
29857WAT     H189813   4.988   8.802   3.229
29857WAT     H289814   4.843   8.779   3.300
29858WAT      O89815   2.786   9.711   5.420
29858WAT     H189816   2.730   9.709   5.503
29858WAT     H289817   2.849   9.634   5.420
29859WAT      O89818   7.647   3.786   4.182
29859WAT     H189819   7.562   3.799   4.234
29859WAT     H289820   7.718   3.750   4.242
29860WAT      O89821   7.289   8.786   6.154
29860WAT     H189822   7.256   8.696   6.126
29860WAT     H289823   7.215   8.835   6.199
29861WAT      O89824   4.424   4.181   2.438
29861WAT     H189825   4.337   4.149   2.474
29861WAT     H289826   4.456   4.118   2.367
29862WAT      O89827   9.098   4.427   4.095
29862WAT     H189828   9.104   4.379   4.183
29862WAT     H289829   9.180   4.409   4.041
29863WAT      O89830   1.344   9.206   6.765
29863WAT     H189831   1.295   9.129   6.806
29863WAT     H289832   1.344   9.284   6.827
29864WAT      O89833   3.825   7.475   6.737
29864WAT     H189834   3.924   7.477   6.723
29864WAT     H289835   3.793   7.566   6.762
29865WAT      O89836   3.118   5.750   5.796
29865WAT     H189837   3.152   5.670   5.747
29865WAT     H289838   3.022   5.735   5.822
29866WAT      O89839   1.066   0.431   0.902
29866WAT     H189840   0.982   0.411   0.853
29866WAT     H289841   1.140   0.447   0.837
29867WAT      O89842   2.419   0.528   2.287
29867WAT     H189843   2.354   0.516   2.211
29867WAT     H289844   2.432   0.440   2.332
29868WAT      O89845   6.585   7.607   3.298
29868WAT     H189846   6.551   7.530   3.244
29868WAT     H289847   6.685   7.611   3.290
29869WAT      O89848   6.711   6.825   4.717
29869WAT     H189849   6.749   6.917   4.720
29869WAT     H289850   6.618   6.826   4.753
29870WAT      O89851   7.326   6.858   9.442
29870WAT     H189852   7.266   6.933   9.413
29870WAT     H289853   7.290   6.771   9.409
29871WAT      O89854   0.731   6.954   9.391
29871WAT     H189855   0.795   6.897   9.442
29871WAT     H289856   0.758   7.050   9.399
29872WAT      O89857   9.757   2.714   3.099
29872WAT     H189858   9.856   2.730   3.103
29872WAT     H289859   9.740   2.631   3.046
29873WAT      O89860   5.707   9.579   5.082
29873WAT     H189861   5.735   9.520   5.158
29873WAT     H289862   5.762   9.559   5.001
29874WAT      O89863   3.297   8.874   8.941
29874WAT     H189864   3.343   8.903   9.025
29874WAT     H289865   3.303   8.946   8.872
29875WAT      O89866   2.280   1.405   7.973
29875WAT     H189867   2.346   1.332   7.959
29875WAT     H289868   2.197   1.368   8.015
29876WAT      O89869   2.989   0.157   4.085
29876WAT     H189870   3.066   0.113   4.131
29876WAT     H289871   2.903   0.124   4.124
29877WAT      O89872   0.096   8.888   9.077
29877WAT     H189873   0.064   8.883   8.983
29877WAT     H289874   0.184   8.937   9.081
29878WAT      O89875   3.789   7.795   9.710
29878WAT     H189876   3.766   7.892   9.717
29878WAT     H289877   3.846   7.779   9.629
29879WAT      O89878   5.061   4.305   3.335
29879WAT     H189879   5.065   4.243   3.413
29879WAT     H289880   4.971   4.300   3.292
29880WAT      O89881   5.572   5.146   7.259
29880WAT     H189882   5.551   5.233   7.215
29880WAT     H289883   5.513   5.075   7.222
29881WAT      O89884   5.807   5.205   6.785
29881WAT     H189885   5.807   5.182   6.882
29881WAT     H289886   5.899   5.188   6.747
29882WAT      O89887   2.614   7.860   2.589
29882WAT     H189888   2.566   7.821   2.510
29882WAT     H289889   2.711   7.866   2.570
29883WAT      O89890   8.563   8.237   4.419
29883WAT     H189891   8.643   8.223   4.476
29883WAT     H289892   8.571   8.325   4.371
29884WAT      O89893   1.414   7.876   7.037
29884WAT     H189894   1.483   7.946   7.056
29884WAT     H289895   1.437   7.792   7.086
29885WAT      O89896   4.482   1.051   8.624
29885WAT     H189897   4.410   1.117   8.604
29885WAT     H289898   4.515   1.011   8.539
29886WAT      O89899   2.091   3.284   7.443
29886WAT     H189900   2.110   3.188   7.466
29886WAT     H289901   2.028   3.288   7.365
29887WAT      O89902   5.943   3.306   7.214
29887WAT     H189903   6.036   3.342   7.204
29887WAT     H289904   5.946   3.206   7.220
29888WAT      O89905   9.099   0.752   7.460
29888WAT     H189906   9.167   0.766   7.533
29888WAT     H289907   9.030   0.687   7.492
29889WAT      O89908   3.037   9.135   1.547
29889WAT     H189909   3.078   9.226   1.544
29889WAT     H289910   3.025   9.106   1.642
29890WAT      O89911   3.425   5.055   7.067
29890WAT     H189912   3.400   5.118   6.994
29890WAT     H289913   3.485   4.984   7.031
29891WAT      O89914   8.174   3.102   1.695
29891WAT     H189915   8.122   3.020   1.719
29891WAT     H289916   8.190   3.157   1.777
29892WAT      O89917   6.768   5.895   7.593
29892WAT     H189918   6.695   5.952   7.557
29892WAT     H289919   6.849   5.905   7.535
29893WAT      O89920   1.512   3.717   5.236
29893WAT     H189921   1.548   3.643   5.292
29893WAT     H289922   1.450   3.680   5.168
29894WAT      O89923   6.782   4.519   3.111
29894WAT     H189924   6.740   4.443   3.161
29894WAT     H289925   6.856   4.484   3.054
29895WAT      O89926   3.643   2.571   7.117
29895WAT     H189927   3.592   2.526   7.190
29895WAT     H289928   3.585   2.582   7.037
29896WAT      O89929   9.189   3.227   2.899
29896WAT     H189930   9.135   3.253   2.819
29896WAT     H289931   9.280   3.267   2.893
29897WAT      O89932   4.205   5.112   0.877
29897WAT     H189933   4.116   5.076   0.847
29897WAT     H289934   4.257   5.038   0.921
29898WAT      O89935   6.316   9.279   9.308
29898WAT     H189936   6.392   9.214   9.313
29898WAT     H289937   6.231   9.229   9.291
29899WAT      O89938   0.080   7.548   2.143
29899WAT     H189939   0.093   7.454   2.175
29899WAT     H289940   0.046   7.546   2.049
29900WAT      O89941   0.158   2.204   4.848
29900WAT     H189942   0.199   2.178   4.935
29900WAT     H289943   0.093   2.278   4.863
29901WAT      O89944   8.674   2.168   1.328
29901WAT     H189945   8.671   2.226   1.409
29901WAT     H289946   8.713   2.219   1.252
29902WAT      O89947   3.069   8.294   1.636
29902WAT     H189948   2.999   8.222   1.629
29902WAT     H289949   3.043   8.371   1.577
29903WAT      O89950   5.918   4.985   1.012
29903WAT     H189951   5.852   4.983   1.087
29903WAT     H289952   6.007   5.013   1.047
29904WAT      O89953   3.405   1.867   7.923
29904WAT     H189954   3.397   1.767   7.917
29904WAT     H289955   3.345   1.901   7.995
29905WAT      O89956   6.286   1.477   6.487
29905WAT     H189957   6.262   1.400   6.546
29905WAT     H289958   6.380   1.505   6.506
29906WAT      O89959   8.382   8.591   5.342
29906WAT     H189960   8.393   8.494   5.363
29906WAT     H289961   8.327   8.600   5.258
29907WAT      O89962   2.356   2.740   6.016
29907WAT     H189963   2.324   2.646   6.000
29907WAT     H289964   2.369   2.754   6.114
29908WAT      O89965   4.541   2.468   4.219
29908WAT     H189966   4.529   2.419   4.305
29908WAT     H289967   4.489   2.554   4.223
29909WAT      O89968   6.776   5.932   6.455
29909WAT     H189969   6.853   5.871   6.469
29909WAT     H289970   6.806   6.027   6.466
29910WAT      O89971   1.492   5.155   9.325
29910WAT     H189972   1.472   5.212   9.405
29910WAT     H289973   1.407   5.120   9.287
29911WAT      O89974   5.178   8.322   1.792
29911WAT     H189975   5.185   8.312   1.891
29911WAT     H289976   5.120   8.401   1.770
29912WAT      O89977   4.668   4.932   7.084
29912WAT     H189978   4.668   4.971   7.176
29912WAT     H289979   4.730   4.985   7.025
29913WAT      O89980   6.195  -0.003   6.999
29913WAT     H189981   6.158   0.015   7.090
29913WAT     H289982   6.145   0.052   6.931
29914WAT      O89983   0.428   6.652   0.722
29914WAT     H189984   0.480   6.715   0.664
29914WAT     H289985   0.330   6.668   0.709
29915WAT      O89986   8.813   3.751   4.649
29915WAT     H189987   8.868   3.833   4.665
29915WAT     H289988   8.800   3.738   4.551
29916WAT      O89989   8.794   3.228   8.610
29916WAT     H189990   8.748   3.159   8.553
29916WAT     H289991   8.887   3.244   8.576
29917WAT      O89992   2.790   6.925   5.466
29917WAT     H189993   2.824   6.898   5.556
29917WAT     H289994   2.817   6.856   5.399
29918WAT      O89995   5.860   7.599   2.527
29918WAT     H189996   5.885   7.508   2.560
29918WAT     H289997   5.784   7.592   2.462
29919WAT      O89998   3.609   3.515   6.214
29919WAT     H189999   3.708   3.512   6.201
29919WAT     H290000   3.564   3.467   6.139
29920WAT      O90001   3.958   8.087   5.109
29920WAT     H190002   3.908   8.115   5.191
29920WAT     H290003   3.899   8.096   5.029
29921WAT      O90004   6.912   6.826   7.742
29921WAT     H190005   6.972   6.904   7.724
29921WAT     H290006   6.946   6.776   7.821
29922WAT      O90007   6.079   1.412   5.001
29922WAT     H190008   6.170   1.447   5.024
29922WAT     H290009   6.074   1.315   5.023
29923WAT      O90010   4.828   9.342   9.137
29923WAT     H190011   4.866   9.267   9.191
29923WAT     H290012   4.903   9.401   9.105
29924WAT      O90013   0.050   1.322   8.845
29924WAT     H190014   0.029   1.276   8.932
29924WAT     H290015   0.087   1.255   8.781
29925WAT      O90016   2.152   9.110   0.277
29925WAT     H190017   2.151   9.192   0.221
29925WAT     H290018   2.065   9.101   0.326
29926WAT      O90019   0.607   9.060   4.779
29926WAT     H190020   0.544   9.101   4.845
29926WAT     H290021   0.698   9.099   4.791
29927WAT      O90022   0.921   4.556   2.422
29927WAT     H190023   0.907   4.655   2.425
29927WAT     H290024   0.837   4.512   2.391
29928WAT      O90025   9.186   8.879   0.300
29928WAT     H190026   9.124   8.908   0.227
29928WAT     H290027   9.207   8.782   0.289
29929WAT      O90028   6.144   4.167   0.250
29929WAT     H190029   6.056   4.172   0.298
29929WAT     H290030   6.131   4.120   0.163
29930WAT      O90031   8.899   3.402   8.929
29930WAT     H190032   8.935   3.393   9.022
29930WAT     H290033   8.945   3.478   8.883
29931WAT      O90034   5.834   6.734   2.078
29931WAT     H190035   5.927   6.699   2.088
29931WAT     H290036   5.798   6.760   2.167
29932WAT      O90037   4.793   1.699   3.570
29932WAT     H190038   4.791   1.707   3.470
29932WAT     H290039   4.809   1.789   3.610
29933WAT      O90040   4.895   4.188   0.635
29933WAT     H190041   4.935   4.279   0.635
29933WAT     H290042   4.831   4.179   0.712
29934WAT      O90043   4.850   4.191   2.760
29934WAT     H190044   4.888   4.189   2.852
29934WAT     H290045   4.904   4.131   2.700
29935WAT      O90046   3.765   9.428   4.150
29935WAT     H190047   3.692   9.363   4.130
29935WAT     H290048   3.837   9.383   4.203
29936WAT      O90049   2.384   0.697   6.179
29936WAT     H190050   2.483   0.685   6.188
29936WAT     H290051   2.337   0.613   6.208
29937WAT      O90052   4.445   1.290   1.703
29937WAT     H190053   4.375   1.344   1.656
29937WAT     H290054   4.409   1.199   1.723
29938WAT      O90055   1.505   6.700   4.133
29938WAT     H190056   1.555   6.615   4.148
29938WAT     H290057   1.499   6.750   4.219
29939WAT      O90058   4.175   9.590   5.500
29939WAT     H190059   4.098   9.621   5.443
29939WAT     H290060   4.207   9.501   5.466
29940WAT      O90061   3.798   1.220   1.595
29940WAT     H190062   3.849   1.276   1.530
29940WAT     H290063   3.702   1.247   1.594
29941WAT      O90064   0.116   4.505   9.059
29941WAT     H190065   0.065   4.524   8.975
29941WAT     H290066   0.121   4.406   9.074
29942WAT      O90067   7.055   8.675   2.755
29942WAT     H190068   7.071   8.583   2.790
29942WAT     H290069   6.963   8.705   2.779
29943WAT      O90070   1.825   7.439   2.235
29943WAT     H190071   1.734   7.476   2.250
29943WAT     H290072   1.844   7.368   2.302
29944WAT      O90073   7.307   2.842   2.660
29944WAT     H190074   7.379   2.890   2.610
29944WAT     H290075   7.322   2.744   2.656
29945WAT      O90076   5.422   5.499   3.323
29945WAT     H190077   5.409   5.524   3.419
29945WAT     H290078   5.466   5.575   3.275
29946WAT      O90079   0.511   2.753   6.492
29946WAT     H190080   0.583   2.723   6.554
29946WAT     H290081   0.539   2.736   6.398
29947WAT      O90082   5.883   5.769   3.654
29947WAT     H190083   5.826   5.704   3.704
29947WAT     H290084   5.841   5.860   3.658
29948WAT      O90085   6.526   8.016   6.290
29948WAT     H190086   6.617   8.051   6.269
29948WAT     H290087   6.529   7.964   6.376
29949WAT      O90088   8.136   8.771   9.609
29949WAT     H190089   8.211   8.831   9.635
29949WAT     H290090   8.072   8.761   9.686
29950WAT      O90091   0.193   9.357   1.709
29950WAT     H190092   0.205   9.408   1.624
29950WAT     H290093   0.173   9.262   1.688
29951WAT      O90094   3.521   8.821   9.486
29951WAT     H190095   3.461   8.825   9.566
29951WAT     H290096   3.494   8.745   9.427
29952WAT      O90097   6.840   6.191   6.968
29952WAT     H190098   6.889   6.164   7.051
29952WAT     H290099   6.742   6.196   6.987
29953WAT      O90100   2.980   2.069   6.834
29953WAT     H190101   2.910   2.058   6.763
29953WAT     H290102   3.044   1.992   6.830
29954WAT      O90103   9.020   1.989   8.018
29954WAT     H190104   8.930   1.951   7.999
29954WAT     H290105   9.073   1.926   8.074
29955WAT      O90106   5.305   9.074   7.499
29955WAT     H190107   5.208   9.055   7.486
29955WAT     H290108   5.317   9.138   7.575
29956WAT      O90109   9.512   9.059   4.129
29956WAT     H190110   9.413   9.049   4.124
29956WAT     H290111   9.537   9.153   4.106
29957WAT      O90112   4.546   8.393   2.531
29957WAT     H190113   4.615   8.359   2.594
29957WAT     H290114   4.458   8.402   2.578
29958WAT      O90115   8.439   4.966   4.348
29958WAT     H190116   8.515   4.908   4.317
29958WAT     H290117   8.406   4.933   4.436
29959WAT      O90118   6.307   4.323   5.190
29959WAT     H190119   6.307   4.237   5.240
29959WAT     H290120   6.361   4.314   5.106
29960WAT      O90121   0.739   4.216   4.635
29960WAT     H190122   0.701   4.306   4.653
29960WAT     H290123   0.833   4.226   4.601
29961WAT      O90124   1.797   0.433   0.161
29961WAT     H190125   1.818   0.340   0.192
29961WAT     H290126   1.877   0.491   0.176
29962WAT      O90127   0.235   6.137   1.498
29962WAT     H190128   0.314   6.196   1.515
29962WAT     H290129   0.191   6.116   1.585
29963WAT      O90130   2.291   0.862   0.426
29963WAT     H190131   2.238   0.895   0.347
29963WAT     H290132   2.387   0.887   0.413
29964WAT      O90133   5.641   9.088   6.782
29964WAT     H190134   5.674   9.182   6.785
29964WAT     H290135   5.544   9.087   6.757
29965WAT      O90136   6.181   6.006   4.836
29965WAT     H190137   6.126   5.981   4.915
29965WAT     H290138   6.248   6.076   4.862
29966WAT      O90139   3.319   7.754   8.435
29966WAT     H190140   3.418   7.761   8.424
29966WAT     H290141   3.284   7.837   8.479
29967WAT      O90142   8.728   4.886   6.176
29967WAT     H190143   8.631   4.899   6.194
29967WAT     H290144   8.746   4.791   6.152
29968WAT      O90145   3.204   6.449   9.533
29968WAT     H190146   3.115   6.429   9.493
29968WAT     H290147   3.252   6.363   9.552
29969WAT      O90148   1.320   4.984   0.865
29969WAT     H190149   1.420   4.994   0.872
29969WAT     H290150   1.296   4.961   0.771
29970WAT      O90151   6.181   9.361   7.273
29970WAT     H190152   6.218   9.423   7.203
29970WAT     H290153   6.243   9.285   7.287
29971WAT      O90154   2.291   1.268   6.146
29971WAT     H190155   2.193   1.249   6.149
29971WAT     H290156   2.308   1.361   6.180
29972WAT      O90157   1.123   4.044   0.975
29972WAT     H190158   1.221   4.022   0.980
29972WAT     H290159   1.097   4.054   0.879
29973WAT      O90160   0.071   2.433   4.408
29973WAT     H190161   0.035   2.428   4.315
29973WAT     H290162   0.005   2.392   4.472
29974WAT      O90163   1.317   3.710   3.007
29974WAT     H190164   1.374   3.774   3.057
29974WAT     H290165   1.232   3.755   2.979
29975WAT      O90166   2.143   4.484   2.361
29975WAT     H190167   2.043   4.498   2.361
29975WAT     H290168   2.180   4.508   2.272
29976WAT      O90169   4.594   2.454   3.753
29976WAT     H190170   4.543   2.372   3.728
29976WAT     H290171   4.532   2.532   3.758
29977WAT      O90172   1.159   1.225   1.083
29977WAT     H190173   1.143   1.316   1.044
29977WAT     H290174   1.253   1.219   1.117
29978WAT      O90175   8.263   9.719   8.454
29978WAT     H190176   8.321   9.647   8.494
29978WAT     H290177   8.171   9.713   8.495
29979WAT      O90178   5.759   1.164   7.253
29979WAT     H190179   5.660   1.178   7.261
29979WAT     H290180   5.778   1.068   7.237
29980WAT      O90181   4.788   5.790   1.724
29980WAT     H190182   4.767   5.852   1.649
29980WAT     H290183   4.745   5.823   1.808
29981WAT      O90184   3.971   6.232   2.552
29981WAT     H190185   3.927   6.314   2.588
29981WAT     H290186   3.905   6.157   2.552
29982WAT      O90187   9.791   4.629   2.813
29982WAT     H190188   9.832   4.568   2.880
29982WAT     H290189   9.841   4.716   2.811
29983WAT      O90190   8.275   1.623   5.096
29983WAT     H190191   8.345   1.684   5.133
29983WAT     H290192   8.248   1.654   5.005
29984WAT      O90193   0.208   9.326   8.338
29984WAT     H190194   0.270   9.392   8.380
29984WAT     H290195   0.124   9.372   8.309
29985WAT      O90196   6.309   1.379   0.301
29985WAT     H190197   6.288   1.325   0.382
29985WAT     H290198   6.371   1.454   0.326
29986WAT      O90199   4.763   9.762   1.732
29986WAT     H190200   4.735   9.691   1.797
29986WAT     H290201   4.777   9.848   1.781
29987WAT      O90202   6.466   9.553   8.007
29987WAT     H190203   6.411   9.603   8.074
29987WAT     H290204   6.411   9.534   7.926
29988WAT      O90205   4.110   0.902   1.813
29988WAT     H190206   4.035   0.955   1.772
29988WAT     H290207   4.092   0.889   1.910
29989WAT      O90208   2.739   7.536   3.561
29989WAT     H190209   2.791   7.595   3.500
29989WAT     H290210   2.777   7.541   3.654
29990WAT      O90211   5.416   8.468   7.825
29990WAT     H190212   5.388   8.415   7.905
29990WAT     H290213   5.351   8.453   7.751
29991WAT      O90214   3.813   8.243   7.410
29991WAT     H190215   3.848   8.334   7.390
29991WAT     H290216   3.757   8.211   7.333
29992WAT      O90217   7.441   3.155   3.977
29992WAT     H190218   7.359   3.099   3.968
29992WAT     H290219   7.495   3.148   3.892
29993WAT      O90220   6.707   4.333   3.762
29993WAT     H190221   6.644   4.332   3.839
29993WAT     H290222   6.663   4.373   3.682
29994WAT      O90223   5.306   7.820   8.121
29994WAT     H190224   5.369   7.751   8.156
29994WAT     H290225   5.245   7.851   8.194
29995WAT      O90226   3.393   6.224   5.374
29995WAT     H190227   3.483   6.196   5.406
29995WAT     H290228   3.398   6.317   5.338
29996WAT      O90229   3.626   5.984   8.701
29996WAT     H190230   3.661   6.055   8.638
29996WAT     H290231   3.556   6.024   8.759
29997WAT      O90232   3.434   3.888   3.858
29997WAT     H190233   3.522   3.932   3.837
29997WAT     H290234   3.451   3.794   3.888
29998WAT      O90235   5.903   9.352   2.443
29998WAT     H190236   5.816   9.336   2.490
29998WAT     H290237   5.892   9.334   2.346
29999WAT      O90238   8.602   8.993   4.512
29999WAT     H190239   8.531   9.008   4.580
29999WAT     H290240   8.671   9.064   4.519
30000WAT      O90241   2.834   9.650   6.147
30000WAT     H190242   2.767   9.576   6.157
30000WAT     H290243   2.926   9.612   6.158
30001WAT      O90244   0.143   1.882   3.791
30001WAT     H190245   0.149   1.827   3.874
30001WAT     H290246   0.132   1.978   3.816
30002WAT      O90247   6.207   6.388   7.590
30002WAT     H190248   6.300   6.353   7.591
30002WAT     H290249   6.180   6.407   7.495
30003WAT      O90250   4.844   8.765   9.534
30003WAT     H190251   4.804   8.681   9.571
30003WAT     H290252   4.777   8.839   9.544
30004WAT      O90253   9.007   8.877   9.149
30004WAT     H190254   9.091   8.870   9.203
30004WAT     H290255   9.026   8.929   9.065
30005WAT      O90256   3.251   7.341   5.438
30005WAT     H190257   3.273   7.246   5.415
30005WAT     H290258   3.335   7.389   5.464
30006WAT      O90259   8.178   6.032   8.773
30006WAT     H190260   8.215   6.108   8.719
30006WAT     H290261   8.252   5.967   8.793
30007WAT      O90262   6.938   0.034   5.893
30007WAT     H190263   6.941  -0.057   5.934
30007WAT     H290264   6.956   0.028   5.795
30008WAT      O90265   6.356   0.695   9.721
30008WAT     H190266   6.337   0.612   9.773
30008WAT     H290267   6.269   0.734   9.689
30009WAT      O90268   7.671   7.468   7.150
30009WAT     H190269   7.648   7.466   7.053
30009WAT     H290270   7.764   7.434   7.163
30010WAT      O90271   9.271   8.878   7.084
30010WAT     H190272   9.269   8.925   6.995
30010WAT     H290273   9.222   8.791   7.076
30011WAT      O90274   4.351   5.485   8.088
30011WAT     H190275   4.297   5.413   8.044
30011WAT     H290276   4.428   5.510   8.029
30012WAT      O90277   2.244   4.030   2.292
30012WAT     H190278   2.223   3.934   2.307
30012WAT     H290279   2.160   4.078   2.263
30013WAT      O90280   4.830   1.318   0.586
30013WAT     H190281   4.885   1.279   0.660
30013WAT     H290282   4.822   1.251   0.512
30014WAT      O90283   9.092   0.504   1.446
30014WAT     H190284   9.170   0.449   1.473
30014WAT     H290285   9.008   0.451   1.458
30015WAT      O90286   4.051   2.016   2.730
30015WAT     H190287   4.148   2.010   2.751
30015WAT     H290288   3.999   2.034   2.813
30016WAT      O90289   6.000   7.054   0.552
30016WAT     H190290   6.020   6.969   0.503
30016WAT     H290291   5.974   7.034   0.646
30017WAT      O90292   6.768   5.677   7.414
30017WAT     H190293   6.778   5.746   7.485
30017WAT     H290294   6.724   5.717   7.334
30018WAT      O90295   1.932   2.052   4.098
30018WAT     H190296   1.888   1.970   4.133
30018WAT     H290297   1.936   2.048   3.998
30019WAT      O90298   4.762   3.149   4.317
30019WAT     H190299   4.806   3.194   4.239
30019WAT     H290300   4.677   3.196   4.340
30020WAT      O90301   0.435   0.905   9.782
30020WAT     H190302   0.501   0.963   9.734
30020WAT     H290303   0.448   0.915   9.881
30021WAT      O90304   5.489   9.342   6.649
30021WAT     H190305   5.431   9.375   6.724
30021WAT     H290306   5.550   9.416   6.621
30022WAT      O90307   7.550   0.059   1.162
30022WAT     H190308   7.617   0.013   1.220
30022WAT     H290309   7.597   0.096   1.081
30023WAT      O90310   2.275   1.719   9.498
30023WAT     H190311   2.265   1.767   9.411
30023WAT     H290312   2.358   1.663   9.495
30024WAT      O90313   2.996   1.921   3.747
30024WAT     H190314   2.897   1.936   3.750
30024WAT     H290315   3.038   1.989   3.686
30025WAT      O90316   2.467   8.983   8.161
30025WAT     H190317   2.418   9.006   8.245
30025WAT     H290318   2.410   8.925   8.103
30026WAT      O90319   9.025   4.370   0.558
30026WAT     H190320   9.006   4.451   0.614
30026WAT     H290321   8.976   4.291   0.596
30027WAT      O90322   9.782   4.636   2.469
30027WAT     H190323   9.771   4.573   2.546
30027WAT     H290324   9.798   4.728   2.503
30028WAT      O90325   8.603   3.200   3.869
30028WAT     H190326   8.595   3.173   3.965
30028WAT     H290327   8.624   3.120   3.813
30029WAT      O90328   6.327   2.941   4.885
30029WAT     H190329   6.427   2.939   4.883
30029WAT     H290330   6.296   3.017   4.941
30030WAT      O90331   2.098   1.820   7.084
30030WAT     H190332   2.052   1.732   7.083
30030WAT     H290333   2.189   1.811   7.042
30031WAT      O90334   2.298   7.280   9.751
30031WAT     H190335   2.303   7.333   9.667
30031WAT     H290336   2.380   7.223   9.759
30032WAT      O90337   5.198   2.787   7.531
30032WAT     H190338   5.171   2.833   7.616
30032WAT     H290339   5.141   2.819   7.456
30033WAT      O90340   6.566   6.445   3.663
30033WAT     H190341   6.481   6.482   3.625
30033WAT     H290342   6.644   6.491   3.621
30034WAT      O90343   2.201   8.193   3.224
30034WAT     H190344   2.233   8.274   3.272
30034WAT     H290345   2.236   8.111   3.270
30035WAT      O90346   3.282   6.994   9.233
30035WAT     H190347   3.342   6.929   9.185
30035WAT     H290348   3.226   7.044   9.167
30036WAT      O90349   6.336   3.602   8.046
30036WAT     H190350   6.361   3.697   8.027
30036WAT     H290351   6.271   3.571   7.977
30037WAT      O90352   6.759   8.015   4.200
30037WAT     H190353   6.777   8.006   4.102
30037WAT     H290354   6.669   7.976   4.221
30038WAT      O90355   4.365   8.874   5.415
30038WAT     H190356   4.397   8.785   5.382
30038WAT     H290357   4.265   8.873   5.423
30039WAT      O90358   0.261   0.914   3.153
30039WAT     H190359   0.276   1.002   3.199
30039WAT     H290360   0.175   0.917   3.103
30040WAT      O90361   4.997   6.692   6.559
30040WAT     H190362   5.016   6.594   6.567
30040WAT     H290363   5.019   6.737   6.646
30041WAT      O90364   8.567   5.251   0.322
30041WAT     H190365   8.624   5.322   0.282
30041WAT     H290366   8.515   5.290   0.398
30042WAT      O90367   9.519   1.477   3.377
30042WAT     H190368   9.475   1.445   3.460
30042WAT     H290369   9.506   1.409   3.304
30043WAT      O90370   5.344   1.051   2.950
30043WAT     H190371   5.297   1.139   2.960
30043WAT     H290372   5.288   0.978   2.988
30044WAT      O90373   6.198   6.247   3.355
30044WAT     H190374   6.126   6.274   3.417
30044WAT     H290375   6.175   6.275   3.262
30045WAT      O90376   7.877   7.589   3.598
30045WAT     H190377   7.875   7.679   3.642
30045WAT     H290378   7.954   7.585   3.534
30046WAT      O90379   9.060   0.346   0.792
30046WAT     H190380   9.137   0.409   0.796
30046WAT     H290381   9.093   0.252   0.795
30047WAT      O90382   5.121   8.245   8.054
30047WAT     H190383   5.065   8.311   8.104
30047WAT     H290384   5.069   8.209   7.976
30048WAT      O90385   3.880   4.503   1.914
30048WAT     H190386   3.795   4.553   1.931
30048WAT     H290387   3.871   4.409   1.947
30049WAT      O90388   8.880   6.154   3.690
30049WAT     H190389   8.860   6.218   3.764
30049WAT     H290390   8.868   6.060   3.723
30050WAT      O90391   6.896   1.429   8.031
30050WAT     H190392   6.885   1.437   7.932
30050WAT     H290393   6.926   1.337   8.055
30051WAT      O90394   7.596   0.993   1.253
30051WAT     H190395   7.567   0.935   1.329
30051WAT     H290396   7.537   1.073   1.248
30052WAT      O90397   8.642   8.553   0.163
30052WAT     H190398   8.613   8.579   0.255
30052WAT     H290399   8.562   8.538   0.105
30053WAT      O90400   7.344   6.524   4.422
30053WAT     H190401   7.313   6.582   4.498
30053WAT     H290402   7.272   6.458   4.400
30054WAT      O90403   7.041   5.809   1.697
30054WAT     H190404   7.015   5.791   1.602
30054WAT     H290405   7.139   5.792   1.708
30055WAT      O90406   4.315   1.537   1.423
30055WAT     H190407   4.294   1.483   1.342
30055WAT     H290408   4.413   1.532   1.442
30056WAT      O90409   5.750   2.804   0.357
30056WAT     H190410   5.654   2.832   0.355
30056WAT     H290411   5.755   2.704   0.350
30057WAT      O90412   1.664   2.867   1.953
30057WAT     H190413   1.588   2.888   1.892
30057WAT     H290414   1.732   2.941   1.947
30058WAT      O90415   6.204   7.401   3.191
30058WAT     H190416   6.268   7.325   3.173
30058WAT     H290417   6.123   7.389   3.134
30059WAT      O90418   1.574   8.705   4.593
30059WAT     H190419   1.497   8.653   4.630
30059WAT     H290420   1.571   8.703   4.493
30060WAT      O90421   6.991   4.468   2.150
30060WAT     H190422   7.021   4.436   2.060
30060WAT     H290423   7.046   4.424   2.221
30061WAT      O90424   8.865   6.203   9.033
30061WAT     H190425   8.914   6.115   9.037
30061WAT     H290426   8.847   6.235   9.125
30062WAT      O90427   6.426   0.039   5.459
30062WAT     H190428   6.352   0.039   5.526
30062WAT     H290429   6.500   0.098   5.491
30063WAT      O90430   6.087   1.448   2.581
30063WAT     H190431   6.070   1.537   2.538
30063WAT     H290432   6.169   1.407   2.541
30064WAT      O90433   8.008   0.462   0.565
30064WAT     H190434   8.020   0.558   0.588
30064WAT     H290435   8.082   0.432   0.505
30065WAT      O90436   4.090   4.258   3.346
30065WAT     H190437   4.171   4.222   3.301
30065WAT     H290438   4.022   4.285   3.277
30066WAT      O90439   6.802   0.735   2.099
30066WAT     H190440   6.768   0.825   2.071
30066WAT     H290441   6.729   0.685   2.146
30067WAT      O90442   2.915   8.969   3.167
30067WAT     H190443   2.881   9.010   3.082
30067WAT     H290444   2.954   9.040   3.225
30068WAT      O90445   7.080   1.057   8.260
30068WAT     H190446   7.058   1.113   8.339
30068WAT     H290447   7.049   1.103   8.177
30069WAT      O90448   4.747   2.180   7.595
30069WAT     H190449   4.671   2.115   7.608
30069WAT     H290450   4.723   2.244   7.522
30070WAT      O90451   9.215   2.620   6.915
30070WAT     H190452   9.295   2.679   6.926
30070WAT     H290453   9.154   2.632   6.993
30071WAT      O90454   3.109   8.132   4.129
30071WAT     H190455   3.181   8.070   4.160
30071WAT     H290456   3.021   8.086   4.134
30072WAT      O90457   7.887   2.084   5.931
30072WAT     H190458   7.877   2.054   6.026
30072WAT     H290459   7.917   2.007   5.874
30073WAT      O90460   7.148   8.339   0.438
30073WAT     H190461   7.175   8.397   0.361
30073WAT     H290462   7.209   8.355   0.515
30074WAT      O90463   7.198   4.403   3.820
30074WAT     H190464   7.175   4.488   3.867
30074WAT     H290465   7.243   4.340   3.884
30075WAT      O90466   9.163   0.717   5.824
30075WAT     H190467   9.161   0.728   5.725
30075WAT     H290468   9.151   0.807   5.868
30076WAT      O90469   3.598   5.177   3.957
30076WAT     H190470   3.541   5.244   4.003
30076WAT     H290471   3.675   5.152   4.015
30077WAT      O90472   1.712   0.377   3.060
30077WAT     H190473   1.634   0.439   3.053
30077WAT     H290474   1.695   0.311   3.134
30078WAT      O90475   2.066   1.899   3.371
30078WAT     H190476   2.093   1.806   3.345
30078WAT     H290477   1.994   1.931   3.310
30079WAT      O90478   1.634   5.993   2.029
30079WAT     H190479   1.611   6.021   1.936
30079WAT     H290480   1.682   5.905   2.026
30080WAT      O90481   4.416   9.381   3.697
30080WAT     H190482   4.436   9.283   3.700
30080WAT     H290483   4.346   9.403   3.765
30081WAT      O90484   2.802   3.530   8.038
30081WAT     H190485   2.848   3.451   8.080
30081WAT     H290486   2.786   3.511   7.941
30082WAT      O90487   3.347   3.945   1.542
30082WAT     H190488   3.412   4.001   1.490
30082WAT     H290489   3.268   4.000   1.568
30083WAT      O90490   5.683   4.378   3.371
30083WAT     H190491   5.722   4.354   3.460
30083WAT     H290492   5.608   4.316   3.349
30084WAT      O90493   6.120   4.125   2.048
30084WAT     H190494   6.217   4.122   2.021
30084WAT     H290495   6.071   4.187   1.987
30085WAT      O90496   7.398   1.925   9.739
30085WAT     H190497   7.470   1.878   9.790
30085WAT     H290498   7.327   1.860   9.713
30086WAT      O90499   1.276   8.773   0.099
30086WAT     H190500   1.251   8.758   0.195
30086WAT     H290501   1.192   8.786   0.046
30087WAT      O90502   5.554   5.831   7.469
30087WAT     H190503   5.578   5.829   7.566
30087WAT     H290504   5.614   5.895   7.421
30088WAT      O90505   9.156   9.673   6.165
30088WAT     H190506   9.199   9.650   6.253
30088WAT     H290507   9.098   9.597   6.136
30089WAT      O90508   8.589   5.809   3.801
30089WAT     H190509   8.591   5.821   3.900
30089WAT     H290510   8.618   5.716   3.778
30090WAT      O90511   0.087   4.544   1.477
30090WAT     H190512   0.161   4.591   1.523
30090WAT     H290513   0.028   4.499   1.544
30091WAT      O90514   2.435   5.598   9.673
30091WAT     H190515   2.507   5.666   9.657
30091WAT     H290516   2.437   5.530   9.600
30092WAT      O90517   8.064   1.769   6.914
30092WAT     H190518   8.021   1.849   6.956
30092WAT     H290519   7.994   1.718   6.863
30093WAT      O90520   6.920   6.751   5.878
30093WAT     H190521   6.822   6.763   5.898
30093WAT     H290522   6.941   6.799   5.793
30094WAT      O90523   3.170   5.798   2.221
30094WAT     H190524   3.177   5.876   2.284
30094WAT     H290525   3.254   5.792   2.167
30095WAT      O90526   4.770   8.132   4.809
30095WAT     H190527   4.847   8.075   4.783
30095WAT     H290528   4.786   8.226   4.781
30096WAT      O90529   6.668   2.277   1.181
30096WAT     H190530   6.722   2.222   1.245
30096WAT     H290531   6.592   2.320   1.230
30097WAT      O90532   4.425   2.791   9.821
30097WAT     H190533   4.448   2.738   9.903
30097WAT     H290534   4.424   2.888   9.844
30098WAT      O90535   2.435   6.864   3.881
30098WAT     H190536   2.480   6.847   3.969
30098WAT     H290537   2.340   6.893   3.897
30099WAT      O90538   4.394   7.667   5.044
30099WAT     H190539   4.479   7.720   5.048
30099WAT     H290540   4.373   7.633   5.135
30100WAT      O90541   2.496   7.103   6.848
30100WAT     H190542   2.579   7.053   6.870
30100WAT     H290543   2.519   7.193   6.812
30101WAT      O90544   5.726   1.013   5.245
30101WAT     H190545   5.784   1.015   5.164
30101WAT     H290546   5.665   0.934   5.241
30102WAT      O90547   7.615   7.160   0.922
30102WAT     H190548   7.700   7.108   0.920
30102WAT     H290549   7.549   7.118   0.860
30103WAT      O90550   7.829   3.222   8.153
30103WAT     H190551   7.888   3.203   8.231
30103WAT     H290552   7.883   3.223   8.069
30104WAT      O90553   1.264   4.296   0.834
30104WAT     H190554   1.336   4.299   0.902
30104WAT     H290555   1.300   4.256   0.749
30105WAT      O90556   1.520   7.217   9.447
30105WAT     H190557   1.459   7.282   9.492
30105WAT     H290558   1.600   7.201   9.504
30106WAT      O90559   6.431   4.918   8.501
30106WAT     H190560   6.464   4.882   8.588
30106WAT     H290561   6.368   4.853   8.459
30107WAT      O90562   9.393   4.278   9.130
30107WAT     H190563   9.377   4.371   9.161
30107WAT     H290564   9.378   4.273   9.031
30108WAT      O90565   2.185   6.730   7.762
30108WAT     H190566   2.252   6.694   7.697
30108WAT     H290567   2.232   6.770   7.840
30109WAT      O90568   1.170   2.007   8.469
30109WAT     H190569   1.207   2.031   8.379
30109WAT     H290570   1.152   1.908   8.473
30110WAT      O90571   8.475   6.946   9.468
30110WAT     H190572   8.460   6.908   9.559
30110WAT     H290573   8.563   6.994   9.466
30111WAT      O90574   7.880   6.096   7.608
30111WAT     H190575   7.849   6.003   7.587
30111WAT     H290576   7.807   6.161   7.588
30112WAT      O90577   7.098   0.096   3.790
30112WAT     H190578   7.122   0.036   3.866
30112WAT     H290579   7.182   0.137   3.753
30113WAT      O90580   0.646   8.322   4.326
30113WAT     H190581   0.551   8.333   4.295
30113WAT     H290582   0.660   8.375   4.409
30114WAT      O90583   2.324   0.808   9.409
30114WAT     H190584   2.249   0.743   9.394
30114WAT     H290585   2.358   0.839   9.320
30115WAT      O90586   2.617   3.048   1.466
30115WAT     H190587   2.538   3.108   1.456
30115WAT     H290588   2.591   2.968   1.521
30116WAT      O90589   3.614   6.121   0.487
30116WAT     H190590   3.570   6.039   0.524
30116WAT     H290591   3.713   6.106   0.484
30117WAT      O90592   4.119   8.616   1.645
30117WAT     H190593   4.115   8.614   1.545
30117WAT     H290594   4.093   8.707   1.677
30118WAT      O90595   5.269   2.390   0.263
30118WAT     H190596   5.275   2.319   0.193
30118WAT     H290597   5.203   2.459   0.234
30119WAT      O90598   3.136   1.668   4.356
30119WAT     H190599   3.123   1.750   4.411
30119WAT     H290600   3.201   1.687   4.282
30120WAT      O90601   2.980   1.057   1.649
30120WAT     H190602   2.988   0.993   1.725
30120WAT     H290603   3.066   1.107   1.638
30121WAT      O90604   6.565   4.566   6.914
30121WAT     H190605   6.614   4.638   6.866
30121WAT     H290606   6.470   4.562   6.882
30122WAT      O90607   9.670   5.762   9.726
30122WAT     H190608   9.661   5.791   9.821
30122WAT     H290609   9.643   5.836   9.665
30123WAT      O90610   1.814   4.571   7.744
30123WAT     H190611   1.838   4.559   7.648
30123WAT     H290612   1.883   4.528   7.802
30124WAT      O90613   4.962   0.103   8.056
30124WAT     H190614   4.994   0.081   7.963
30124WAT     H290615   4.870   0.140   8.051
30125WAT      O90616   1.016   3.225   8.490
30125WAT     H190617   0.949   3.297   8.470
30125WAT     H290618   1.080   3.258   8.560
30126WAT      O90619   8.327   4.928   7.400
30126WAT     H190620   8.371   5.014   7.425
30126WAT     H290621   8.398   4.860   7.379
30127WAT      O90622   4.683   4.363   2.472
30127WAT     H190623   4.707   4.427   2.545
30127WAT     H290624   4.589   4.332   2.484
30128WAT      O90625   4.943   6.145   4.752
30128WAT     H190626   4.963   6.146   4.850
30128WAT     H290627   5.024   6.119   4.701
30129WAT      O90628   5.116   4.923   2.747
30129WAT     H190629   5.053   4.990   2.708
30129WAT     H290630   5.088   4.831   2.721
30130WAT      O90631   9.834   0.043   8.675
30130WAT     H190632   9.743   0.011   8.702
30130WAT     H290633   9.827   0.093   8.588
30131WAT      O90634   6.121   5.845   4.628
30131WAT     H190635   6.144   5.913   4.698
30131WAT     H290636   6.084   5.763   4.671
30132WAT      O90637   7.417   2.631   0.120
30132WAT     H190638   7.360   2.627   0.038
30132WAT     H290639   7.373   2.582   0.194
30133WAT      O90640   5.764   4.566   8.406
30133WAT     H190641   5.838   4.531   8.463
30133WAT     H290642   5.723   4.646   8.450
30134WAT      O90643   9.584   3.779   4.007
30134WAT     H190644   9.658   3.846   4.009
30134WAT     H290645   9.507   3.815   3.955
30135WAT      O90646   3.343   4.728   5.334
30135WAT     H190647   3.261   4.676   5.358
30135WAT     H290648   3.320   4.795   5.263
30136WAT      O90649   8.817   8.252   4.538
30136WAT     H190650   8.782   8.209   4.621
30136WAT     H290651   8.833   8.182   4.469
30137WAT      O90652   0.380   5.747   8.488
30137WAT     H190653   0.426   5.757   8.400
30137WAT     H290654   0.281   5.751   8.474
30138WAT      O90655   5.155   6.516   7.330
30138WAT     H190656   5.108   6.473   7.407
30138WAT     H290657   5.253   6.494   7.334
30139WAT      O90658   6.178   4.546   5.284
30139WAT     H190659   6.228   4.485   5.222
30139WAT     H290660   6.168   4.501   5.373
30140WAT      O90661   2.011   5.663   8.646
30140WAT     H190662   2.041   5.609   8.724
30140WAT     H290663   2.063   5.749   8.643
30141WAT      O90664   1.198   1.254   2.594
30141WAT     H190665   1.113   1.203   2.586
30141WAT     H290666   1.216   1.275   2.690
30142WAT      O90667   5.480   2.858   5.343
30142WAT     H190668   5.549   2.811   5.288
30142WAT     H290669   5.398   2.872   5.288
30143WAT      O90670   2.825   4.800   4.845
30143WAT     H190671   2.725   4.795   4.852
30143WAT     H290672   2.864   4.708   4.851
30144WAT      O90673   0.150   0.059   7.608
30144WAT     H190674   0.229   0.026   7.558
30144WAT     H290675   0.170   0.149   7.648
30145WAT      O90676   8.427   3.137   5.708
30145WAT     H190677   8.511   3.090   5.736
30145WAT     H290678   8.358   3.069   5.680
30146WAT      O90679   5.009   0.437   5.415
30146WAT     H190680   5.105   0.429   5.444
30146WAT     H290681   4.978   0.349   5.380
30147WAT      O90682   2.352   2.439   4.509
30147WAT     H190683   2.369   2.365   4.574
30147WAT     H290684   2.276   2.494   4.540
30148WAT      O90685   7.740   2.915   2.047
30148WAT     H190686   7.731   3.013   2.035
30148WAT     H290687   7.718   2.891   2.142
30149WAT      O90688   1.512   0.309   0.003
30149WAT     H190689   1.469   0.354  -0.075
30149WAT     H290690   1.503   0.367   0.084
30150WAT      O90691   2.980   0.164   4.812
30150WAT     H190692   2.914   0.233   4.841
30150WAT     H290693   2.947   0.119   4.729
30151WAT      O90694   2.056   3.645   2.688
30151WAT     H190695   2.153   3.668   2.688
30151WAT     H290696   2.012   3.684   2.607
30152WAT      O90697   7.258   4.991   9.336
30152WAT     H190698   7.259   4.897   9.370
30152WAT     H290699   7.188   5.043   9.385
30153WAT      O90700   9.696   2.891   0.850
30153WAT     H190701   9.763   2.859   0.917
30153WAT     H290702   9.605   2.862   0.879
30154WAT      O90703   6.654   9.438   0.854
30154WAT     H190704   6.582   9.417   0.789
30154WAT     H290705   6.705   9.355   0.876
30155WAT      O90706   9.703   0.609   6.007
30155WAT     H190707   9.726   0.644   5.916
30155WAT     H290708   9.606   0.586   6.010
30156WAT      O90709   1.411   1.276   5.763
30156WAT     H190710   1.415   1.347   5.693
30156WAT     H290711   1.441   1.189   5.724
30157WAT      O90712   6.145   2.550   2.718
30157WAT     H190713   6.150   2.502   2.630
30157WAT     H290714   6.149   2.649   2.702
30158WAT      O90715   8.167   2.023   3.594
30158WAT     H190716   8.115   2.108   3.605
30158WAT     H290717   8.249   2.026   3.651
30159WAT      O90718   7.817   9.600   2.588
30159WAT     H190719   7.762   9.683   2.578
30159WAT     H290720   7.785   9.549   2.668
30160WAT      O90721   7.502   0.097   7.187
30160WAT     H190722   7.521   0.188   7.225
30160WAT     H290723   7.586   0.058   7.150
30161WAT      O90724   0.223   5.194   7.992
30161WAT     H190725   0.168   5.118   7.957
30161WAT     H290726   0.310   5.197   7.943
30162WAT      O90727   5.697   7.079   2.111
30162WAT     H190728   5.608   7.112   2.142
30162WAT     H290729   5.736   7.017   2.179
30163WAT      O90730   9.609   7.236   5.235
30163WAT     H190731   9.703   7.269   5.235
30163WAT     H290732   9.548   7.312   5.259
30164WAT      O90733   1.035   7.395   9.648
30164WAT     H190734   1.023   7.430   9.740
30164WAT     H290735   0.972   7.442   9.586
30165WAT      O90736   4.031   9.117   8.307
30165WAT     H190737   4.063   9.134   8.214
30165WAT     H290738   4.038   9.019   8.328
30166WAT      O90739   9.472   6.961   3.893
30166WAT     H190740   9.372   6.961   3.886
30166WAT     H290741   9.500   6.900   3.967
30167WAT      O90742   3.215   9.527   4.391
30167WAT     H190743   3.291   9.535   4.455
30167WAT     H290744   3.130   9.554   4.436
30168WAT      O90745   5.435   7.060   1.603
30168WAT     H190746   5.504   7.080   1.535
30168WAT     H290747   5.479   7.028   1.687
30169WAT      O90748   5.511   7.892   9.247
30169WAT     H190749   5.452   7.886   9.167
30169WAT     H290750   5.605   7.909   9.218
30170WAT      O90751   9.457   9.165   1.361
30170WAT     H190752   9.366   9.179   1.400
30170WAT     H290753   9.525   9.169   1.435
30171WAT      O90754   7.819   1.330   6.278
30171WAT     H190755   7.740   1.292   6.326
30171WAT     H290756   7.883   1.369   6.344
30172WAT      O90757   0.654   5.302   8.240
30172WAT     H190758   0.754   5.296   8.246
30172WAT     H290759   0.614   5.283   8.329
30173WAT      O90760   5.788   4.541   4.094
30173WAT     H190761   5.727   4.508   4.166
30173WAT     H290762   5.763   4.634   4.068
30174WAT      O90763   1.421   8.003   9.640
30174WAT     H190764   1.426   8.094   9.600
30174WAT     H290765   1.400   8.009   9.737
30175WAT      O90766   8.719   6.521   0.761
30175WAT     H190767   8.744   6.459   0.687
30175WAT     H290768   8.648   6.478   0.818
30176WAT      O90769   8.735   9.508   9.854
30176WAT     H190770   8.686   9.548   9.777
30176WAT     H290771   8.730   9.408   9.848
30177WAT      O90772   0.321   2.613   6.596
30177WAT     H190773   0.387   2.666   6.544
30177WAT     H290774   0.294   2.532   6.543
30178WAT      O90775   1.362   0.437   9.668
30178WAT     H190776   1.420   0.425   9.587
30178WAT     H290777   1.358   0.534   9.692
30179WAT      O90778   0.645   5.040   7.323
30179WAT     H190779   0.590   4.971   7.370
30179WAT     H290780   0.732   5.052   7.371
30180WAT      O90781   1.256   9.035   3.088
30180WAT     H190782   1.184   9.026   3.157
30180WAT     H290783   1.342   9.000   3.124
30181WAT      O90784   9.666   3.328   5.003
30181WAT     H190785   9.663   3.304   5.100
30181WAT     H290786   9.761   3.336   4.973
30182WAT      O90787   7.061   2.605   4.985
30182WAT     H190788   7.080   2.560   4.898
30182WAT     H290789   7.141   2.657   5.014
30183WAT      O90790   8.902   1.541   7.119
30183WAT     H190791   8.836   1.482   7.072
30183WAT     H290792   8.853   1.611   7.171
30184WAT      O90793   6.802   1.060   9.863
30184WAT     H190794   6.876   1.050   9.930
30184WAT     H290795   6.715   1.033   9.904
30185WAT      O90796   5.297   0.301   0.107
30185WAT     H190797   5.245   0.367   0.161
30185WAT     H290798   5.267   0.305   0.011
30186WAT      O90799   3.271   9.749   3.771
30186WAT     H190800   3.354   9.704   3.740
30186WAT     H290801   3.220   9.687   3.831
30187WAT      O90802   4.060   6.218   6.735
30187WAT     H190803   4.059   6.275   6.653
30187WAT     H290804   3.992   6.252   6.800
30188WAT      O90805   4.122   9.339   2.838
30188WAT     H190806   4.144   9.365   2.744
30188WAT     H290807   4.176   9.394   2.902
30189WAT      O90808   7.687   7.942   9.495
30189WAT     H190809   7.770   7.997   9.489
30189WAT     H290810   7.631   7.974   9.571
30190WAT      O90811   2.364   0.672   4.996
30190WAT     H190812   2.297   0.690   5.069
30190WAT     H290813   2.419   0.754   4.980
30191WAT      O90814   6.935   5.825   4.854
30191WAT     H190815   6.929   5.732   4.891
30191WAT     H290816   6.843   5.863   4.843
30192WAT      O90817   9.404   0.169   8.649
30192WAT     H190818   9.443   0.223   8.574
30192WAT     H290819   9.416   0.218   8.735
30193WAT      O90820   7.052   9.759   3.354
30193WAT     H190821   7.026   9.769   3.258
30193WAT     H290822   7.114   9.682   3.364
30194WAT      O90823   1.635   7.879   2.566
30194WAT     H190824   1.695   7.949   2.604
30194WAT     H290825   1.558   7.864   2.628
30195WAT      O90826   6.360   0.451   4.973
30195WAT     H190827   6.368   0.436   4.875
30195WAT     H290828   6.424   0.522   5.002
30196WAT      O90829   3.495   0.068   9.145
30196WAT     H190830   3.447  -0.002   9.092
30196WAT     H290831   3.584   0.087   9.103
30197WAT      O90832   7.907   1.015   3.368
30197WAT     H190833   7.928   0.927   3.326
30197WAT     H290834   7.811   1.037   3.353
30198WAT      O90835   2.565   0.606   0.678
30198WAT     H190836   2.507   0.605   0.597
30198WAT     H290837   2.656   0.571   0.654
30199WAT      O90838   4.988   8.092   1.943
30199WAT     H190839   4.910   8.129   1.994
30199WAT     H290840   5.040   8.168   1.903
30200WAT      O90841   3.497   8.186   8.736
30200WAT     H190842   3.543   8.271   8.761
30200WAT     H290843   3.405   8.185   8.775
30201WAT      O90844   8.067   1.921   5.095
30201WAT     H190845   8.163   1.925   5.120
30201WAT     H290846   8.056   1.950   5.000
30202WAT      O90847   1.475   6.387   7.405
30202WAT     H190848   1.531   6.406   7.486
30202WAT     H290849   1.379   6.406   7.426
30203WAT      O90850   5.145   2.698   2.597
30203WAT     H190851   5.191   2.724   2.682
30203WAT     H290852   5.104   2.779   2.555
30204WAT      O90853   5.040   5.666   0.009
30204WAT     H190854   5.117   5.701   0.062
30204WAT     H290855   5.024   5.725  -0.070
30205WAT      O90856   7.168   2.739   3.350
30205WAT     H190857   7.182   2.650   3.394
30205WAT     H290858   7.244   2.800   3.372
30206WAT      O90859   3.072   4.558   4.088
30206WAT     H190860   2.989   4.557   4.144
30206WAT     H290861   3.138   4.623   4.128
30207WAT      O90862   7.420   8.568   8.098
30207WAT     H190863   7.438   8.666   8.099
30207WAT     H290864   7.343   8.547   8.157
30208WAT      O90865   4.459   1.058   2.256
30208WAT     H190866   4.432   1.146   2.216
30208WAT     H290867   4.412   0.984   2.208
30209WAT      O90868   8.526   3.968   6.212
30209WAT     H190869   8.583   3.987   6.291
30209WAT     H290870   8.505   4.054   6.164
30210WAT      O90871   4.405   9.814   4.472
30210WAT     H190872   4.481   9.855   4.421
30210WAT     H290873   4.441   9.748   4.537
30211WAT      O90874   5.586   8.976   5.102
30211WAT     H190875   5.640   8.951   5.022
30211WAT     H290876   5.546   9.066   5.088
30212WAT      O90877   5.245   7.470   7.715
30212WAT     H190878   5.312   7.404   7.748
30212WAT     H290879   5.286   7.562   7.715
30213WAT      O90880   1.412   2.448   4.361
30213WAT     H190881   1.446   2.539   4.333
30213WAT     H290882   1.384   2.397   4.280
30214WAT      O90883   5.211   3.194   1.581
30214WAT     H190884   5.278   3.124   1.557
30214WAT     H290885   5.126   3.177   1.530
30215WAT      O90886   7.531   1.866   0.276
30215WAT     H190887   7.600   1.794   0.277
30215WAT     H290888   7.567   1.947   0.230
30216WAT      O90889   5.706   9.837   1.638
30216WAT     H190890   5.778   9.806   1.576
30216WAT     H290891   5.663   9.919   1.601
30217WAT      O90892   9.108   2.502   8.391
30217WAT     H190893   9.204   2.490   8.364
30217WAT     H290894   9.049   2.482   8.313
30218WAT      O90895   9.070   2.727   8.779
30218WAT     H190896   9.059   2.743   8.681
30218WAT     H290897   9.124   2.644   8.793
30219WAT      O90898   4.654   1.470   8.012
30219WAT     H190899   4.629   1.552   7.961
30219WAT     H290900   4.753   1.470   8.027
30220WAT      O90901   4.044   8.303   3.311
30220WAT     H190902   4.113   8.230   3.311
30220WAT     H290903   4.045   8.350   3.399
30221WAT      O90904   0.319   5.577   8.710
30221WAT     H190905   0.356   5.647   8.648
30221WAT     H290906   0.226   5.602   8.735
30222WAT      O90907   1.744   7.789   0.721
30222WAT     H190908   1.761   7.846   0.641
30222WAT     H290909   1.719   7.847   0.799
30223WAT      O90910   0.343   3.390   2.362
30223WAT     H190911   0.418   3.404   2.297
30223WAT     H290912   0.342   3.466   2.427
30224WAT      O90913   7.254   3.405   5.766
30224WAT     H190914   7.349   3.393   5.737
30224WAT     H290915   7.229   3.501   5.760
30225WAT      O90916   1.147   7.370   4.209
30225WAT     H190917   1.098   7.453   4.184
30225WAT     H290918   1.223   7.392   4.269
30226WAT      O90919   4.483   8.964   6.154
30226WAT     H190920   4.525   9.028   6.090
30226WAT     H290921   4.530   8.876   6.149
30227WAT      O90922   5.064   1.975   3.470
30227WAT     H190923   5.089   1.881   3.444
30227WAT     H290924   5.016   1.973   3.557
30228WAT      O90925   7.874   2.504   7.620
30228WAT     H190926   7.969   2.521   7.592
30228WAT     H290927   7.812   2.536   7.549
30229WAT      O90928   0.112   4.788   9.382
30229WAT     H190929   0.133   4.875   9.428
30229WAT     H290930   0.055   4.732   9.442
30230WAT      O90931   6.193   8.441   9.375
30230WAT     H190932   6.289   8.429   9.349
30230WAT     H290933   6.154   8.352   9.398
30231WAT      O90934   0.372   6.453   1.603
30231WAT     H190935   0.444   6.495   1.658
30231WAT     H290936   0.293   6.514   1.599
30232WAT      O90937   9.741   4.810   4.519
30232WAT     H190938   9.723   4.882   4.585
30232WAT     H290939   9.840   4.799   4.507
30233WAT      O90940   8.115   5.286   8.384
30233WAT     H190941   8.036   5.343   8.404
30233WAT     H290942   8.175   5.332   8.319
30234WAT      O90943   0.305   1.316   4.769
30234WAT     H190944   0.397   1.353   4.781
30234WAT     H290945   0.244   1.388   4.736
30235WAT      O90946   7.240   6.966   6.004
30235WAT     H190947   7.334   6.952   6.036
30235WAT     H290948   7.177   6.946   6.079
30236WAT      O90949   9.294   9.077   7.297
30236WAT     H190950   9.261   9.061   7.390
30236WAT     H290951   9.271   8.998   7.240
30237WAT      O90952   1.480   9.321   4.790
30237WAT     H190953   1.566   9.271   4.791
30237WAT     H290954   1.437   9.315   4.880
30238WAT      O90955   5.270   8.344   9.837
30238WAT     H190956   5.246   8.253   9.803
30238WAT     H290957   5.266   8.344   9.937
30239WAT      O90958   0.962   4.417   0.121
30239WAT     H190959   1.000   4.510   0.121
30239WAT     H290960   1.036   4.351   0.135
30240WAT      O90961   6.425   7.342   2.453
30240WAT     H190962   6.467   7.404   2.387
30240WAT     H290963   6.334   7.376   2.477
30241WAT      O90964   3.978   2.127   3.011
30241WAT     H190965   4.065   2.168   3.037
30241WAT     H290966   3.932   2.185   2.944
30242WAT      O90967   0.617   1.374   5.945
30242WAT     H190968   0.575   1.445   5.888
30242WAT     H290969   0.548   1.333   6.003
30243WAT      O90970   3.085   6.552   2.610
30243WAT     H190971   3.020   6.529   2.538
30243WAT     H290972   3.047   6.623   2.669
30244WAT      O90973   7.991   2.457   9.359
30244WAT     H190974   7.965   2.540   9.308
30244WAT     H290975   7.971   2.470   9.456
30245WAT      O90976   2.075   8.158   6.041
30245WAT     H190977   2.004   8.117   6.097
30245WAT     H290978   2.143   8.201   6.099
30246WAT      O90979   0.156   1.567   8.575
30246WAT     H190980   0.143   1.563   8.674
30246WAT     H290981   0.129   1.479   8.534
30247WAT      O90982   1.064   1.865   2.815
30247WAT     H190983   0.996   1.850   2.743
30247WAT     H290984   1.017   1.879   2.902
30248WAT      O90985   3.774   9.187   1.517
30248WAT     H190986   3.825   9.273   1.516
30248WAT     H290987   3.678   9.205   1.536
30249WAT      O90988   5.043   1.333   5.052
30249WAT     H190989   5.129   1.357   5.097
30249WAT     H290990   5.002   1.254   5.098
30250WAT      O90991   9.721   6.131   7.700
30250WAT     H190992   9.785   6.132   7.623
30250WAT     H290993   9.639   6.081   7.674
30251WAT      O90994   0.420   1.666   6.352
30251WAT     H190995   0.338   1.683   6.407
30251WAT     H290996   0.396   1.667   6.255
30252WAT      O90997   1.495   1.482   2.632
30252WAT     H190998   1.528   1.400   2.585
30252WAT     H290999   1.435   1.455   2.707
30253WAT      O91000   2.581   6.840   8.788
30253WAT     H191001   2.593   6.835   8.887
30253WAT     H291002   2.487   6.814   8.764
30254WAT      O91003   5.584   3.713   1.339
30254WAT     H191004   5.617   3.737   1.248
30254WAT     H291005   5.654   3.660   1.387
30255WAT      O91006   8.891   8.291   4.227
30255WAT     H191007   8.864   8.369   4.171
30255WAT     H291008   8.968   8.317   4.286
30256WAT      O91009   8.081   2.709   2.277
30256WAT     H191010   8.077   2.749   2.185
30256WAT     H291011   8.176   2.685   2.298
30257WAT      O91012   7.418   5.148   3.851
30257WAT     H191013   7.320   5.167   3.859
30257WAT     H291014   7.455   5.199   3.773
30258WAT      O91015   2.435   6.802   3.227
30258WAT     H191016   2.366   6.841   3.289
30258WAT     H291017   2.506   6.871   3.209
30259WAT      O91018   0.874   4.387   4.084
30259WAT     H191019   0.781   4.416   4.107
30259WAT     H291020   0.871   4.326   4.004
30260WAT      O91021   7.291   1.092   1.931
30260WAT     H191022   7.334   1.179   1.910
30260WAT     H291023   7.359   1.030   1.972
30261WAT      O91024   0.812   9.308   4.315
30261WAT     H191025   0.760   9.393   4.311
30261WAT     H291026   0.908   9.326   4.293
30262WAT      O91027   8.169   6.406   7.637
30262WAT     H191028   8.082   6.421   7.685
30262WAT     H291029   8.235   6.364   7.700
30263WAT      O91030   4.339   9.081   4.070
30263WAT     H191031   4.362   8.984   4.061
30263WAT     H291032   4.363   9.129   3.985
30264WAT      O91033   3.208   5.959   6.126
30264WAT     H191034   3.210   5.877   6.070
30264WAT     H291035   3.228   5.936   6.221
30265WAT      O91036   5.826   8.297   3.943
30265WAT     H191037   5.885   8.219   3.922
30265WAT     H291038   5.769   8.318   3.863
30266WAT      O91039   0.298   7.095   6.626
30266WAT     H191040   0.289   7.178   6.681
30266WAT     H291041   0.391   7.090   6.588
30267WAT      O91042   9.668   3.525   9.699
30267WAT     H191043   9.605   3.583   9.751
30267WAT     H291044   9.642   3.429   9.709
30268WAT      O91045   7.987   6.794   0.208
30268WAT     H191046   7.903   6.766   0.256
30268WAT     H291047   7.994   6.744   0.122
30269WAT      O91048   8.317   3.573   6.120
30269WAT     H191049   8.370   3.628   6.185
30269WAT     H291050   8.364   3.571   6.032
30270WAT      O91051   8.648   3.858   9.445
30270WAT     H191052   8.676   3.833   9.538
30270WAT     H291053   8.700   3.803   9.380
30271WAT      O91054   8.439   7.250   3.889
30271WAT     H191055   8.376   7.287   3.958
30271WAT     H291056   8.438   7.310   3.809
30272WAT      O91057   2.723   8.912   7.697
30272WAT     H191058   2.718   8.816   7.722
30272WAT     H291059   2.789   8.959   7.756
30273WAT      O91060   4.887   0.140   3.739
30273WAT     H191061   4.959   0.103   3.798
30273WAT     H291062   4.835   0.210   3.789
30274WAT      O91063   5.921   8.314   1.260
30274WAT     H191064   6.006   8.279   1.221
30274WAT     H291065   5.942   8.375   1.336
30275WAT      O91066   0.178   5.845   8.927
30275WAT     H191067   0.228   5.928   8.904
30275WAT     H291068   0.090   5.869   8.969
30276WAT      O91069   0.520   1.598   0.299
30276WAT     H191070   0.446   1.600   0.232
30276WAT     H291071   0.585   1.671   0.279
30277WAT      O91072   1.147   1.322   6.357
30277WAT     H191073   1.129   1.416   6.385
30277WAT     H291074   1.074   1.263   6.393
30278WAT      O91075   5.510   4.777   9.470
30278WAT     H191076   5.545   4.780   9.377
30278WAT     H291077   5.460   4.692   9.484
30279WAT      O91078   6.210   5.985   8.226
30279WAT     H191079   6.135   5.956   8.285
30279WAT     H291080   6.175   6.048   8.157
30280WAT      O91081   5.875   4.628   4.566
30280WAT     H191082   5.857   4.542   4.613
30280WAT     H291083   5.802   4.693   4.588
30281WAT      O91084   9.256   9.212   9.647
30281WAT     H191085   9.197   9.134   9.627
30281WAT     H291086   9.349   9.180   9.663
30282WAT      O91087   9.275   8.528   7.526
30282WAT     H191088   9.351   8.465   7.543
30282WAT     H291089   9.310   8.621   7.516
30283WAT      O91090   6.875   3.371   4.420
30283WAT     H191091   6.805   3.331   4.361
30283WAT     H291092   6.836   3.446   4.473
30284WAT      O91093   6.714   7.413   0.926
30284WAT     H191094   6.617   7.414   0.904
30284WAT     H291095   6.735   7.487   0.990
30285WAT      O91096   4.755   0.181   3.318
30285WAT     H191097   4.719   0.090   3.339
30285WAT     H291098   4.846   0.191   3.358
30286WAT      O91099   4.132   2.551   3.664
30286WAT     H191100   4.182   2.469   3.636
30286WAT     H291101   4.035   2.528   3.676
30287WAT      O91102   5.440   0.697   6.165
30287WAT     H191103   5.386   0.744   6.095
30287WAT     H291104   5.536   0.723   6.157
30288WAT      O91105   4.572   6.627   8.887
30288WAT     H191106   4.492   6.651   8.942
30288WAT     H291107   4.550   6.638   8.790
30289WAT      O91108   4.122   6.522   7.681
30289WAT     H191109   4.200   6.521   7.743
30289WAT     H291110   4.148   6.478   7.594
30290WAT      O91111   8.279   7.909   8.533
30290WAT     H191112   8.216   7.848   8.483
30290WAT     H291113   8.260   7.902   8.631
30291WAT      O91114   5.163   6.227   9.684
30291WAT     H191115   5.074   6.246   9.642
30291WAT     H291116   5.230   6.295   9.652
30292WAT      O91117   3.610   0.296   0.216
30292WAT     H191118   3.563   0.216   0.253
30292WAT     H291119   3.709   0.286   0.228
30293WAT      O91120   8.877   5.349   4.464
30293WAT     H191121   8.801   5.344   4.399
30293WAT     H291122   8.842   5.374   4.554
30294WAT      O91123   0.979   4.690   5.666
30294WAT     H191124   1.010   4.638   5.586
30294WAT     H291125   1.050   4.689   5.736
30295WAT      O91126   9.443   1.855   7.768
30295WAT     H191127   9.470   1.762   7.793
30295WAT     H291128   9.493   1.884   7.687
30296WAT      O91129   2.549   6.569   6.207
30296WAT     H191130   2.541   6.663   6.241
30296WAT     H291131   2.602   6.515   6.272
30297WAT      O91132   6.423   0.198   6.907
30297WAT     H191133   6.351   0.224   6.971
30297WAT     H291134   6.391   0.122   6.849
30298WAT      O91135   5.340   3.715   1.233
30298WAT     H191136   5.307   3.639   1.177
30298WAT     H291137   5.427   3.691   1.275
30299WAT      O91138   1.483   4.413   9.819
30299WAT     H191139   1.480   4.447   9.725
30299WAT     H291140   1.464   4.315   9.819
30300WAT      O91141   8.438   7.457   3.135
30300WAT     H191142   8.474   7.545   3.106
30300WAT     H291143   8.498   7.384   3.101
30301WAT      O91144   1.228   5.284   8.077
30301WAT     H191145   1.248   5.359   8.014
30301WAT     H291146   1.131   5.285   8.100
30302WAT      O91147   8.132   8.609   1.893
30302WAT     H191148   8.149   8.623   1.991
30302WAT     H291149   8.105   8.695   1.851
30303WAT      O91150   8.718   6.673   5.737
30303WAT     H191151   8.749   6.720   5.820
30303WAT     H291152   8.678   6.739   5.674
30304WAT      O91153   9.593   6.215   9.156
30304WAT     H191154   9.670   6.208   9.092
30304WAT     H291155   9.559   6.308   9.157
30305WAT      O91156   1.829   3.259   3.705
30305WAT     H191157   1.742   3.211   3.718
30305WAT     H291158   1.834   3.293   3.611
30306WAT      O91159   6.621   2.115   1.568
30306WAT     H191160   6.699   2.099   1.507
30306WAT     H291161   6.572   2.029   1.584
30307WAT      O91162   5.184   7.508   0.818
30307WAT     H191163   5.209   7.601   0.791
30307WAT     H291164   5.218   7.443   0.749
30308WAT      O91165   4.843   2.870   8.506
30308WAT     H191166   4.930   2.836   8.541
30308WAT     H291167   4.844   2.867   8.406
30309WAT      O91168   0.835   6.878   5.917
30309WAT     H191169   0.820   6.954   5.854
30309WAT     H291170   0.894   6.810   5.872
30310WAT      O91171   3.397   4.549   2.443
30310WAT     H191172   3.374   4.469   2.387
30310WAT     H291173   3.481   4.590   2.408
30311WAT      O91174   9.403   4.469   4.389
30311WAT     H191175   9.464   4.541   4.356
30311WAT     H291176   9.320   4.510   4.426
30312WAT      O91177   5.144   2.456   1.439
30312WAT     H191178   5.190   2.374   1.405
30312WAT     H291179   5.045   2.446   1.429
30313WAT      O91180   2.368   2.231   7.629
30313WAT     H191181   2.304   2.156   7.647
30313WAT     H291182   2.380   2.285   7.712
30314WAT      O91183   1.380   0.195   2.800
30314WAT     H191184   1.306   0.248   2.842
30314WAT     H291185   1.348   0.157   2.713
30315WAT      O91186   9.656   0.537   4.994
30315WAT     H191187   9.599   0.470   4.946
30315WAT     H291188   9.600   0.587   5.061
30316WAT      O91189   6.491   9.306   9.721
30316WAT     H191190   6.442   9.336   9.639
30316WAT     H291191   6.484   9.375   9.793
30317WAT      O91192   4.597   7.179   8.557
30317WAT     H191193   4.630   7.257   8.503
30317WAT     H291194   4.633   7.185   8.650
30318WAT      O91195   8.394   6.419   8.478
30318WAT     H191196   8.425   6.390   8.387
30318WAT     H291197   8.313   6.367   8.504
30319WAT      O91198   7.403   6.190   6.320
30319WAT     H191199   7.461   6.226   6.247
30319WAT     H291200   7.424   6.093   6.335
30320WAT      O91201   9.776   3.028   0.114
30320WAT     H191202   9.869   3.039   0.078
30320WAT     H291203   9.767   2.938   0.156
30321WAT      O91204   2.309   6.765   2.282
30321WAT     H191205   2.367   6.720   2.350
30321WAT     H291206   2.366   6.810   2.213
30322WAT      O91207   8.020   8.566   0.169
30322WAT     H191208   8.112   8.531   0.151
30322WAT     H291209   7.956   8.526   0.104
30323WAT      O91210   9.463   6.499   7.122
30323WAT     H191211   9.495   6.593   7.131
30323WAT     H291212   9.485   6.448   7.205
30324WAT      O91213   7.142   3.685   0.395
30324WAT     H191214   7.212   3.616   0.413
30324WAT     H291215   7.095   3.664   0.309
30325WAT      O91216   9.860   4.121   3.493
30325WAT     H191217   9.833   4.212   3.461
30325WAT     H291218   9.798   4.052   3.454
30326WAT      O91219   1.332   1.828   9.479
30326WAT     H191220   1.372   1.895   9.416
30326WAT     H291221   1.338   1.737   9.439
30327WAT      O91222   9.664   5.399   2.804
30327WAT     H191223   9.640   5.312   2.847
30327WAT     H291224   9.748   5.434   2.845
30328WAT      O91225   9.865   9.395   0.288
30328WAT     H191226   9.890   9.403   0.384
30328WAT     H291227   9.787   9.334   0.278
30329WAT      O91228   7.659   8.591   7.931
30329WAT     H191229   7.569   8.565   7.965
30329WAT     H291230   7.658   8.686   7.902
30330WAT      O91231   7.231   7.992   7.562
30330WAT     H191232   7.331   7.998   7.552
30330WAT     H291233   7.208   7.910   7.614
30331WAT      O91234   3.561   0.560   4.735
30331WAT     H191235   3.594   0.531   4.646
30331WAT     H291236   3.560   0.660   4.739
30332WAT      O91237   3.912   8.195   9.067
30332WAT     H191238   3.923   8.099   9.043
30332WAT     H291239   3.965   8.252   9.003
30333WAT      O91240   1.627   0.089   2.266
30333WAT     H191241   1.648   0.052   2.357
30333WAT     H291242   1.703   0.068   2.204
30334WAT      O91243   2.101   2.745   7.444
30334WAT     H191244   2.054   2.689   7.512
30334WAT     H291245   2.076   2.714   7.352
30335WAT      O91246   5.452   8.487   0.241
30335WAT     H191247   5.406   8.403   0.212
30335WAT     H291248   5.424   8.563   0.182
30336WAT      O91249   8.091   0.685   5.623
30336WAT     H191250   8.159   0.621   5.587
30336WAT     H291251   8.026   0.708   5.551
30337WAT      O91252   7.879   2.737   2.458
30337WAT     H191253   7.849   2.645   2.480
30337WAT     H291254   7.961   2.733   2.400
30338WAT      O91255   8.197   9.173   4.639
30338WAT     H191256   8.211   9.248   4.704
30338WAT     H291257   8.138   9.206   4.564
30339WAT      O91258   5.654   8.682   3.882
30339WAT     H191259   5.628   8.691   3.978
30339WAT     H291260   5.583   8.633   3.832
30340WAT      O91261   3.735   6.193   5.220
30340WAT     H191262   3.690   6.263   5.163
30340WAT     H291263   3.768   6.119   5.162
30341WAT      O91264   6.661   1.818   0.660
30341WAT     H191265   6.709   1.863   0.736
30341WAT     H291266   6.574   1.864   0.644
30342WAT      O91267   6.610   9.345   3.483
30342WAT     H191268   6.643   9.258   3.446
30342WAT     H291269   6.529   9.375   3.432
30343WAT      O91270   3.401   1.761   6.882
30343WAT     H191271   3.444   1.720   6.963
30343WAT     H291272   3.433   1.714   6.800
30344WAT      O91273   4.234   7.478   1.064
30344WAT     H191274   4.154   7.538   1.066
30344WAT     H291275   4.230   7.420   0.983
30345WAT      O91276   5.973   8.112   7.256
30345WAT     H191277   5.886   8.158   7.240
30345WAT     H291278   6.037   8.134   7.182
30346WAT      O91279   3.609   7.367   8.814
30346WAT     H191280   3.605   7.440   8.745
30346WAT     H291281   3.520   7.359   8.858
30347WAT      O91282   5.101   6.071   3.306
30347WAT     H191283   5.005   6.085   3.282
30347WAT     H291284   5.141   6.159   3.333
30348WAT      O91285   4.973   7.870   7.902
30348WAT     H191286   5.026   7.923   7.836
30348WAT     H291287   4.876   7.878   7.881
30349WAT      O91288   6.576   3.526   9.145
30349WAT     H191289   6.631   3.458   9.194
30349WAT     H291290   6.629   3.562   9.068
30350WAT      O91291   8.367   9.432   8.081
30350WAT     H191292   8.442   9.366   8.085
30350WAT     H291293   8.355   9.464   7.987
30351WAT      O91294   8.754   2.695   5.118
30351WAT     H191295   8.805   2.753   5.182
30351WAT     H291296   8.705   2.625   5.170
30352WAT      O91297   8.016   0.949   3.600
30352WAT     H191298   7.962   0.982   3.523
30352WAT     H291299   7.983   0.991   3.684
30353WAT      O91300   3.718   2.193   8.260
30353WAT     H191301   3.805   2.239   8.240
30353WAT     H291302   3.727   2.095   8.246
30354WAT      O91303   5.361   4.473   9.864
30354WAT     H191304   5.293   4.450   9.794
30354WAT     H291305   5.444   4.419   9.848
30355WAT      O91306   5.954   6.594   4.865
30355WAT     H191307   5.943   6.682   4.820
30355WAT     H291308   5.942   6.605   4.964
30356WAT      O91309   3.591   9.036   8.520
30356WAT     H191310   3.530   8.962   8.550
30356WAT     H291311   3.674   9.036   8.576
30357WAT      O91312   9.043   6.151   7.501
30357WAT     H191313   9.060   6.198   7.415
30357WAT     H291314   9.037   6.219   7.575
30358WAT      O91315   7.199   1.894   5.043
30358WAT     H191316   7.215   1.953   5.122
30358WAT     H291317   7.277   1.900   4.981
30359WAT      O91318   7.972   3.677   8.351
30359WAT     H191319   7.940   3.683   8.445
30359WAT     H291320   7.904   3.718   8.290
30360WAT      O91321   6.880   1.643   9.323
30360WAT     H191322   6.944   1.576   9.286
30360WAT     H291323   6.919   1.686   9.405
30361WAT      O91324   9.064   7.172   9.386
30361WAT     H191325   9.019   7.153   9.299
30361WAT     H291326   9.046   7.266   9.414
30362WAT      O91327   6.676   7.744   7.405
30362WAT     H191328   6.772   7.720   7.400
30362WAT     H291329   6.659   7.796   7.489
30363WAT      O91330   8.366   9.459   4.486
30363WAT     H191331   8.354   9.386   4.418
30363WAT     H291332   8.428   9.528   4.450
30364WAT      O91333   7.977   7.974   7.624
30364WAT     H191334   8.042   8.014   7.560
30364WAT     H291335   8.027   7.935   7.702
30365WAT      O91336   6.682   9.728   3.677
30365WAT     H191337   6.722   9.762   3.762
30365WAT     H291338   6.730   9.769   3.599
30366WAT      O91339   6.294   8.802   3.970
30366WAT     H191340   6.336   8.887   3.939
30366WAT     H291341   6.365   8.740   4.003
30367WAT      O91342   3.315   1.184   0.326
30367WAT     H191343   3.273   1.273   0.309
30367WAT     H291344   3.400   1.196   0.378
30368WAT      O91345   8.103   3.848   0.661
30368WAT     H191346   8.117   3.751   0.683
30368WAT     H291347   8.028   3.857   0.596
30369WAT      O91348   5.400   1.395   5.842
30369WAT     H191349   5.401   1.302   5.806
30369WAT     H291350   5.372   1.394   5.938
30370WAT      O91351   3.850   8.561   3.560
30370WAT     H191352   3.928   8.502   3.581
30370WAT     H291353   3.809   8.532   3.473
30371WAT      O91354   9.203   3.119   8.235
30371WAT     H191355   9.197   3.026   8.199
30371WAT     H291356   9.296   3.154   8.222
30372WAT      O91357   6.172   3.992   7.401
30372WAT     H191358   6.147   3.895   7.399
30372WAT     H291359   6.250   4.007   7.339
30373WAT      O91360   6.445   2.397   6.482
30373WAT     H191361   6.542   2.421   6.481
30373WAT     H291362   6.433   2.304   6.517
30374WAT      O91363   3.184   2.324   3.007
30374WAT     H191364   3.247   2.371   2.945
30374WAT     H291365   3.132   2.391   3.060
30375WAT      O91366   6.241   2.477   4.319
30375WAT     H191367   6.191   2.475   4.233
30375WAT     H291368   6.219   2.561   4.369
30376WAT      O91369   1.723   3.248   9.001
30376WAT     H191370   1.783   3.310   8.950
30376WAT     H291371   1.762   3.230   9.091
30377WAT      O91372   0.578   9.552   3.710
30377WAT     H191373   0.521   9.614   3.656
30377WAT     H291374   0.668   9.592   3.725
30378WAT      O91375   9.809   3.443   2.894
30378WAT     H191376   9.810   3.532   2.849
30378WAT     H291377   9.796   3.372   2.825
30379WAT      O91378   1.053   3.947   3.232
30379WAT     H191379   0.970   3.960   3.285
30379WAT     H291380   1.130   3.991   3.278
30380WAT      O91381   3.550   7.404   0.159
30380WAT     H191382   3.454   7.397   0.133
30380WAT     H291383   3.561   7.479   0.224
30381WAT      O91384   6.095   8.657   1.039
30381WAT     H191385   6.011   8.635   0.989
30381WAT     H291386   6.139   8.737   0.998
30382WAT      O91387   7.870   7.420   0.096
30382WAT     H191388   7.809   7.349   0.060
30382WAT     H291389   7.828   7.462   0.177
30383WAT      O91390   4.096   4.767   0.659
30383WAT     H191391   4.194   4.788   0.650
30383WAT     H291392   4.063   4.727   0.574
30384WAT      O91393   5.736   4.719   6.315
30384WAT     H191394   5.667   4.656   6.278
30384WAT     H291395   5.719   4.734   6.412
30385WAT      O91396   5.941   4.514   2.174
30385WAT     H191397   6.020   4.477   2.224
30385WAT     H291398   5.882   4.565   2.236
30386WAT      O91399   9.045   1.279   8.689
30386WAT     H191400   8.967   1.256   8.631
30386WAT     H291401   9.079   1.370   8.666
30387WAT      O91402   2.878   4.302   6.406
30387WAT     H191403   2.879   4.238   6.330
30387WAT     H291404   2.859   4.394   6.371
30388WAT      O91405   2.288   2.620   1.242
30388WAT     H191406   2.213   2.676   1.207
30388WAT     H291407   2.298   2.635   1.340
30389WAT      O91408   3.803   2.157   2.143
30389WAT     H191409   3.783   2.176   2.047
30389WAT     H291410   3.834   2.063   2.152
30390WAT      O91411   2.207   6.422   1.087
30390WAT     H191412   2.260   6.343   1.054
30390WAT     H291413   2.270   6.489   1.127
30391WAT      O91414   9.089   9.820   3.626
30391WAT     H191415   9.061   9.788   3.716
30391WAT     H291416   9.177   9.867   3.633
30392WAT      O91417   0.776   2.353   2.380
30392WAT     H191418   0.751   2.405   2.298
30392WAT     H291419   0.722   2.384   2.458
30393WAT      O91420   5.078   4.079   6.234
30393WAT     H191421   5.049   4.010   6.168
30393WAT     H291422   5.043   4.169   6.206
30394WAT      O91423   5.285   8.551   2.599
30394WAT     H191424   5.204   8.501   2.629
30394WAT     H291425   5.287   8.555   2.499
30395WAT      O91426   6.249   6.434   5.516
30395WAT     H191427   6.344   6.420   5.546
30395WAT     H291428   6.247   6.449   5.418
30396WAT      O91429   5.740   1.359   2.139
30396WAT     H191430   5.720   1.357   2.237
30396WAT     H291431   5.718   1.270   2.100
30397WAT      O91432   5.662   2.114   2.316
30397WAT     H191433   5.580   2.091   2.263
30397WAT     H291434   5.677   2.212   2.313
30398WAT      O91435   3.131   7.715   6.297
30398WAT     H191436   3.122   7.791   6.362
30398WAT     H291437   3.061   7.646   6.317
30399WAT      O91438   3.276   5.740   6.791
30399WAT     H191439   3.315   5.668   6.734
30399WAT     H291440   3.323   5.742   6.879
30400WAT      O91441   5.073   9.589   9.472
30400WAT     H191442   5.150   9.575   9.410
30400WAT     H291443   5.033   9.501   9.496
30401WAT      O91444   4.489   1.604   2.213
30401WAT     H191445   4.474   1.625   2.310
30401WAT     H291446   4.571   1.547   2.204
30402WAT      O91447   8.317   5.912   5.295
30402WAT     H191448   8.407   5.940   5.327
30402WAT     H291449   8.283   5.836   5.351
30403WAT      O91450   5.219   4.222   2.407
30403WAT     H191451   5.156   4.205   2.483
30403WAT     H291452   5.216   4.144   2.344
30404WAT      O91453   6.338   4.341   4.911
30404WAT     H191454   6.321   4.435   4.942
30404WAT     H291455   6.435   4.321   4.918
30405WAT      O91456   4.640   2.279   7.856
30405WAT     H191457   4.679   2.249   7.943
30405WAT     H291458   4.709   2.270   7.784
30406WAT      O91459   2.938   7.718   0.675
30406WAT     H191460   3.024   7.665   0.672
30406WAT     H291461   2.954   7.810   0.639
30407WAT      O91462   9.818   2.967   2.469
30407WAT     H191463   9.859   2.878   2.452
30407WAT     H291464   9.725   2.954   2.505
30408WAT      O91465   2.770   8.108   9.030
30408WAT     H191466   2.775   8.010   9.051
30408WAT     H291467   2.674   8.135   9.020
30409WAT      O91468   0.416   3.892   8.768
30409WAT     H191469   0.506   3.853   8.750
30409WAT     H291470   0.393   3.956   8.695
30410WAT      O91471   9.591   1.541   1.206
30410WAT     H191472   9.587   1.629   1.159
30410WAT     H291473   9.572   1.555   1.304
30411WAT      O91474   5.626   4.530   9.089
30411WAT     H191475   5.707   4.549   9.033
30411WAT     H291476   5.555   4.489   9.031
30412WAT      O91477   8.576   7.438   1.849
30412WAT     H191478   8.507   7.365   1.854
30412WAT     H291479   8.591   7.463   1.754
30413WAT      O91480   1.037   5.989   2.540
30413WAT     H191481   1.043   6.065   2.475
30413WAT     H291482   0.951   5.940   2.528
30414WAT      O91483   3.048   3.068   5.872
30414WAT     H191484   3.015   3.117   5.953
30414WAT     H291485   2.987   3.087   5.795
30415WAT      O91486   5.717   5.584   7.408
30415WAT     H191487   5.756   5.581   7.316
30415WAT     H291488   5.731   5.675   7.447
30416WAT      O91489   2.422   0.354   8.723
30416WAT     H191490   2.343   0.299   8.696
30416WAT     H291491   2.422   0.440   8.673
30417WAT      O91492   6.324   6.183   5.018
30417WAT     H191493   6.337   6.280   5.038
30417WAT     H291494   6.361   6.129   5.094
30418WAT      O91495   9.300   0.207   6.118
30418WAT     H191496   9.292   0.306   6.128
30418WAT     H291497   9.223   0.172   6.064
30419WAT      O91498   8.786   4.451   4.232
30419WAT     H191499   8.691   4.470   4.257
30419WAT     H291500   8.807   4.498   4.146
30420WAT      O91501   1.249   8.153   4.984
30420WAT     H191502   1.231   8.055   4.989
30420WAT     H291503   1.287   8.185   5.071
30421WAT      O91504   9.516   0.666   7.771
30421WAT     H191505   9.568   0.745   7.803
30421WAT     H291506   9.542   0.644   7.678
30422WAT      O91507   3.920   6.131   6.126
30422WAT     H191508   3.916   6.191   6.046
30422WAT     H291509   3.903   6.037   6.097
30423WAT      O91510   8.762   4.080   2.705
30423WAT     H191511   8.736   4.157   2.764
30423WAT     H291512   8.780   3.999   2.762
30424WAT      O91513   5.704   8.493   1.647
30424WAT     H191514   5.645   8.511   1.569
30424WAT     H291515   5.694   8.398   1.677
30425WAT      O91516   8.436   8.557   8.347
30425WAT     H191517   8.422   8.502   8.430
30425WAT     H291518   8.349   8.599   8.321
30426WAT      O91519   8.954   8.350   1.620
30426WAT     H191520   8.958   8.420   1.549
30426WAT     H291521   9.039   8.351   1.673
30427WAT      O91522   9.065   4.526   8.007
30427WAT     H191523   9.025   4.449   7.957
30427WAT     H291524   9.003   4.605   8.001
30428WAT      O91525   3.052   3.679   1.547
30428WAT     H191526   3.077   3.686   1.643
30428WAT     H291527   3.056   3.770   1.505
30429WAT      O91528   6.341   4.876   8.154
30429WAT     H191529   6.286   4.868   8.237
30429WAT     H291530   6.438   4.869   8.178
30430WAT      O91531   0.542   8.213   8.496
30430WAT     H191532   0.516   8.171   8.584
30430WAT     H291533   0.641   8.228   8.495
30431WAT      O91534   5.830   9.271   1.502
30431WAT     H191535   5.930   9.271   1.506
30431WAT     H291536   5.794   9.336   1.570
30432WAT      O91537   8.423   3.080   0.752
30432WAT     H191538   8.484   3.106   0.827
30432WAT     H291539   8.356   3.153   0.737
30433WAT      O91540   9.408   1.204   7.745
30433WAT     H191541   9.328   1.150   7.718
30433WAT     H291542   9.445   1.168   7.831
30434WAT      O91543   7.284   1.827   4.046
30434WAT     H191544   7.254   1.784   4.131
30434WAT     H291545   7.213   1.889   4.013
30435WAT      O91546   7.201   7.741   8.256
30435WAT     H191547   7.174   7.690   8.174
30435WAT     H291548   7.299   7.759   8.253
30436WAT      O91549   8.337   7.594   1.709
30436WAT     H191550   8.343   7.650   1.792
30436WAT     H291551   8.426   7.593   1.663
30437WAT      O91552   8.071   0.342   6.727
30437WAT     H191553   7.992   0.280   6.723
30437WAT     H291554   8.040   0.436   6.719
30438WAT      O91555   7.728   6.732   2.625
30438WAT     H191556   7.783   6.707   2.546
30438WAT     H291557   7.654   6.794   2.598
30439WAT      O91558   3.760   6.375   1.209
30439WAT     H191559   3.847   6.330   1.190
30439WAT     H291560   3.687   6.328   1.157
30440WAT      O91561   8.290   5.829   0.766
30440WAT     H191562   8.313   5.735   0.792
30440WAT     H291563   8.302   5.840   0.667
30441WAT      O91564   0.197   0.914   4.138
30441WAT     H191565   0.113   0.933   4.086
30441WAT     H291566   0.241   0.832   4.101
30442WAT      O91567   4.356   4.163   3.897
30442WAT     H191568   4.349   4.238   3.831
30442WAT     H291569   4.367   4.200   3.989
30443WAT      O91570   9.078   5.061   2.391
30443WAT     H191571   9.172   5.084   2.365
30443WAT     H291572   9.070   4.962   2.402
30444WAT      O91573   1.766   8.959   3.072
30444WAT     H191574   1.802   8.919   2.988
30444WAT     H291575   1.675   8.921   3.091
30445WAT      O91576   6.936   0.542   1.983
30445WAT     H191577   6.897   0.457   2.018
30445WAT     H291578   6.885   0.620   2.019
30446WAT      O91579   4.597   9.648   8.363
30446WAT     H191580   4.540   9.566   8.373
30446WAT     H291581   4.575   9.712   8.437
30447WAT      O91582   3.434   1.535   8.211
30447WAT     H191583   3.371   1.481   8.267
30447WAT     H291584   3.434   1.630   8.244
30448WAT      O91585   1.811   6.703   1.498
30448WAT     H191586   1.759   6.679   1.579
30448WAT     H291587   1.896   6.649   1.496
30449WAT      O91588   6.105   3.172   8.385
30449WAT     H191589   6.041   3.236   8.428
30449WAT     H291590   6.159   3.220   8.316
30450WAT      O91591   8.419   4.577   2.211
30450WAT     H191592   8.517   4.577   2.195
30450WAT     H291593   8.401   4.549   2.306
30451WAT      O91594   2.973   8.167   6.981
30451WAT     H191595   3.071   8.175   7.000
30451WAT     H291596   2.947   8.071   6.980
30452WAT      O91597   5.532   7.632   5.981
30452WAT     H191598   5.556   7.580   6.063
30452WAT     H291599   5.542   7.574   5.900
30453WAT      O91600   2.043   5.842   5.762
30453WAT     H191601   2.045   5.769   5.694
30453WAT     H291602   1.979   5.819   5.834
30454WAT      O91603   9.245   6.687   8.230
30454WAT     H191604   9.211   6.605   8.184
30454WAT     H291605   9.218   6.684   8.326
30455WAT      O91606   6.093   2.018   5.224
30455WAT     H191607   6.037   2.010   5.306
30455WAT     H291608   6.046   2.073   5.156
30456WAT      O91609   3.124   0.306   6.375
30456WAT     H191610   3.107   0.402   6.352
30456WAT     H291611   3.048   0.271   6.430
30457WAT      O91612   7.534   4.650   3.490
30457WAT     H191613   7.479   4.590   3.547
30457WAT     H291614   7.508   4.745   3.506
30458WAT      O91615   6.708   4.703   3.374
30458WAT     H191616   6.803   4.687   3.402
30458WAT     H291617   6.665   4.616   3.350
30459WAT      O91618   3.646   0.511   8.075
30459WAT     H191619   3.703   0.587   8.106
30459WAT     H291620   3.677   0.426   8.120
30460WAT      O91621   6.179   1.304   4.751
30460WAT     H191622   6.278   1.301   4.743
30460WAT     H291623   6.152   1.372   4.819
30461WAT      O91624   8.569   4.333   1.900
30461WAT     H191625   8.669   4.330   1.899
30461WAT     H291626   8.533   4.289   1.818
30462WAT      O91627   9.015   3.502   4.324
30462WAT     H191628   9.022   3.529   4.227
30462WAT     H291629   9.097   3.451   4.350
30463WAT      O91630   7.559   0.141   5.665
30463WAT     H191631   7.499   0.105   5.737
30463WAT     H291632   7.640   0.182   5.706
30464WAT      O91633   5.899   5.599   7.211
30464WAT     H191634   5.881   5.654   7.130
30464WAT     H291635   5.911   5.503   7.184
30465WAT      O91636   0.767   8.667   0.621
30465WAT     H191637   0.677   8.689   0.584
30465WAT     H291638   0.758   8.639   0.717
30466WAT      O91639   9.202   4.908   2.971
30466WAT     H191640   9.113   4.954   2.974
30466WAT     H291641   9.236   4.907   2.877
30467WAT      O91642   7.849   9.375   9.141
30467WAT     H191643   7.880   9.424   9.059
30467WAT     H291644   7.830   9.440   9.214
30468WAT      O91645   3.707   1.325   1.970
30468WAT     H191646   3.772   1.267   2.018
30468WAT     H291647   3.637   1.269   1.926
30469WAT      O91648   2.650   8.452   1.787
30469WAT     H191649   2.635   8.543   1.749
30469WAT     H291650   2.716   8.457   1.862
30470WAT      O91651   1.382   3.054   8.474
30470WAT     H191652   1.288   3.073   8.446
30470WAT     H291653   1.406   3.111   8.553
30471WAT      O91654   7.990   3.098   6.670
30471WAT     H191655   8.034   3.134   6.588
30471WAT     H291656   7.891   3.091   6.654
30472WAT      O91657   6.176   9.205   3.716
30472WAT     H191658   6.137   9.120   3.682
30472WAT     H291659   6.118   9.243   3.788
30473WAT      O91660   3.796   9.666   0.404
30473WAT     H191661   3.870   9.636   0.343
30473WAT     H291662   3.708   9.655   0.358
30474WAT      O91663   4.807   1.326   8.234
30474WAT     H191664   4.712   1.327   8.263
30474WAT     H291665   4.833   1.416   8.199
30475WAT      O91666   4.435   8.118   4.168
30475WAT     H191667   4.356   8.114   4.230
30475WAT     H291668   4.505   8.177   4.208
30476WAT      O91669   8.314   2.321   3.820
30476WAT     H191670   8.261   2.363   3.747
30476WAT     H291671   8.277   2.349   3.909
30477WAT      O91672   7.115   5.718   9.554
30477WAT     H191673   7.104   5.693   9.458
30477WAT     H291674   7.072   5.648   9.612
30478WAT      O91675   7.285   1.557   7.309
30478WAT     H191676   7.334   1.471   7.320
30478WAT     H291677   7.346   1.625   7.267
30479WAT      O91678   2.450   6.833   6.980
30479WAT     H191679   2.428   6.865   6.888
30479WAT     H291680   2.548   6.814   6.986
30480WAT      O91681   9.362   4.958   1.865
30480WAT     H191682   9.413   5.043   1.875
30480WAT     H291683   9.268   4.977   1.838
30481WAT      O91684   3.658   9.348   8.710
30481WAT     H191685   3.739   9.318   8.660
30481WAT     H291686   3.679   9.355   8.808
30482WAT      O91687   0.518   8.093   3.306
30482WAT     H191688   0.535   8.088   3.404
30482WAT     H291689   0.550   8.181   3.271
30483WAT      O91690   9.281   4.044   1.136
30483WAT     H191691   9.282   4.128   1.190
30483WAT     H291692   9.374   4.024   1.104
30484WAT      O91693   3.081   6.317   7.586
30484WAT     H191694   3.111   6.222   7.579
30484WAT     H291695   3.048   6.336   7.678
30485WAT      O91696   9.042   0.614   1.786
30485WAT     H191697   9.013   0.632   1.692
30485WAT     H291698   8.968   0.641   1.849
30486WAT      O91699   5.799   9.782   6.390
30486WAT     H191700   5.896   9.760   6.395
30486WAT     H291701   5.758   9.731   6.314
30487WAT      O91702   5.588   1.574   5.139
30487WAT     H191703   5.529   1.638   5.188
30487WAT     H291704   5.573   1.481   5.174
30488WAT      O91705   3.845   1.958   9.350
30488WAT     H191706   3.783   2.007   9.412
30488WAT     H291707   3.813   1.864   9.338
30489WAT      O91708   5.462   5.850   3.567
30489WAT     H191709   5.437   5.755   3.545
30489WAT     H291710   5.460   5.905   3.483
30490WAT      O91711   2.835   3.751   0.247
30490WAT     H191712   2.737   3.772   0.257
30490WAT     H291713   2.884   3.784   0.328
30491WAT      O91714   6.120   3.713   8.616
30491WAT     H191715   6.025   3.742   8.625
30491WAT     H291716   6.160   3.702   8.707
30492WAT      O91717   8.616   0.013   3.919
30492WAT     H191718   8.553  -0.039   3.977
30492WAT     H291719   8.707  -0.028   3.925
30493WAT      O91720   5.225   6.288   3.586
30493WAT     H191721   5.128   6.291   3.610
30493WAT     H291722   5.274   6.233   3.653
30494WAT      O91723   8.752   5.636   4.338
30494WAT     H191724   8.826   5.641   4.405
30494WAT     H291725   8.737   5.540   4.312
30495WAT      O91726   7.006   7.979   3.842
30495WAT     H191727   7.049   7.950   3.757
30495WAT     H291728   7.071   7.973   3.917
30496WAT      O91729   6.326   8.827   2.507
30496WAT     H191730   6.290   8.881   2.430
30496WAT     H291731   6.370   8.888   2.572
30497WAT      O91732   1.363   3.654   5.989
30497WAT     H191733   1.308   3.601   6.054
30497WAT     H291734   1.312   3.735   5.961
30498WAT      O91735   1.281   8.747   7.617
30498WAT     H191736   1.261   8.707   7.707
30498WAT     H291737   1.326   8.679   7.560
30499WAT      O91738   5.691   9.336   4.095
30499WAT     H191739   5.781   9.374   4.075
30499WAT     H291740   5.622   9.409   4.093
30500WAT      O91741   2.611   6.078   5.925
30500WAT     H191742   2.678   6.051   5.994
30500WAT     H291743   2.618   6.176   5.907
30501WAT      O91744   5.535   7.979   4.424
30501WAT     H191745   5.501   7.973   4.518
30501WAT     H291746   5.619   8.033   4.423
30502WAT      O91747   6.294   6.911   6.520
30502WAT     H191748   6.267   6.912   6.423
30502WAT     H291749   6.278   6.821   6.558
30503WAT      O91750   2.995   0.451   7.759
30503WAT     H191751   3.092   0.475   7.751
30503WAT     H291752   2.980   0.401   7.844
30504WAT      O91753   3.659   6.546   8.893
30504WAT     H191754   3.656   6.632   8.843
30504WAT     H291755   3.701   6.561   8.982
30505WAT      O91756   4.869   9.225   6.727
30505WAT     H191757   4.788   9.275   6.755
30505WAT     H291758   4.842   9.142   6.678
30506WAT      O91759   4.329   8.798   7.000
30506WAT     H191760   4.266   8.743   7.055
30506WAT     H291761   4.399   8.837   7.060
30507WAT      O91762   5.417   2.445   3.784
30507WAT     H191763   5.489   2.379   3.806
30507WAT     H291764   5.438   2.532   3.827
30508WAT      O91765   7.350   2.909   6.822
30508WAT     H191766   7.337   2.945   6.915
30508WAT     H291767   7.262   2.908   6.774
30509WAT      O91768   9.889   8.273   2.265
30509WAT     H191769   9.841   8.360   2.255
30509WAT     H291770   9.843   8.217   2.334
30510WAT      O91771   9.351   1.590   0.512
30510WAT     H191772   9.432   1.645   0.536
30510WAT     H291773   9.380   1.510   0.460
30511WAT      O91774   7.203   3.281   8.821
30511WAT     H191775   7.189   3.188   8.856
30511WAT     H291776   7.210   3.345   8.897
30512WAT      O91777   0.564   0.802   2.421
30512WAT     H191778   0.572   0.843   2.511
30512WAT     H291779   0.623   0.851   2.356
30513WAT      O91780   6.178   4.404   9.208
30513WAT     H191781   6.242   4.372   9.278
30513WAT     H291782   6.154   4.499   9.227
30514WAT      O91783   0.279   8.334   0.311
30514WAT     H191784   0.241   8.426   0.298
30514WAT     H291785   0.262   8.279   0.230
30515WAT      O91786   6.789   4.622   9.863
30515WAT     H191787   6.815   4.718   9.876
30515WAT     H291788   6.735   4.592   9.941
30516WAT      O91789   8.502   0.711   2.705
30516WAT     H191790   8.537   0.781   2.767
30516WAT     H291791   8.537   0.727   2.613
30517WAT      O91792   3.769   7.330   9.586
30517WAT     H191793   3.681   7.320   9.631
30517WAT     H291794   3.811   7.240   9.574
30518WAT      O91795   1.820   8.938   0.095
30518WAT     H191796   1.727   8.913   0.069
30518WAT     H291797   1.825   8.949   0.195
30519WAT      O91798   6.442   3.127   6.519
30519WAT     H191799   6.435   3.106   6.421
30519WAT     H291800   6.538   3.127   6.546
30520WAT      O91801   4.489   6.031   2.926
30520WAT     H191802   4.517   5.999   2.836
30520WAT     H291803   4.423   6.106   2.915
30521WAT      O91804   1.071   1.947   8.082
30521WAT     H191805   1.012   2.026   8.098
30521WAT     H291806   1.161   1.963   8.124
30522WAT      O91807   6.367   6.719   1.418
30522WAT     H191808   6.352   6.738   1.321
30522WAT     H291809   6.307   6.777   1.473
30523WAT      O91810   5.583   6.574   5.513
30523WAT     H191811   5.674   6.564   5.475
30523WAT     H291812   5.567   6.502   5.580
30524WAT      O91813   5.125   3.246   6.696
30524WAT     H191814   5.044   3.253   6.638
30524WAT     H291815   5.136   3.330   6.748
30525WAT      O91816   7.004   7.633   3.457
30525WAT     H191817   7.055   7.553   3.490
30525WAT     H291818   7.022   7.711   3.516
30526WAT      O91819   8.985   5.095   2.905
30526WAT     H191820   8.949   5.103   2.812
30526WAT     H291821   8.951   5.170   2.961
30527WAT      O91822   6.876   6.918   1.890
30527WAT     H191823   6.807   6.884   1.953
30527WAT     H291824   6.848   6.899   1.796
30528WAT      O91825   2.539   3.126   4.562
30528WAT     H191826   2.556   3.033   4.529
30528WAT     H291827   2.625   3.174   4.575
30529WAT      O91828   6.834   7.480   6.534
30529WAT     H191829   6.829   7.574   6.500
30529WAT     H291830   6.749   7.458   6.582
30530WAT      O91831   0.393   7.049   4.634
30530WAT     H191832   0.462   6.979   4.651
30530WAT     H291833   0.390   7.071   4.537
30531WAT      O91834   3.233   4.377   0.145
30531WAT     H191835   3.324   4.381   0.185
30531WAT     H291836   3.234   4.315   0.066
30532WAT      O91837   7.175   4.139  -0.002
30532WAT     H191838   7.155   4.229   0.036
30532WAT     H291839   7.122   4.070   0.046
30533WAT      O91840   3.203   5.474   3.723
30533WAT     H191841   3.116   5.460   3.676
30533WAT     H291842   3.277   5.481   3.655
30534WAT      O91843   8.266   1.244   4.262
30534WAT     H191844   8.183   1.238   4.206
30534WAT     H291845   8.239   1.257   4.358
30535WAT      O91846   2.816   4.010   4.232
30535WAT     H191847   2.791   4.003   4.329
30535WAT     H291848   2.858   3.925   4.202
30536WAT      O91849   6.589   4.980   7.340
30536WAT     H191850   6.671   4.951   7.390
30536WAT     H291851   6.614   5.055   7.278
30537WAT      O91852   4.620   3.914   3.603
30537WAT     H191853   4.652   3.876   3.690
30537WAT     H291854   4.531   3.957   3.617
30538WAT      O91855   5.083   8.039   2.185
30538WAT     H191856   5.053   8.057   2.091
30538WAT     H291857   5.181   8.057   2.193
30539WAT      O91858   7.039   6.475   5.189
30539WAT     H191859   7.059   6.392   5.137
30539WAT     H291860   7.079   6.468   5.280
30540WAT      O91861   1.991   2.154   2.683
30540WAT     H191862   2.024   2.132   2.775
30540WAT     H291863   1.892   2.139   2.679
30541WAT      O91864   5.385   9.317   8.623
30541WAT     H191865   5.318   9.364   8.680
30541WAT     H291866   5.350   9.309   8.530
30542WAT      O91867   0.030   3.522   5.024
30542WAT     H191868   0.092   3.590   5.063
30542WAT     H291869  -0.006   3.556   4.937
30543WAT      O91870   5.433   2.273   6.191
30543WAT     H191871   5.373   2.353   6.183
30543WAT     H291872   5.464   2.263   6.286
30544WAT      O91873   6.968   5.940   3.147
30544WAT     H191874   7.015   6.024   3.173
30544WAT     H291875   6.913   5.957   3.065
30545WAT      O91876   9.676   4.739   5.342
30545WAT     H191877   9.759   4.789   5.368
30545WAT     H291878   9.605   4.804   5.314
30546WAT      O91879   3.862   5.976   3.511
30546WAT     H191880   3.769   5.997   3.481
30546WAT     H291881   3.912   6.061   3.526
30547WAT      O91882   8.216   8.309   1.926
30547WAT     H191883   8.163   8.224   1.916
30547WAT     H291884   8.174   8.380   1.870
30548WAT      O91885   8.740   3.975   7.775
30548WAT     H191886   8.759   3.877   7.766
30548WAT     H291887   8.647   3.994   7.743
30549WAT      O91888   9.376   7.169   2.347
30549WAT     H191889   9.373   7.256   2.299
30549WAT     H291890   9.297   7.114   2.321
30550WAT      O91891   0.825   9.602   2.428
30550WAT     H191892   0.761   9.677   2.412
30550WAT     H291893   0.909   9.637   2.469
30551WAT      O91894   2.918   4.986   6.252
30551WAT     H191895   2.961   4.967   6.164
30551WAT     H291896   2.934   5.082   6.278
30552WAT      O91897   3.394   0.780   6.882
30552WAT     H191898   3.449   0.841   6.825
30552WAT     H291899   3.420   0.685   6.863
30553WAT      O91900   6.600   7.229   1.415
30553WAT     H191901   6.690   7.204   1.378
30553WAT     H291902   6.607   7.317   1.462
30554WAT      O91903   9.827   7.740   5.612
30554WAT     H191904   9.744   7.792   5.631
30554WAT     H291905   9.885   7.738   5.694
30555WAT      O91906   1.161   3.742   5.395
30555WAT     H191907   1.168   3.646   5.368
30555WAT     H291908   1.064   3.766   5.405
30556WAT      O91909   9.512   4.910   5.183
30556WAT     H191910   9.425   4.894   5.135
30556WAT     H291911   9.519   5.007   5.206
30557WAT      O91912   0.559   1.888   8.717
30557WAT     H191913   0.604   1.960   8.664
30557WAT     H291914   0.555   1.804   8.663
30558WAT      O91915   6.009   9.388   0.086
30558WAT     H191916   5.958   9.429   0.162
30558WAT     H291917   6.067   9.314   0.121
30559WAT      O91918   5.876   7.375   6.153
30559WAT     H191919   5.937   7.316   6.206
30559WAT     H291920   5.910   7.469   6.156
30560WAT      O91921   8.730   6.832   3.458
30560WAT     H191922   8.705   6.736   3.444
30560WAT     H291923   8.654   6.880   3.502
30561WAT      O91924   8.880   4.562   8.645
30561WAT     H191925   8.907   4.603   8.732
30561WAT     H291926   8.790   4.519   8.655
30562WAT      O91927   2.495   5.062   1.818
30562WAT     H191928   2.553   5.113   1.755
30562WAT     H291929   2.422   5.122   1.851
30563WAT      O91930   7.572   9.351   9.202
30563WAT     H191931   7.542   9.377   9.294
30563WAT     H291932   7.660   9.394   9.182
30564WAT      O91933   6.903   3.434   0.422
30564WAT     H191934   6.818   3.444   0.474
30564WAT     H291935   6.966   3.375   0.473
30565WAT      O91936   7.806   1.367   6.942
30565WAT     H191937   7.887   1.321   6.977
30565WAT     H291938   7.742   1.385   7.017
30566WAT      O91939   5.971   1.998   2.551
30566WAT     H191940   5.872   1.992   2.567
30566WAT     H291941   6.005   2.084   2.590
30567WAT      O91942   1.317   9.106   8.267
30567WAT     H191943   1.303   9.189   8.214
30567WAT     H291944   1.236   9.048   8.261
30568WAT      O91945   7.881   4.340   0.961
30568WAT     H191946   7.923   4.428   0.984
30568WAT     H291947   7.782   4.351   0.957
30569WAT      O91948   5.035   3.367   0.357
30569WAT     H191949   5.019   3.458   0.396
30569WAT     H291950   4.949   3.315   0.360
30570WAT      O91951   7.318   9.159   1.029
30570WAT     H191952   7.366   9.072   1.033
30570WAT     H291953   7.219   9.143   1.025
30571WAT      O91954   5.613   4.813   3.445
30571WAT     H191955   5.699   4.820   3.494
30571WAT     H291956   5.621   4.857   3.355
30572WAT      O91957   7.720   9.652   4.521
30572WAT     H191958   7.674   9.714   4.457
30572WAT     H291959   7.749   9.569   4.473
30573WAT      O91960   4.046   5.557   6.898
30573WAT     H191961   4.007   5.570   6.807
30573WAT     H291962   3.998   5.615   6.964
30574WAT      O91963   9.710   8.197   3.991
30574WAT     H191964   9.655   8.221   4.071
30574WAT     H291965   9.776   8.271   3.972
30575WAT      O91966   5.961   8.736   0.370
30575WAT     H191967   5.902   8.759   0.293
30575WAT     H291968   5.953   8.638   0.390
30576WAT      O91969   9.853   3.641   6.635
30576WAT     H191970   9.830   3.715   6.698
30576WAT     H291971   9.951   3.640   6.619
30577WAT      O91972   7.938   5.237   0.653
30577WAT     H191973   7.863   5.173   0.668
30577WAT     H291974   7.909   5.329   0.679
30578WAT      O91975   8.356   3.090   5.268
30578WAT     H191976   8.303   3.034   5.205
30578WAT     H291977   8.405   3.032   5.332
30579WAT      O91978   7.804   6.234   8.553
30579WAT     H191979   7.843   6.183   8.630
30579WAT     H291980   7.816   6.332   8.568
30580WAT      O91981   2.919   9.115   2.909
30580WAT     H191982   2.917   9.036   2.848
30580WAT     H291983   3.006   9.163   2.899
30581WAT      O91984   4.614   3.670   9.677
30581WAT     H191985   4.554   3.591   9.688
30581WAT     H291986   4.626   3.690   9.580
30582WAT      O91987   2.378   3.163   2.495
30582WAT     H191988   2.392   3.210   2.408
30582WAT     H291989   2.335   3.225   2.560
30583WAT      O91990   1.321   3.115   5.165
30583WAT     H191991   1.330   3.063   5.080
30583WAT     H291992   1.333   3.053   5.243
30584WAT      O91993   0.923   7.143   9.039
30584WAT     H191994   0.935   7.046   9.019
30584WAT     H291995   0.943   7.160   9.135
30585WAT      O91996   1.636   0.577   3.294
30585WAT     H191997   1.644   0.676   3.279
30585WAT     H291998   1.575   0.538   3.226
30586WAT      O91999   3.401   4.639   9.674
30586WAT     H192000   3.310   4.601   9.657
30586WAT     H292001   3.405   4.734   9.641
30587WAT      O92002   6.381   6.833   5.894
30587WAT     H192003   6.304   6.776   5.864
30587WAT     H292004   6.401   6.901   5.824
30588WAT      O92005   4.098   3.464   2.941
30588WAT     H192006   4.171   3.400   2.962
30588WAT     H292007   4.107   3.545   2.999
30589WAT      O92008   7.423   0.400   1.406
30589WAT     H192009   7.405   0.465   1.333
30589WAT     H292010   7.337   0.378   1.453
30590WAT      O92011   3.241   8.743   4.503
30590WAT     H192012   3.296   8.666   4.535
30590WAT     H292013   3.185   8.714   4.425
30591WAT      O92014   9.004   7.472   6.366
30591WAT     H192015   8.942   7.473   6.288
30591WAT     H292016   9.098   7.490   6.335
30592WAT      O92017   0.830   7.176   2.645
30592WAT     H192018   0.778   7.172   2.730
30592WAT     H292019   0.784   7.239   2.581
30593WAT      O92020   0.573   7.398   8.100
30593WAT     H192021   0.511   7.475   8.087
30593WAT     H292022   0.547   7.324   8.037
30594WAT      O92023   9.816   1.845   8.495
30594WAT     H192024   9.768   1.928   8.467
30594WAT     H292025   9.915   1.858   8.485
30595WAT      O92026   6.322   6.817   2.362
30595WAT     H192027   6.308   6.724   2.398
30595WAT     H292028   6.255   6.836   2.291
30596WAT      O92029   3.762   7.593   4.764
30596WAT     H192030   3.827   7.614   4.691
30596WAT     H292031   3.693   7.666   4.770
30597WAT      O92032   2.206   7.873   7.977
30597WAT     H192033   2.218   7.970   7.958
30597WAT     H292034   2.281   7.840   8.034
30598WAT      O92035   0.658   9.052   1.352
30598WAT     H192036   0.653   9.020   1.447
30598WAT     H292037   0.722   9.129   1.346
30599WAT      O92038   2.398   8.341   2.315
30599WAT     H192039   2.434   8.351   2.222
30599WAT     H292040   2.418   8.424   2.367
30600WAT      O92041   3.043   1.607   6.351
30600WAT     H192042   3.000   1.611   6.441
30600WAT     H292043   3.013   1.685   6.296
30601WAT      O92044   0.878   5.337   2.475
30601WAT     H192045   0.816   5.391   2.418
30601WAT     H292046   0.827   5.263   2.520
30602WAT      O92047   8.858   6.468   6.863
30602WAT     H192048   8.804   6.455   6.946
30602WAT     H292049   8.798   6.461   6.783
30603WAT      O92050   1.823   7.438   7.927
30603WAT     H192051   1.844   7.341   7.921
30603WAT     H292052   1.786   7.469   7.840
30604WAT      O92053   7.669   9.764   2.898
30604WAT     H192054   7.658   9.770   2.997
30604WAT     H292055   7.589   9.802   2.853
30605WAT      O92056   8.617   0.615   0.459
30605WAT     H192057   8.651   0.530   0.420
30605WAT     H292058   8.546   0.653   0.399
30606WAT      O92059   6.138   5.153   4.082
30606WAT     H192060   6.202   5.136   4.008
30606WAT     H292061   6.114   5.067   4.127
30607WAT      O92062   3.215   6.290   2.007
30607WAT     H192063   3.125   6.296   2.051
30607WAT     H292064   3.208   6.322   1.913
30608WAT      O92065   2.848   1.714   7.685
30608WAT     H192066   2.894   1.648   7.744
30608WAT     H292067   2.784   1.667   7.624
30609WAT      O92068   9.714   1.617   5.017
30609WAT     H192069   9.623   1.660   5.017
30609WAT     H292070   9.724   1.562   5.100
30610WAT      O92071   3.991   4.633   3.587
30610WAT     H192072   4.016   4.689   3.666
30610WAT     H292073   4.074   4.599   3.543
30611WAT      O92074   5.596   4.519   1.970
30611WAT     H192075   5.667   4.482   1.910
30611WAT     H292076   5.510   4.472   1.953
30612WAT      O92077   0.871   1.136   8.482
30612WAT     H192078   0.952   1.180   8.442
30612WAT     H292079   0.872   1.150   8.581
30613WAT      O92080   9.854   9.775   3.915
30613WAT     H192081   9.799   9.713   3.971
30613WAT     H292082   9.794   9.831   3.859
30614WAT      O92083   0.296   1.961   6.496
30614WAT     H192084   0.395   1.965   6.486
30614WAT     H292085   0.266   1.866   6.499
30615WAT      O92086   4.091   0.731   9.397
30615WAT     H192087   4.180   0.687   9.410
30615WAT     H292088   4.037   0.679   9.331
30616WAT      O92089   6.805   0.552   9.415
30616WAT     H192090   6.837   0.470   9.463
30616WAT     H292091   6.813   0.538   9.316
30617WAT      O92092   3.610   8.388   6.963
30617WAT     H192093   3.583   8.462   7.026
30617WAT     H292094   3.581   8.411   6.870
30618WAT      O92095   7.563   6.719   2.256
30618WAT     H192096   7.595   6.724   2.161
30618WAT     H292097   7.559   6.811   2.294
30619WAT      O92098   5.569   4.545   6.556
30619WAT     H192099   5.470   4.541   6.562
30619WAT     H292100   5.599   4.639   6.540
30620WAT      O92101   8.436   9.254   3.549
30620WAT     H192102   8.496   9.214   3.479
30620WAT     H292103   8.465   9.223   3.639
30621WAT      O92104   5.342   2.138   7.996
30621WAT     H192105   5.429   2.122   8.044
30621WAT     H292106   5.271   2.160   8.063
30622WAT      O92107   4.398   5.766   9.810
30622WAT     H192108   4.451   5.850   9.819
30622WAT     H292109   4.408   5.711   9.893
30623WAT      O92110   8.413   7.429   4.961
30623WAT     H192111   8.318   7.444   4.935
30623WAT     H292112   8.442   7.338   4.931
30624WAT      O92113   1.229   5.198   3.507
30624WAT     H192114   1.292   5.122   3.491
30624WAT     H292115   1.139   5.174   3.471
30625WAT      O92116   5.932   7.066   9.408
30625WAT     H192117   5.913   7.058   9.506
30625WAT     H292118   5.848   7.054   9.356
30626WAT      O92119   0.687   6.029   9.434
30626WAT     H192120   0.612   6.059   9.375
30626WAT     H292121   0.673   5.933   9.460
30627WAT      O92122   8.345   2.425   5.237
30627WAT     H192123   8.385   2.474   5.159
30627WAT     H292124   8.270   2.478   5.275
30628WAT      O92125   3.468   4.199   8.109
30628WAT     H192126   3.470   4.174   8.206
30628WAT     H292127   3.524   4.280   8.094
30629WAT      O92128   3.468   4.856   2.423
30629WAT     H192129   3.541   4.885   2.484
30629WAT     H292130   3.498   4.777   2.369
30630WAT      O92131   2.843   9.545   3.564
30630WAT     H192132   2.914   9.552   3.494
30630WAT     H292133   2.753   9.552   3.522
30631WAT      O92134   1.725   0.100   1.859
30631WAT     H192135   1.681   0.022   1.904
30631WAT     H292136   1.740   0.173   1.926
30632WAT      O92137   2.580   1.683   6.833
30632WAT     H192138   2.604   1.670   6.736
30632WAT     H292139   2.583   1.780   6.855
30633WAT      O92140   6.375   5.845   2.718
30633WAT     H192141   6.283   5.811   2.736
30633WAT     H292142   6.405   5.903   2.794
30634WAT      O92143   9.569   1.304   1.957
30634WAT     H192144   9.501   1.287   1.886
30634WAT     H292145   9.644   1.359   1.919
30635WAT      O92146   3.776   5.835   8.223
30635WAT     H192147   3.873   5.838   8.196
30635WAT     H292148   3.723   5.897   8.165
30636WAT      O92149   7.346   4.719   7.630
30636WAT     H192150   7.438   4.729   7.591
30636WAT     H292151   7.347   4.648   7.700
30637WAT      O92152   7.043   9.349   8.903
30637WAT     H192153   7.086   9.286   8.839
30637WAT     H292154   6.990   9.298   8.971
30638WAT      O92155   6.720   8.629   4.538
30638WAT     H192156   6.651   8.578   4.487
30638WAT     H292157   6.716   8.603   4.634
30639WAT      O92158   4.821   9.604   7.113
30639WAT     H192159   4.862   9.542   7.047
30639WAT     H292160   4.885   9.679   7.133
30640WAT      O92161   6.234   4.293   2.517
30640WAT     H192162   6.309   4.334   2.569
30640WAT     H292163   6.155   4.280   2.576
30641WAT      O92164   8.427   8.175   8.076
30641WAT     H192165   8.468   8.212   8.159
30641WAT     H292166   8.465   8.223   7.996
30642WAT      O92167   0.558   9.795   4.412
30642WAT     H192168   0.499   9.845   4.349
30642WAT     H292169   0.632   9.854   4.443
30643WAT      O92170   9.726   6.670   2.094
30643WAT     H192171   9.626   6.677   2.096
30643WAT     H292172   9.753   6.586   2.048
30644WAT      O92173   6.362   6.923   3.088
30644WAT     H192174   6.418   6.922   3.006
30644WAT     H292175   6.265   6.923   3.063
30645WAT      O92176   8.437   4.683   0.182
30645WAT     H192177   8.444   4.716   0.276
30645WAT     H292178   8.474   4.752   0.120
30646WAT      O92179   4.100   4.409   7.603
30646WAT     H192180   4.026   4.462   7.563
30646WAT     H292181   4.178   4.407   7.540
30647WAT      O92182   7.268   9.569   3.736
30647WAT     H192183   7.346   9.559   3.673
30647WAT     H292184   7.282   9.649   3.794
30648WAT      O92185   6.211   5.426   1.284
30648WAT     H192186   6.112   5.432   1.291
30648WAT     H292187   6.242   5.341   1.326
30649WAT      O92188   0.665   6.618   7.349
30649WAT     H192189   0.578   6.597   7.306
30649WAT     H292190   0.738   6.611   7.281
30650WAT      O92191   3.372   1.801   2.564
30650WAT     H192192   3.427   1.725   2.597
30650WAT     H292193   3.278   1.792   2.598
30651WAT      O92194   2.951   3.296   1.268
30651WAT     H192195   2.859   3.319   1.236
30651WAT     H292196   2.996   3.379   1.301
30652WAT      O92197   9.503   5.656   3.106
30652WAT     H192198   9.515   5.739   3.160
30652WAT     H292199   9.586   5.600   3.113
30653WAT      O92200   3.827   9.136   6.181
30653WAT     H192201   3.853   9.191   6.261
30653WAT     H292202   3.758   9.186   6.128
30654WAT      O92203   1.287   9.798   7.619
30654WAT     H192204   1.262   9.806   7.523
30654WAT     H292205   1.304   9.702   7.641
30655WAT      O92206   8.927   5.765   5.431
30655WAT     H192207   8.981   5.683   5.446
30655WAT     H292208   8.985   5.836   5.390
30656WAT      O92209   7.477   8.555   3.150
30656WAT     H192210   7.562   8.558   3.203
30656WAT     H292211   7.400   8.532   3.210
30657WAT      O92212   6.312   7.967   0.055
30657WAT     H192213   6.405   7.948   0.085
30657WAT     H292214   6.255   7.994   0.133
30658WAT      O92215   6.478   5.527   5.359
30658WAT     H192216   6.389   5.493   5.327
30658WAT     H292217   6.544   5.525   5.284
30659WAT      O92218   6.536   6.154   2.332
30659WAT     H192219   6.485   6.076   2.367
30659WAT     H292220   6.474   6.230   2.314
30660WAT      O92221   5.706   1.659   8.309
30660WAT     H192222   5.763   1.603   8.248
30660WAT     H292223   5.639   1.600   8.355
30661WAT      O92224   3.769   3.010   3.880
30661WAT     H192225   3.828   2.938   3.844
30661WAT     H292226   3.719   2.976   3.959
30662WAT      O92227   1.125   0.109   3.683
30662WAT     H192228   1.104   0.204   3.660
30662WAT     H292229   1.162   0.063   3.602
30663WAT      O92230   9.854   5.707   7.456
30663WAT     H192231   9.862   5.679   7.361
30663WAT     H292232   9.916   5.652   7.512
30664WAT      O92233   9.071   6.221   4.906
30664WAT     H192234   9.114   6.218   4.815
30664WAT     H292235   9.047   6.316   4.928
30665WAT      O92236   3.936   7.678   0.034
30665WAT     H192237   3.868   7.719  -0.027
30665WAT     H292238   3.916   7.581   0.047
30666WAT      O92239   7.071   1.617   3.623
30666WAT     H192240   7.094   1.583   3.714
30666WAT     H292241   6.975   1.597   3.603
30667WAT      O92242   9.195   2.704   2.552
30667WAT     H192243   9.189   2.669   2.458
30667WAT     H292244   9.124   2.772   2.567
30668WAT      O92245   6.633   4.616   4.716
30668WAT     H192246   6.584   4.543   4.669
30668WAT     H292247   6.729   4.591   4.725
30669WAT      O92248   5.474   1.408   7.945
30669WAT     H192249   5.393   1.465   7.959
30669WAT     H292250   5.498   1.362   8.031
30670WAT      O92251   0.279   0.840   9.562
30670WAT     H192252   0.213   0.768   9.580
30670WAT     H292253   0.340   0.850   9.641
30671WAT      O92254   1.363   0.742   3.346
30671WAT     H192255   1.451   0.785   3.325
30671WAT     H292256   1.365   0.707   3.440
30672WAT      O92257   6.671   7.470   8.025
30672WAT     H192258   6.607   7.481   8.101
30672WAT     H292259   6.764   7.481   8.059
30673WAT      O92260   2.300   3.807   6.599
30673WAT     H192261   2.216   3.801   6.652
30673WAT     H292262   2.290   3.875   6.526
30674WAT      O92263   1.839   8.675   5.419
30674WAT     H192264   1.888   8.595   5.451
30674WAT     H292265   1.775   8.706   5.489
30675WAT      O92266   3.649   5.498   8.867
30675WAT     H192267   3.616   5.573   8.811
30675WAT     H292268   3.737   5.522   8.907
30676WAT      O92269   6.705   1.919   9.760
30676WAT     H192270   6.751   1.979   9.695
30676WAT     H292271   6.613   1.955   9.779
30677WAT      O92272   7.400   6.140   7.261
30677WAT     H192273   7.466   6.072   7.230
30677WAT     H292274   7.395   6.138   7.361
30678WAT      O92275   1.209   4.590   6.498
30678WAT     H192276   1.170   4.586   6.406
30678WAT     H292277   1.248   4.680   6.515
30679WAT      O92278   1.543   1.268   9.431
30679WAT     H192279   1.594   1.254   9.345
30679WAT     H292280   1.491   1.353   9.425
30680WAT      O92281   0.467   5.520   4.190
30680WAT     H192282   0.429   5.440   4.144
30680WAT     H292283   0.479   5.501   4.287
30681WAT      O92284   3.572   1.154   5.532
30681WAT     H192285   3.608   1.213   5.604
30681WAT     H292286   3.644   1.136   5.464
30682WAT      O92287   0.711   8.808   7.203
30682WAT     H192288   0.688   8.765   7.290
30682WAT     H292289   0.636   8.793   7.138
30683WAT      O92290   1.139   1.577   1.272
30683WAT     H192291   1.063   1.559   1.334
30683WAT     H292292   1.225   1.546   1.314
30684WAT      O92293   4.681   1.652   9.494
30684WAT     H192294   4.640   1.562   9.510
30684WAT     H292295   4.777   1.640   9.468
30685WAT      O92296   3.959   3.608   1.509
30685WAT     H192297   4.025   3.657   1.566
30685WAT     H292298   3.954   3.512   1.539
30686WAT      O92299   8.053   3.603   4.649
30686WAT     H192300   8.116   3.619   4.573
30686WAT     H292301   8.074   3.666   4.724
30687WAT      O92302   8.254   7.972   9.492
30687WAT     H192303   8.341   7.944   9.452
30687WAT     H292304   8.187   7.988   9.419
30688WAT      O92305   1.737   1.586   0.746
30688WAT     H192306   1.696   1.660   0.800
30688WAT     H292307   1.785   1.624   0.667
30689WAT      O92308   4.159   2.887   2.013
30689WAT     H192309   4.135   2.790   2.014
30689WAT     H292310   4.199   2.912   2.102
30690WAT      O92311   9.390   7.089   1.007
30690WAT     H192312   9.305   7.136   0.983
30690WAT     H292313   9.371   7.023   1.080
30691WAT      O92314   4.747   0.759   8.545
30691WAT     H192315   4.688   0.831   8.509
30691WAT     H292316   4.836   0.798   8.571
30692WAT      O92317   7.829   5.883   5.126
30692WAT     H192318   7.835   5.827   5.209
30692WAT     H292319   7.751   5.852   5.071
30693WAT      O92320   7.610   6.808   1.064
30693WAT     H192321   7.536   6.778   1.123
30693WAT     H292322   7.572   6.847   0.980
30694WAT      O92323   2.962   2.767   1.267
30694WAT     H192324   2.948   2.859   1.304
30694WAT     H292325   3.047   2.765   1.214
30695WAT      O92326   8.181   9.765   6.396
30695WAT     H192327   8.247   9.734   6.327
30695WAT     H292328   8.177   9.865   6.396
30696WAT      O92329   7.851   0.358   0.828
30696WAT     H192330   7.943   0.395   0.818
30696WAT     H292331   7.796   0.420   0.884
30697WAT      O92332   1.120   5.972   4.644
30697WAT     H192333   1.177   6.039   4.692
30697WAT     H292334   1.077   5.911   4.711
30698WAT      O92335   5.922   4.411   7.565
30698WAT     H192336   5.906   4.325   7.517
30698WAT     H292337   5.977   4.472   7.507
30699WAT      O92338   4.065   0.760   2.073
30699WAT     H192339   3.979   0.711   2.060
30699WAT     H292340   4.081   0.774   2.170
30700WAT      O92341   0.175   7.254   1.207
30700WAT     H192342   0.244   7.252   1.134
30700WAT     H292343   0.097   7.309   1.176
30701WAT      O92344   8.061   5.508   7.069
30701WAT     H192345   8.040   5.488   6.974
30701WAT     H292346   8.085   5.605   7.078
30702WAT      O92347   8.244   4.854   1.302
30702WAT     H192348   8.227   4.775   1.243
30702WAT     H292349   8.328   4.839   1.354
30703WAT      O92350   1.313   5.560   6.273
30703WAT     H192351   1.384   5.541   6.205
30703WAT     H292352   1.352   5.554   6.364
30704WAT      O92353   8.176   4.452   5.306
30704WAT     H192354   8.186   4.396   5.388
30704WAT     H292355   8.185   4.395   5.225
30705WAT      O92356   4.069   9.571   9.060
30705WAT     H192357   4.164   9.551   9.035
30705WAT     H292358   4.017   9.594   8.978
30706WAT      O92359   3.410   0.987   7.942
30706WAT     H192360   3.460   0.943   7.868
30706WAT     H292361   3.467   0.990   8.024
30707WAT      O92362   6.256   8.966   4.513
30707WAT     H192363   6.255   8.933   4.419
30707WAT     H292364   6.180   8.924   4.564
30708WAT      O92365   8.743   9.046   8.104
30708WAT     H192366   8.753   8.953   8.139
30708WAT     H292367   8.829   9.096   8.117
30709WAT      O92368   0.182   9.277   6.874
30709WAT     H192369   0.272   9.309   6.845
30709WAT     H292370   0.112   9.314   6.812
30710WAT      O92371   5.601   7.449   3.561
30710WAT     H192372   5.694   7.487   3.557
30710WAT     H292373   5.588   7.386   3.484
30711WAT      O92374   7.171   0.540   1.885
30711WAT     H192375   7.074   0.520   1.900
30711WAT     H292376   7.201   0.610   1.949
30712WAT      O92377   1.739   4.149   0.968
30712WAT     H192378   1.653   4.142   0.917
30712WAT     H292379   1.816   4.137   0.906
30713WAT      O92380   0.168   1.145   3.729
30713WAT     H192381   0.219   1.059   3.722
30713WAT     H292382   0.218   1.218   3.683
30714WAT      O92383   9.391   8.512   2.005
30714WAT     H192384   9.456   8.578   1.968
30714WAT     H292385   9.303   8.556   2.020
30715WAT      O92386   8.947   4.614   5.703
30715WAT     H192387   8.897   4.672   5.767
30715WAT     H292388   8.944   4.655   5.612
30716WAT      O92389   4.024   1.295   8.855
30716WAT     H192390   3.950   1.361   8.842
30716WAT     H292391   4.091   1.332   8.920
30717WAT      O92392   4.029   5.606   8.721
30717WAT     H192393   3.986   5.695   8.709
30717WAT     H292394   4.119   5.606   8.676
30718WAT      O92395   5.233   4.442   8.887
30718WAT     H192396   5.328   4.415   8.873
30718WAT     H292397   5.175   4.401   8.816
30719WAT      O92398   5.288   2.422   4.498
30719WAT     H192399   5.192   2.413   4.524
30719WAT     H292400   5.297   2.488   4.424
30720WAT      O92401   0.191   2.098   6.986
30720WAT     H192402   0.180   2.063   7.079
30720WAT     H292403   0.244   2.183   6.988
30721WAT      O92404   1.872   6.519   0.204
30721WAT     H192405   1.800   6.455   0.178
30721WAT     H292406   1.932   6.476   0.272
30722WAT      O92407   2.777   1.639   2.366
30722WAT     H192408   2.844   1.613   2.435
30722WAT     H292409   2.730   1.557   2.333
30723WAT      O92410   8.435   2.658   9.523
30723WAT     H192411   8.510   2.682   9.585
30723WAT     H292412   8.348   2.688   9.562
30724WAT      O92413   9.572   0.645   5.250
30724WAT     H192414   9.541   0.570   5.308
30724WAT     H292415   9.511   0.724   5.261
30725WAT      O92416   4.341   1.236   8.532
30725WAT     H192417   4.353   1.303   8.605
30725WAT     H292418   4.243   1.216   8.520
30726WAT      O92419   5.595   7.198   1.223
30726WAT     H192420   5.500   7.227   1.227
30726WAT     H292421   5.617   7.142   1.303
30727WAT      O92422   7.664   0.541   7.929
30727WAT     H192423   7.712   0.567   8.012
30727WAT     H292424   7.729   0.528   7.854
30728WAT      O92425   3.188   6.782   6.365
30728WAT     H192426   3.169   6.880   6.368
30728WAT     H292427   3.124   6.734   6.425
30729WAT      O92428   8.840   7.529   2.556
30729WAT     H192429   8.795   7.481   2.631
30729WAT     H292430   8.824   7.627   2.565
30730WAT      O92431   8.249   6.161   1.151
30730WAT     H192432   8.204   6.243   1.117
30730WAT     H292433   8.339   6.152   1.109
30731WAT      O92434   7.141   1.593   2.749
30731WAT     H192435   7.219   1.655   2.743
30731WAT     H292436   7.170   1.500   2.724
30732WAT      O92437   8.358   8.377   4.597
30732WAT     H192438   8.430   8.314   4.569
30732WAT     H292439   8.302   8.333   4.668
30733WAT      O92440   6.425   8.083   0.648
30733WAT     H192441   6.491   8.058   0.718
30733WAT     H292442   6.335   8.047   0.673
30734WAT      O92443   5.543   9.772   4.954
30734WAT     H192444   5.603   9.817   4.887
30734WAT     H292445   5.599   9.724   5.021
30735WAT      O92446   5.340   8.011   2.997
30735WAT     H192447   5.381   7.993   3.087
30735WAT     H292448   5.242   8.027   3.009
30736WAT      O92449   2.576   1.226   1.793
30736WAT     H192450   2.586   1.136   1.750
30736WAT     H292451   2.608   1.222   1.887
30737WAT      O92452   9.418   1.708   4.718
30737WAT     H192453   9.394   1.698   4.622
30737WAT     H292454   9.334   1.718   4.772
30738WAT      O92455   4.486   7.827   2.262
30738WAT     H192456   4.581   7.834   2.290
30738WAT     H292457   4.477   7.760   2.189
30739WAT      O92458   7.955   4.695   0.069
30739WAT     H192459   7.900   4.719   0.149
30739WAT     H292460   7.985   4.778   0.022
30740WAT      O92461   1.018   3.084   9.298
30740WAT     H192462   0.938   3.027   9.316
30740WAT     H292463   1.090   3.027   9.257
30741WAT      O92464   5.141   9.353   0.712
30741WAT     H192465   5.162   9.257   0.727
30741WAT     H292466   5.189   9.385   0.630
30742WAT      O92467   1.411   0.219   7.542
30742WAT     H192468   1.382   0.142   7.485
30742WAT     H292469   1.511   0.221   7.548
30743WAT      O92470   5.012   1.207   3.919
30743WAT     H192471   4.961   1.291   3.902
30743WAT     H292472   5.109   1.228   3.927
30744WAT      O92473   9.143   8.619   1.972
30744WAT     H192474   9.167   8.684   2.044
30744WAT     H292475   9.053   8.580   1.991
30745WAT      O92476   9.168   7.895   6.976
30745WAT     H192477   9.222   7.832   7.032
30745WAT     H292478   9.221   7.979   6.961
30746WAT      O92479   4.767   1.266   3.121
30746WAT     H192480   4.827   1.190   3.147
30746WAT     H292481   4.816   1.329   3.061
30747WAT      O92482   4.485   2.698   0.184
30747WAT     H192483   4.477   2.795   0.211
30747WAT     H292484   4.557   2.655   0.238
30748WAT      O92485   3.381   7.949   5.548
30748WAT     H192486   3.342   7.860   5.524
30748WAT     H292487   3.370   8.012   5.471
30749WAT      O92488   7.565   7.642   8.473
30749WAT     H192489   7.646   7.583   8.467
30749WAT     H292490   7.579   7.724   8.417
30750WAT      O92491   9.171   3.518   8.949
30750WAT     H192492   9.148   3.459   9.026
30750WAT     H292493   9.150   3.613   8.971
30751WAT      O92494   4.980   7.088   9.678
30751WAT     H192495   4.989   7.105   9.580
30751WAT     H292496   4.888   7.115   9.708
30752WAT      O92497   5.997   3.157   9.563
30752WAT     H192498   6.026   3.244   9.603
30752WAT     H292499   6.003   3.162   9.463
30753WAT      O92500   0.304   2.281   0.485
30753WAT     H192501   0.404   2.281   0.485
30753WAT     H292502   0.271   2.210   0.547
30754WAT      O92503   2.829   1.518   0.444
30754WAT     H192504   2.902   1.462   0.402
30754WAT     H292505   2.743   1.467   0.442
30755WAT      O92506   3.059   1.143   4.323
30755WAT     H192507   3.087   1.132   4.419
30755WAT     H292508   3.096   1.229   4.288
30756WAT      O92509   3.986   0.749   4.863
30756WAT     H192510   3.966   0.657   4.897
30756WAT     H292511   3.967   0.816   4.936
30757WAT      O92512   2.629   1.716   8.564
30757WAT     H192513   2.675   1.751   8.646
30757WAT     H292514   2.584   1.629   8.586
30758WAT      O92515   4.472   8.094   8.018
30758WAT     H192516   4.452   8.011   8.071
30758WAT     H292517   4.387   8.126   7.975
30759WAT      O92518   3.861   6.592   7.728
30759WAT     H192519   3.954   6.571   7.698
30759WAT     H292520   3.862   6.618   7.825
30760WAT      O92521   7.646   0.644   0.598
30760WAT     H192522   7.685   0.569   0.545
30760WAT     H292523   7.717   0.682   0.659
30761WAT      O92524   8.695   8.555   0.746
30761WAT     H192525   8.641   8.639   0.751
30761WAT     H292526   8.765   8.564   0.676
30762WAT      O92527   3.483   8.518   0.168
30762WAT     H192528   3.533   8.515   0.254
30762WAT     H292529   3.547   8.506   0.092
30763WAT      O92530   0.956   8.730   3.131
30763WAT     H192531   0.967   8.668   3.054
30763WAT     H292532   0.909   8.813   3.101
30764WAT      O92533   4.923   2.272   6.336
30764WAT     H192534   4.908   2.198   6.401
30764WAT     H292535   5.000   2.250   6.276
30765WAT      O92536   8.450   3.045   7.488
30765WAT     H192537   8.520   3.049   7.416
30765WAT     H292538   8.365   3.083   7.454
30766WAT      O92539   2.334   3.510   1.114
30766WAT     H192540   2.413   3.571   1.119
30766WAT     H292541   2.263   3.542   1.177
30767WAT      O92542   3.729   7.806   2.450
30767WAT     H192543   3.792   7.778   2.376
30767WAT     H292544   3.678   7.726   2.481
30768WAT      O92545   2.744   3.681   5.434
30768WAT     H192546   2.659   3.630   5.418
30768WAT     H292547   2.762   3.740   5.355
30769WAT      O92548   2.744   5.035   3.034
30769WAT     H192549   2.704   5.012   3.123
30769WAT     H292550   2.672   5.067   2.972
30770WAT      O92551   9.616   7.358   5.554
30770WAT     H192552   9.533   7.369   5.498
30770WAT     H292553   9.644   7.262   5.554
30771WAT      O92554   9.606   2.225   8.017
30771WAT     H192555   9.559   2.136   8.015
30771WAT     H292556   9.698   2.214   7.979
30772WAT      O92557   2.564   7.963   6.673
30772WAT     H192558   2.526   7.996   6.759
30772WAT     H292559   2.515   7.881   6.643
30773WAT      O92560   7.292   2.349   5.730
30773WAT     H192561   7.369   2.348   5.666
30773WAT     H292562   7.223   2.414   5.699
30774WAT      O92563   1.358   5.487   7.935
30774WAT     H192564   1.294   5.552   7.893
30774WAT     H292565   1.397   5.528   8.018
30775WAT      O92566   2.194   1.786   4.398
30775WAT     H192567   2.211   1.864   4.338
30775WAT     H292568   2.190   1.818   4.493
30776WAT      O92569   3.320   6.976   2.478
30776WAT     H192570   3.358   6.888   2.450
30776WAT     H292571   3.339   6.991   2.575
30777WAT      O92572   8.739   1.615   0.219
30777WAT     H192573   8.755   1.568   0.132
30777WAT     H292574   8.813   1.680   0.236
30778WAT      O92575   0.037   0.338   2.986
30778WAT     H192576  -0.018   0.295   2.915
30778WAT     H292577   0.097   0.408   2.946
30779WAT      O92578   7.705   3.794   6.412
30779WAT     H192579   7.654   3.733   6.352
30779WAT     H292580   7.654   3.879   6.424
30780WAT      O92581   8.252   9.643   7.924
30780WAT     H192582   8.178   9.642   7.857
30780WAT     H292583   8.214   9.640   8.017
30781WAT      O92584   8.867   4.938   5.824
30781WAT     H192585   8.839   5.034   5.815
30781WAT     H292586   8.787   4.879   5.814
30782WAT      O92587   4.289   3.625   1.972
30782WAT     H192588   4.282   3.686   1.893
30782WAT     H292589   4.256   3.672   2.054
30783WAT      O92590   2.865   3.497   2.061
30783WAT     H192591   2.955   3.500   2.104
30783WAT     H292592   2.839   3.402   2.044
30784WAT      O92593   1.127   5.614   5.506
30784WAT     H192594   1.050   5.616   5.570
30784WAT     H292595   1.105   5.670   5.427
30785WAT      O92596   6.919   4.888   0.424
30785WAT     H192597   6.884   4.957   0.487
30785WAT     H292598   6.972   4.932   0.352
30786WAT      O92599   1.728   1.912   2.958
30786WAT     H192600   1.643   1.902   2.905
30786WAT     H292601   1.744   1.828   3.010
30787WAT      O92602   6.751   0.107   6.063
30787WAT     H192603   6.829   0.084   6.005
30787WAT     H292604   6.681   0.036   6.054
30788WAT      O92605   3.913   3.213   6.288
30788WAT     H192606   3.854   3.255   6.357
30788WAT     H292607   3.857   3.183   6.211
30789WAT      O92608   8.010   9.205   6.090
30789WAT     H192609   8.052   9.124   6.134
30789WAT     H292610   7.911   9.197   6.095
30790WAT      O92611   4.749   4.159   9.662
30790WAT     H192612   4.783   4.240   9.614
30790WAT     H292613   4.685   4.187   9.734
30791WAT      O92614   7.718   3.750   3.542
30791WAT     H192615   7.675   3.674   3.592
30791WAT     H292616   7.768   3.714   3.464
30792WAT      O92617   7.886   8.050   3.467
30792WAT     H192618   7.975   8.083   3.434
30792WAT     H292619   7.828   8.029   3.389
30793WAT      O92620   2.879   1.486   8.512
30793WAT     H192621   2.945   1.555   8.542
30793WAT     H292622   2.814   1.528   8.449
30794WAT      O92623   4.966   2.188   2.450
30794WAT     H192624   4.920   2.263   2.402
30794WAT     H292625   4.972   2.108   2.390
30795WAT      O92626   4.788   8.473   3.691
30795WAT     H192627   4.849   8.470   3.612
30795WAT     H292628   4.749   8.383   3.707
30796WAT      O92629   0.090   6.890   8.930
30796WAT     H192630   0.099   6.938   8.843
30796WAT     H292631   0.181   6.868   8.965
30797WAT      O92632   0.162   7.885   0.603
30797WAT     H192633   0.209   7.973   0.599
30797WAT     H292634   0.167   7.849   0.696
30798WAT      O92635   1.280   2.139   9.646
30798WAT     H192636   1.331   2.053   9.650
30798WAT     H292637   1.258   2.161   9.551
30799WAT      O92638   7.756   8.545   4.120
30799WAT     H192639   7.820   8.575   4.048
30799WAT     H292640   7.663   8.567   4.093
30800WAT      O92641   8.351   8.656   7.668
30800WAT     H192642   8.419   8.678   7.598
30800WAT     H292643   8.291   8.734   7.682
30801WAT      O92644   7.149   1.285   4.612
30801WAT     H192645   7.185   1.313   4.701
30801WAT     H292646   7.209   1.320   4.540
30802WAT      O92647   9.842   9.116   4.138
30802WAT     H192648   9.872   9.154   4.226
30802WAT     H292649   9.755   9.157   4.112
30803WAT      O92650   4.086   3.467   1.254
30803WAT     H192651   3.986   3.468   1.245
30803WAT     H292652   4.125   3.412   1.181
30804WAT      O92653   8.703   1.082   1.091
30804WAT     H192654   8.758   1.163   1.115
30804WAT     H292655   8.760   1.001   1.096
30805WAT      O92656   9.608   7.457   6.464
30805WAT     H192657   9.577   7.550   6.442
30805WAT     H292658   9.677   7.460   6.536
30806WAT      O92659   5.954   6.979   1.635
30806WAT     H192660   5.930   7.005   1.541
30806WAT     H292661   5.870   6.962   1.686
30807WAT      O92662   6.367   3.590   3.588
30807WAT     H192663   6.302   3.556   3.520
30807WAT     H292664   6.439   3.522   3.602
30808WAT      O92665   3.376   9.581   1.324
30808WAT     H192666   3.474   9.585   1.341
30808WAT     H292667   3.359   9.581   1.226
30809WAT      O92668   1.810   8.555   1.751
30809WAT     H192669   1.877   8.488   1.781
30809WAT     H292670   1.738   8.510   1.698
30810WAT      O92671   8.383   3.611   7.501
30810WAT     H192672   8.330   3.623   7.418
30810WAT     H292673   8.336   3.549   7.563
30811WAT      O92674   7.780   3.191   9.855
30811WAT     H192675   7.733   3.120   9.802
30811WAT     H292676   7.870   3.209   9.814
30812WAT      O92677   0.222   7.292   4.453
30812WAT     H192678   0.310   7.258   4.420
30812WAT     H292679   0.233   7.388   4.482
30813WAT      O92680   2.141   8.203   8.599
30813WAT     H192681   2.128   8.211   8.500
30813WAT     H292682   2.178   8.288   8.635
30814WAT      O92683   7.899   5.856   6.932
30814WAT     H192684   7.812   5.880   6.888
30814WAT     H292685   7.946   5.787   6.877
30815WAT      O92686   1.672   0.197   9.653
30815WAT     H192687   1.663   0.117   9.594
30815WAT     H292688   1.685   0.279   9.596
30816WAT      O92689   6.809   7.621   9.242
30816WAT     H192690   6.899   7.581   9.258
30816WAT     H292691   6.774   7.661   9.326
30817WAT      O92692   8.315   7.331   1.356
30817WAT     H192693   8.256   7.404   1.390
30817WAT     H292694   8.401   7.332   1.407
30818WAT      O92695   5.178   7.674   7.014
30818WAT     H192696   5.274   7.647   7.023
30818WAT     H292697   5.122   7.593   6.998
30819WAT      O92698   9.738   7.559   2.457
30819WAT     H192699   9.677   7.591   2.529
30819WAT     H292700   9.786   7.477   2.488
30820WAT      O92701   8.845   9.054   0.365
30820WAT     H192702   8.822   9.006   0.450
30820WAT     H292703   8.822   8.996   0.287
30821WAT      O92704   3.041   5.844   2.968
30821WAT     H192705   3.110   5.787   2.923
30821WAT     H292706   3.077   5.879   3.054
30822WAT      O92707   3.330   6.206   9.544
30822WAT     H192708   3.404   6.153   9.585
30822WAT     H292709   3.242   6.174   9.579
30823WAT      O92710   6.803   7.682   8.865
30823WAT     H192711   6.777   7.737   8.945
30823WAT     H292712   6.861   7.737   8.805
30824WAT      O92713   6.076   3.214   9.882
30824WAT     H192714   6.063   3.117   9.864
30824WAT     H292715   5.987   3.260   9.882
30825WAT      O92716   7.356   4.892   5.023
30825WAT     H192717   7.352   4.802   5.066
30825WAT     H292718   7.274   4.944   5.047
30826WAT      O92719   9.776   6.700   0.761
30826WAT     H192720   9.807   6.783   0.808
30826WAT     H292721   9.735   6.725   0.673
30827WAT      O92722   9.119   9.246   0.017
30827WAT     H192723   9.100   9.330   0.067
30827WAT     H292724   9.168   9.268  -0.068
30828WAT      O92725   1.249   2.986   7.589
30828WAT     H192726   1.327   2.976   7.528
30828WAT     H292727   1.234   2.901   7.639
30829WAT      O92728   6.428   9.636   4.347
30829WAT     H192729   6.524   9.611   4.336
30829WAT     H292730   6.384   9.572   4.409
30830WAT      O92731   6.990   7.570   2.716
30830WAT     H192732   7.022   7.656   2.676
30830WAT     H292733   6.921   7.529   2.657
30831WAT      O92734   8.130   7.393   6.971
30831WAT     H192735   8.089   7.458   6.908
30831WAT     H292736   8.197   7.336   6.923
30832WAT      O92737   9.642   3.988   0.357
30832WAT     H192738   9.582   3.911   0.336
30832WAT     H292739   9.728   3.978   0.308
30833WAT      O92740   1.528   0.344   6.466
30833WAT     H192741   1.443   0.344   6.414
30833WAT     H292742   1.605   0.326   6.405
30834WAT      O92743   4.443   3.417   8.105
30834WAT     H192744   4.431   3.318   8.099
30834WAT     H292745   4.473   3.452   8.016
30835WAT      O92746   4.284   5.763   8.640
30835WAT     H192747   4.237   5.810   8.715
30835WAT     H292748   4.372   5.728   8.673
30836WAT      O92749   2.631   3.297   5.775
30836WAT     H192750   2.569   3.296   5.696
30836WAT     H292751   2.692   3.375   5.768
30837WAT      O92752   8.829   6.268   6.511
30837WAT     H192753   8.798   6.173   6.507
30837WAT     H292754   8.764   6.321   6.565
30838WAT      O92755   9.522   4.385   5.022
30838WAT     H192756   9.579   4.429   5.091
30838WAT     H292757   9.513   4.287   5.043
30839WAT      O92758   5.973   8.369   0.874
30839WAT     H192759   6.028   8.373   0.791
30839WAT     H292760   6.025   8.322   0.946
30840WAT      O92761   4.155   7.799   3.919
30840WAT     H192762   4.073   7.840   3.878
30840WAT     H292763   4.130   7.714   3.966
30841WAT      O92764   9.806   8.165   9.517
30841WAT     H192765   9.894   8.210   9.533
30841WAT     H292766   9.790   8.097   9.589
30842WAT      O92767   2.288   3.300   6.246
30842WAT     H192768   2.290   3.399   6.243
30842WAT     H292769   2.221   3.270   6.313
30843WAT      O92770   1.130   0.001   9.210
30843WAT     H192771   1.113   0.071   9.141
30843WAT     H292772   1.045  -0.019   9.259
30844WAT      O92773   9.525   4.181   5.389
30844WAT     H192774   9.448   4.239   5.361
30844WAT     H292775   9.571   4.221   5.468
30845WAT      O92776   9.655   5.122   9.153
30845WAT     H192777   9.584   5.192   9.155
30845WAT     H292778   9.723   5.146   9.084
30846WAT      O92779   1.735   2.245   9.599
30846WAT     H192780   1.706   2.280   9.510
30846WAT     H292781   1.827   2.207   9.592
30847WAT      O92782   4.081   7.717   4.193
30847WAT     H192783   4.178   7.712   4.216
30847WAT     H292784   4.049   7.811   4.203
30848WAT      O92785   5.621   0.974   3.235
30848WAT     H192786   5.577   0.894   3.194
30848WAT     H292787   5.551   1.041   3.261
30849WAT      O92788   7.293   0.051   1.106
30849WAT     H192789   7.392   0.039   1.108
30849WAT     H292790   7.267   0.110   1.030
30850WAT      O92791   9.437   1.512   2.035
30850WAT     H192792   9.351   1.514   1.983
30850WAT     H292793   9.489   1.430   2.008
30851WAT      O92794   1.602   3.229   7.405
30851WAT     H192795   1.591   3.258   7.310
30851WAT     H292796   1.570   3.301   7.466
30852WAT      O92797   1.439   7.135   6.767
30852WAT     H192798   1.494   7.205   6.722
30852WAT     H292799   1.499   7.063   6.803
30853WAT      O92800   8.159   2.303   6.758
30853WAT     H192801   8.177   2.294   6.660
30853WAT     H292802   8.169   2.398   6.786
30854WAT      O92803   0.430   2.198   7.422
30854WAT     H192804   0.492   2.191   7.344
30854WAT     H292805   0.461   2.137   7.495
30855WAT      O92806   3.783   3.453   1.941
30855WAT     H192807   3.777   3.519   2.016
30855WAT     H292808   3.720   3.480   1.868
30856WAT      O92809   2.632   1.308   6.731
30856WAT     H192810   2.726   1.291   6.701
30856WAT     H292811   2.572   1.237   6.694
30857WAT      O92812   8.143   2.655   5.632
30857WAT     H192813   8.222   2.633   5.689
30857WAT     H292814   8.066   2.679   5.690
30858WAT      O92815   8.264   3.915   5.121
30858WAT     H192816   8.325   3.850   5.076
30858WAT     H292817   8.182   3.867   5.153
30859WAT      O92818   7.501   1.107   3.823
30859WAT     H192819   7.410   1.129   3.786
30859WAT     H292820   7.523   1.012   3.803
30860WAT      O92821   4.048   3.943   6.823
30860WAT     H192822   4.033   4.023   6.881
30860WAT     H292823   4.137   3.903   6.844
30861WAT      O92824   4.794   8.012   3.477
30861WAT     H192825   4.866   8.075   3.451
30861WAT     H292826   4.830   7.919   3.482
30862WAT      O92827   3.660   4.478   6.091
30862WAT     H192828   3.706   4.441   6.172
30862WAT     H292829   3.565   4.500   6.113
30863WAT      O92830   4.668   2.538   8.223
30863WAT     H192831   4.618   2.485   8.154
30863WAT     H292832   4.766   2.528   8.207
30864WAT      O92833   1.554   5.722   8.335
30864WAT     H192834   1.609   5.725   8.419
30864WAT     H292835   1.558   5.811   8.290
30865WAT      O92836   4.613   2.202   6.401
30865WAT     H192837   4.712   2.191   6.413
30865WAT     H292838   4.589   2.182   6.306
30866WAT      O92839   5.873   0.714   5.914
30866WAT     H192840   5.813   0.680   5.842
30866WAT     H292841   5.936   0.641   5.942
30867WAT      O92842   1.118   9.248   2.078
30867WAT     H192843   1.164   9.337   2.075
30867WAT     H292844   1.075   9.230   1.989
30868WAT      O92845   6.455   4.473   2.939
30868WAT     H192846   6.412   4.485   3.029
30868WAT     H292847   6.503   4.557   2.914
30869WAT      O92848   8.179   1.894   9.089
30869WAT     H192849   8.089   1.856   9.107
30869WAT     H292850   8.223   1.920   9.175
30870WAT      O92851   5.676   4.233   1.900
30870WAT     H192852   5.691   4.197   1.808
30870WAT     H292853   5.596   4.187   1.941
30871WAT      O92854   3.133   2.123   5.025
30871WAT     H192855   3.050   2.179   5.025
30871WAT     H292856   3.113   2.033   5.062
30872WAT      O92857   0.559   4.059   3.795
30872WAT     H192858   0.484   4.065   3.729
30872WAT     H292859   0.547   3.977   3.851
30873WAT      O92860   8.391   5.321   3.994
30873WAT     H192861   8.375   5.420   4.000
30873WAT     H292862   8.408   5.284   4.086
30874WAT      O92863   4.901   8.181   7.882
30874WAT     H192864   4.862   8.111   7.821
30874WAT     H292865   4.836   8.256   7.891
30875WAT      O92866   5.231   6.349   1.116
30875WAT     H192867   5.181   6.263   1.126
30875WAT     H292868   5.240   6.371   1.019
30876WAT      O92869   2.538   2.667   2.841
30876WAT     H192870   2.513   2.743   2.781
30876WAT     H292871   2.563   2.703   2.931
30877WAT      O92872   0.973   8.840   0.572
30877WAT     H192873   1.056   8.783   0.564
30877WAT     H292874   0.895   8.782   0.596
30878WAT      O92875   0.962   7.076   0.408
30878WAT     H192876   1.032   7.073   0.336
30878WAT     H292877   0.997   7.029   0.489
30879WAT      O92878   0.721   2.130   8.128
30879WAT     H192879   0.637   2.181   8.145
30879WAT     H292880   0.702   2.054   8.067
30880WAT      O92881   2.358   4.957   8.754
30880WAT     H192882   2.342   5.046   8.797
30880WAT     H292883   2.456   4.947   8.734
30881WAT      O92884   7.680   2.649   8.599
30881WAT     H192885   7.661   2.703   8.681
30881WAT     H292886   7.670   2.706   8.518
30882WAT      O92887   8.522   6.362   5.145
30882WAT     H192888   8.594   6.293   5.140
30882WAT     H292889   8.545   6.430   5.215
30883WAT      O92890   9.094   7.884   5.323
30883WAT     H192891   9.116   7.968   5.371
30883WAT     H292892   8.996   7.880   5.306
30884WAT      O92893   8.670   8.035   7.738
30884WAT     H192894   8.767   8.013   7.747
30884WAT     H292895   8.659   8.109   7.671
30885WAT      O92896   0.092   1.867   5.186
30885WAT     H192897   0.070   1.778   5.226
30885WAT     H292898   0.017   1.931   5.205
30886WAT      O92899   4.257   7.478   6.889
30886WAT     H192900   4.216   7.389   6.908
30886WAT     H292901   4.312   7.506   6.968
30887WAT      O92902   9.446   8.157   9.188
30887WAT     H192903   9.540   8.147   9.222
30887WAT     H292904   9.448   8.184   9.092
30888WAT      O92905   2.517   5.791   9.136
30888WAT     H192906   2.597   5.780   9.195
30888WAT     H292907   2.477   5.702   9.117
30889WAT      O92908   8.682   6.327   7.842
30889WAT     H192909   8.768   6.377   7.830
30889WAT     H292910   8.682   6.246   7.784
30890WAT      O92911   0.586   2.479   4.131
30890WAT     H192912   0.552   2.490   4.038
30890WAT     H292913   0.673   2.429   4.128
30891WAT      O92914   3.563   0.172   5.678
30891WAT     H192915   3.536   0.096   5.738
30891WAT     H292916   3.638   0.142   5.619
30892WAT      O92917   1.207   0.252   1.081
30892WAT     H192918   1.136   0.318   1.057
30892WAT     H292919   1.240   0.270   1.174
30893WAT      O92920   3.908   5.857   5.203
30893WAT     H192921   3.980   5.794   5.174
30893WAT     H292922   3.938   5.905   5.286
30894WAT      O92923   0.743   8.939   2.594
30894WAT     H192924   0.702   8.881   2.525
30894WAT     H292925   0.717   9.034   2.578
30895WAT      O92926   4.799   0.999   5.623
30895WAT     H192927   4.832   0.906   5.641
30895WAT     H292928   4.863   1.046   5.562
30896WAT      O92929   5.467   1.576   6.158
30896WAT     H192930   5.373   1.547   6.174
30896WAT     H292931   5.520   1.566   6.242
30897WAT      O92932   4.275   6.578   2.374
30897WAT     H192933   4.227   6.583   2.286
30897WAT     H292934   4.258   6.489   2.416
30898WAT      O92935   7.617   3.070   5.415
30898WAT     H192936   7.581   3.070   5.508
30898WAT     H292937   7.548   3.033   5.353
30899WAT      O92938   7.199   9.378   6.011
30899WAT     H192939   7.129   9.448   6.021
30899WAT     H292940   7.280   9.404   6.064
30900WAT      O92941   9.735   2.182   9.035
30900WAT     H192942   9.727   2.239   9.116
30900WAT     H292943   9.825   2.197   8.992
30901WAT      O92944   9.315   2.455   5.140
30901WAT     H192945   9.414   2.451   5.123
30901WAT     H292946   9.292   2.544   5.180
30902WAT      O92947   9.569   9.779   6.766
30902WAT     H192948   9.520   9.847   6.821
30902WAT     H292949   9.611   9.712   6.827
30903WAT      O92950   6.622   3.176   2.109
30903WAT     H192951   6.679   3.223   2.041
30903WAT     H292952   6.636   3.077   2.101
30904WAT      O92953   1.691   1.580   3.529
30904WAT     H192954   1.656   1.532   3.609
30904WAT     H292955   1.643   1.548   3.447
30905WAT      O92956   2.440   7.249   5.281
30905WAT     H192957   2.508   7.295   5.224
30905WAT     H292958   2.485   7.175   5.333
30906WAT      O92959   1.175   5.873   3.503
30906WAT     H192960   1.197   5.969   3.523
30906WAT     H292961   1.224   5.844   3.422
30907WAT      O92962   0.800   2.456   1.809
30907WAT     H192963   0.843   2.464   1.719
30907WAT     H292964   0.713   2.505   1.809
30908WAT      O92965   0.134   6.734   0.134
30908WAT     H192966   0.111   6.721   0.230
30908WAT     H292967   0.068   6.797   0.092
30909WAT      O92968   4.867   7.383   3.832
30909WAT     H192969   4.943   7.340   3.881
30909WAT     H292970   4.781   7.349   3.870
30910WAT      O92971   4.070   1.627   6.471
30910WAT     H192972   4.050   1.584   6.383
30910WAT     H292973   4.009   1.705   6.484
30911WAT      O92974   5.735   7.656   6.993
30911WAT     H192975   5.806   7.719   6.963
30911WAT     H292976   5.762   7.614   7.080
30912WAT      O92977   9.044   0.454   1.111
30912WAT     H192978   9.004   0.364   1.129
30912WAT     H292979   9.125   0.466   1.167
30913WAT      O92980   3.210   9.795   3.481
30913WAT     H192981   3.253   9.885   3.473
30913WAT     H292982   3.207   9.768   3.577
30914WAT      O92983   1.641   5.907   1.297
30914WAT     H192984   1.646   5.937   1.202
30914WAT     H292985   1.633   5.807   1.300
30915WAT      O92986   4.182   2.906   7.637
30915WAT     H192987   4.234   2.918   7.551
30915WAT     H292988   4.085   2.918   7.618
30916WAT      O92989   3.488   9.524   3.289
30916WAT     H192990   3.559   9.570   3.341
30916WAT     H292991   3.419   9.488   3.351
30917WAT      O92992   2.501   8.288   3.162
30917WAT     H192993   2.548   8.371   3.191
30917WAT     H292994   2.520   8.214   3.227
30918WAT      O92995   9.291   4.471   1.132
30918WAT     H192996   9.248   4.426   1.054
30918WAT     H292997   9.338   4.554   1.101
30919WAT      O92998   1.549   3.624   9.456
30919WAT     H192999   1.625   3.615   9.521
30919WAT     H293000   1.545   3.717   9.422
30920WAT      O93001   0.651   5.207   6.743
30920WAT     H193002   0.562   5.207   6.790
30920WAT     H293003   0.716   5.261   6.796
30921WAT      O93004   0.470   5.796   4.695
30921WAT     H193005   0.419   5.867   4.742
30921WAT     H293006   0.416   5.760   4.619
30922WAT      O93007   8.618   4.674   6.615
30922WAT     H193008   8.580   4.593   6.659
30922WAT     H293009   8.661   4.733   6.684
30923WAT      O93010   4.011   2.917   8.442
30923WAT     H193011   3.959   2.849   8.493
30923WAT     H293012   3.993   3.008   8.479
30924WAT      O93013   3.689   6.756   6.965
30924WAT     H193014   3.771   6.800   6.928
30924WAT     H293015   3.639   6.821   7.022
30925WAT      O93016   2.872   0.166   4.465
30925WAT     H193017   2.824   0.198   4.383
30925WAT     H293018   2.908   0.074   4.450
30926WAT      O93019   1.146   2.569   6.167
30926WAT     H193020   1.106   2.655   6.198
30926WAT     H293021   1.112   2.494   6.223
30927WAT      O93022   6.246   3.152   3.086
30927WAT     H193023   6.330   3.186   3.044
30927WAT     H293024   6.193   3.102   3.017
30928WAT      O93025   2.509   4.519   0.069
30928WAT     H193026   2.458   4.599   0.038
30928WAT     H293027   2.465   4.480   0.150
30929WAT      O93028   0.489   3.388   7.280
30929WAT     H193029   0.495   3.456   7.207
30929WAT     H293030   0.486   3.434   7.369
30930WAT      O93031   2.026   3.459   3.719
30930WAT     H193032   1.930   3.435   3.729
30930WAT     H293033   2.041   3.551   3.756
30931WAT      O93034   1.431   1.048   5.599
30931WAT     H193035   1.529   1.065   5.586
30931WAT     H293036   1.387   1.040   5.509
30932WAT      O93037   7.657   3.843   7.025
30932WAT     H193038   7.567   3.811   6.996
30932WAT     H293039   7.709   3.875   6.946
30933WAT      O93040   1.793   6.379   9.670
30933WAT     H193041   1.732   6.442   9.717
30933WAT     H293042   1.842   6.323   9.737
30934WAT      O93043   1.117   8.826   8.482
30934WAT     H193044   1.172   8.763   8.427
30934WAT     H293045   1.087   8.903   8.425
30935WAT      O93046   2.261   9.352   9.786
30935WAT     H193047   2.281   9.257   9.765
30935WAT     H293048   2.263   9.407   9.703
30936WAT      O93049   3.034   4.358   2.395
30936WAT     H193050   3.079   4.323   2.477
30936WAT     H293051   3.099   4.411   2.341
30937WAT      O93052   2.336   5.738   7.501
30937WAT     H193053   2.378   5.661   7.548
30937WAT     H293054   2.300   5.707   7.412
30938WAT      O93055   2.888   8.844   4.376
30938WAT     H193056   2.877   8.757   4.423
30938WAT     H293057   2.899   8.918   4.442
30939WAT      O93058   2.496   1.425   7.648
30939WAT     H193059   2.416   1.457   7.699
30939WAT     H293060   2.567   1.495   7.649
30940WAT      O93061   6.908   8.411   5.699
30940WAT     H193062   6.866   8.380   5.785
30940WAT     H293063   6.848   8.477   5.654
30941WAT      O93064   9.238   3.951   5.472
30941WAT     H193065   9.163   3.888   5.454
30941WAT     H293066   9.205   4.027   5.528
30942WAT      O93067   3.226   5.542   4.612
30942WAT     H193068   3.273   5.605   4.674
30942WAT     H293069   3.243   5.448   4.641
30943WAT      O93070   7.845   5.214   7.936
30943WAT     H193071   7.765   5.174   7.980
30943WAT     H293072   7.926   5.194   7.991
30944WAT      O93073   7.442   4.927   6.551
30944WAT     H193074   7.363   4.970   6.595
30944WAT     H293075   7.526   4.969   6.586
30945WAT      O93076   5.636   7.005   1.412
30945WAT     H193077   5.604   6.916   1.446
30945WAT     H293078   5.734   7.002   1.397
30946WAT      O93079   5.882   3.801   9.078
30946WAT     H193080   5.933   3.778   9.161
30946WAT     H293081   5.856   3.897   9.080
30947WAT      O93082   3.210   0.459   8.128
30947WAT     H193083   3.116   0.437   8.102
30947WAT     H293084   3.253   0.515   8.057
30948WAT      O93085   1.866   9.080   7.398
30948WAT     H193086   1.906   9.140   7.330
30948WAT     H293087   1.775   9.114   7.424
30949WAT      O93088   8.824   9.502   4.047
30949WAT     H193089   8.880   9.447   4.109
30949WAT     H293090   8.826   9.597   4.077
30950WAT      O93091   1.991   2.837   4.354
30950WAT     H193092   2.026   2.748   4.326
30950WAT     H293093   2.056   2.880   4.416
30951WAT      O93094   5.609   1.748   2.706
30951WAT     H193095   5.686   1.693   2.740
30951WAT     H293096   5.626   1.774   2.611
30952WAT      O93097   0.791   8.958   5.089
30952WAT     H193098   0.691   8.960   5.095
30952WAT     H293099   0.827   9.044   5.124
30953WAT      O93100   3.481   7.584   2.438
30953WAT     H193101   3.567   7.534   2.427
30953WAT     H293102   3.439   7.560   2.526
30954WAT      O93103   8.203   6.711   6.935
30954WAT     H193104   8.215   6.727   7.033
30954WAT     H293105   8.105   6.706   6.914
30955WAT      O93106   7.729   4.256   4.417
30955WAT     H193107   7.777   4.168   4.411
30955WAT     H293108   7.642   4.244   4.464
30956WAT      O93109   9.411   7.532   7.022
30956WAT     H193110   9.470   7.519   6.942
30956WAT     H293111   9.450   7.484   7.100
30957WAT      O93112   0.649   3.156   6.427
30957WAT     H193113   0.660   3.255   6.426
30957WAT     H293114   0.559   3.132   6.463
30958WAT      O93115   9.689   7.332   7.691
30958WAT     H193116   9.643   7.420   7.698
30958WAT     H293117   9.779   7.344   7.651
30959WAT      O93118   8.227   3.129   8.813
30959WAT     H193119   8.292   3.065   8.853
30959WAT     H293120   8.270   3.220   8.807
30960WAT      O93121   1.786   5.817   2.786
30960WAT     H193122   1.769   5.785   2.880
30960WAT     H293123   1.725   5.769   2.723
30961WAT      O93124   2.523   6.227   3.754
30961WAT     H193125   2.621   6.208   3.752
30961WAT     H293126   2.479   6.184   3.676
30962WAT      O93127   8.845   1.211   6.986
30962WAT     H193128   8.787   1.291   6.968
30962WAT     H293129   8.939   1.233   6.962
30963WAT      O93130   6.247   6.596   2.513
30963WAT     H193131   6.303   6.612   2.595
30963WAT     H293132   6.154   6.573   2.540
30964WAT      O93133   4.746   5.089   4.821
30964WAT     H193134   4.768   5.126   4.911
30964WAT     H293135   4.663   5.133   4.786
30965WAT      O93136   7.127   4.529   2.779
30965WAT     H193137   7.151   4.559   2.686
30965WAT     H293138   7.208   4.533   2.837
30966WAT      O93139   8.507   4.462   2.738
30966WAT     H193140   8.502   4.430   2.643
30966WAT     H293141   8.577   4.409   2.787
30967WAT      O93142   4.084   6.846   7.824
30967WAT     H193143   4.064   6.831   7.728
30967WAT     H293144   4.123   6.938   7.837
30968WAT      O93145   3.684   2.567   7.425
30968WAT     H193146   3.673   2.665   7.438
30968WAT     H293147   3.598   2.528   7.390
30969WAT      O93148   7.087   0.235   2.343
30969WAT     H193149   7.015   0.177   2.380
30969WAT     H293150   7.107   0.209   2.249
30970WAT      O93151   6.406   0.912   0.822
30970WAT     H193152   6.367   0.929   0.732
30970WAT     H293153   6.431   0.999   0.865
30971WAT      O93154   4.382   0.940   5.344
30971WAT     H193155   4.314   0.962   5.415
30971WAT     H293156   4.459   1.003   5.350
30972WAT      O93157   0.231   4.327   1.840
30972WAT     H193158   0.174   4.405   1.864
30972WAT     H293159   0.327   4.355   1.838
30973WAT      O93160   0.285   3.957   9.071
30973WAT     H193161   0.290   4.010   8.986
30973WAT     H293162   0.258   3.863   9.050
30974WAT      O93163   9.493   1.862   9.312
30974WAT     H193164   9.465   1.946   9.264
30974WAT     H293165   9.425   1.790   9.294
30975WAT      O93166   5.910   9.345   9.590
30975WAT     H193167   5.855   9.407   9.647
30975WAT     H293168   5.920   9.385   9.499
30976WAT      O93169   5.299   2.578   4.271
30976WAT     H193170   5.342   2.528   4.196
30976WAT     H293171   5.331   2.673   4.271
30977WAT      O93172   1.476   3.150   2.028
30977WAT     H193173   1.545   3.220   2.007
30977WAT     H293174   1.491   3.070   1.970
30978WAT      O93175   4.125   3.412   2.605
30978WAT     H193176   4.221   3.437   2.611
30978WAT     H293177   4.105   3.342   2.673
30979WAT      O93178   9.099   7.289   3.647
30979WAT     H193179   9.123   7.223   3.576
30979WAT     H293180   9.178   7.349   3.666
30980WAT      O93181   7.139   4.016   5.182
30980WAT     H193182   7.065   4.069   5.141
30980WAT     H293183   7.178   3.954   5.114
30981WAT      O93184   6.616   4.355   7.509
30981WAT     H193185   6.701   4.307   7.526
30981WAT     H293186   6.542   4.311   7.560
30982WAT      O93187   4.240   7.350   7.424
30982WAT     H193188   4.164   7.406   7.390
30982WAT     H293189   4.277   7.391   7.507
30983WAT      O93190   8.553   3.673   8.995
30983WAT     H193191   8.566   3.584   8.951
30983WAT     H293192   8.491   3.663   9.072
30984WAT      O93193   0.942   6.284   0.151
30984WAT     H193194   1.014   6.244   0.208
30984WAT     H293195   0.948   6.384   0.156
30985WAT      O93196   0.975   8.431   4.632
30985WAT     H193197   1.023   8.361   4.685
30985WAT     H293198   1.036   8.508   4.615
30986WAT      O93199   7.625   6.657   3.033
30986WAT     H193200   7.680   6.735   3.005
30986WAT     H293201   7.684   6.577   3.044
30987WAT      O93202   9.660   8.458   7.771
30987WAT     H193203   9.730   8.483   7.704
30987WAT     H293204   9.578   8.426   7.723
30988WAT      O93205   4.577   5.572   9.424
30988WAT     H193206   4.549   5.493   9.479
30988WAT     H293207   4.516   5.649   9.442
30989WAT      O93208   7.463   4.562   8.410
30989WAT     H193209   7.546   4.516   8.439
30989WAT     H293210   7.383   4.512   8.444
30990WAT      O93211   2.700   7.323   4.412
30990WAT     H193212   2.639   7.401   4.396
30990WAT     H293213   2.766   7.346   4.484
30991WAT      O93214   8.742   2.580   1.155
30991WAT     H193215   8.646   2.594   1.179
30991WAT     H293216   8.785   2.669   1.140
30992WAT      O93217   1.761   2.169   9.868
30992WAT     H193218   1.746   2.213   9.779
30992WAT     H293219   1.729   2.075   9.865
30993WAT      O93220   5.178   8.068   6.090
30993WAT     H193221   5.220   8.001   6.028
30993WAT     H293222   5.107   8.118   6.041
30994WAT      O93223   9.547   4.655   8.838
30994WAT     H193224   9.574   4.689   8.748
30994WAT     H293225   9.540   4.732   8.902
30995WAT      O93226   0.259   6.683   3.436
30995WAT     H193227   0.191   6.754   3.457
30995WAT     H293228   0.221   6.593   3.456
30996WAT      O93229   9.828   4.735   6.091
30996WAT     H193230   9.752   4.742   6.155
30996WAT     H293231   9.870   4.825   6.078
30997WAT      O93232   7.293   6.531   1.363
30997WAT     H193233   7.327   6.609   1.310
30997WAT     H293234   7.297   6.448   1.307
30998WAT      O93235   3.365   3.061   2.674
30998WAT     H193236   3.449   3.013   2.650
30998WAT     H293237   3.356   3.066   2.773
30999WAT      O93238   7.229   9.521   9.844
30999WAT     H193239   7.145   9.567   9.818
30999WAT     H293240   7.230   9.506   9.943
31000WAT      O93241   2.853   9.518   7.166
31000WAT     H193242   2.836   9.444   7.101
31000WAT     H293243   2.771   9.576   7.173
31001WAT      O93244   3.801   5.602   3.802
31001WAT     H193245   3.815   5.581   3.899
31001WAT     H293246   3.886   5.638   3.764
31002WAT      O93247   7.867   8.608   5.851
31002WAT     H193248   7.941   8.577   5.911
31002WAT     H293249   7.803   8.664   5.904
31003WAT      O93250   5.406   7.298   1.982
31003WAT     H193251   5.399   7.240   2.063
31003WAT     H293252   5.342   7.266   1.912
31004WAT      O93253   0.052   9.333   5.243
31004WAT     H193254   0.097   9.249   5.272
31004WAT     H293255  -0.032   9.347   5.296
31005WAT      O93256   3.551   2.841   2.347
31005WAT     H193257   3.569   2.874   2.440
31005WAT     H293258   3.454   2.824   2.336
31006WAT      O93259   9.158   7.016   8.621
31006WAT     H193260   9.084   7.005   8.555
31006WAT     H293261   9.240   7.050   8.574
31007WAT      O93262   8.349   0.216   0.679
31007WAT     H193263   8.370   0.221   0.582
31007WAT     H293264   8.370   0.304   0.722
31008WAT      O93265   4.263   1.185   9.846
31008WAT     H193266   4.292   1.278   9.823
31008WAT     H293267   4.302   1.121   9.780
31009WAT      O93268   9.154   5.023   5.439
31009WAT     H193269   9.171   4.941   5.385
31009WAT     H293270   9.152   4.999   5.537
31010WAT      O93271   1.325   0.382   5.058
31010WAT     H193272   1.295   0.288   5.070
31010WAT     H293273   1.386   0.407   5.133
31011WAT      O93274   0.446   8.630   1.386
31011WAT     H193275   0.347   8.618   1.379
31011WAT     H293276   0.484   8.647   1.295
31012WAT      O93277   9.603   0.412   7.860
31012WAT     H193278   9.697   0.408   7.827
31012WAT     H293279   9.558   0.494   7.826
31013WAT      O93280   0.741   6.161   8.210
31013WAT     H193281   0.753   6.098   8.134
31013WAT     H293282   0.648   6.154   8.245
31014WAT      O93283   0.275   4.615   1.642
31014WAT     H193284   0.254   4.692   1.703
31014WAT     H293285   0.338   4.553   1.688
31015WAT      O93286   6.379   3.262   2.232
31015WAT     H193287   6.463   3.215   2.205
31015WAT     H293288   6.354   3.328   2.161
31016WAT      O93289   3.545   2.549   6.604
31016WAT     H193290   3.551   2.473   6.670
31016WAT     H293291   3.589   2.630   6.643
31017WAT      O93292   3.436   1.351   1.228
31017WAT     H193293   3.527   1.390   1.243
31017WAT     H293294   3.434   1.257   1.261
31018WAT      O93295   6.281   7.110   0.428
31018WAT     H193296   6.187   7.078   0.435
31018WAT     H293297   6.344   7.034   0.443
31019WAT      O93298   7.959   0.353   8.752
31019WAT     H193299   7.878   0.396   8.711
31019WAT     H293300   7.966   0.259   8.720
31020WAT      O93301   1.032   3.052   0.654
31020WAT     H193302   1.027   3.066   0.753
31020WAT     H293303   1.110   3.103   0.617
31021WAT      O93304   0.658   0.367   6.808
31021WAT     H193305   0.566   0.405   6.801
31021WAT     H293306   0.652   0.269   6.827
31022WAT      O93307   5.404   3.529   0.300
31022WAT     H193308   5.427   3.465   0.374
31022WAT     H293309   5.453   3.503   0.217
31023WAT      O93310   9.804   3.194   4.615
31023WAT     H193311   9.862   3.219   4.537
31023WAT     H293312   9.714   3.236   4.605
31024WAT      O93313   2.656   5.876   0.635
31024WAT     H193314   2.675   5.916   0.545
31024WAT     H293315   2.559   5.852   0.641
31025WAT      O93316   9.518   5.240   4.142
31025WAT     H193317   9.593   5.226   4.078
31025WAT     H293318   9.486   5.335   4.136
31026WAT      O93319   8.272   4.341   7.825
31026WAT     H193320   8.188   4.389   7.800
31026WAT     H293321   8.302   4.373   7.915
31027WAT      O93322   6.454   9.394   5.985
31027WAT     H193323   6.407   9.388   6.073
31027WAT     H293324   6.496   9.305   5.964
31028WAT      O93325   3.554   4.386   3.625
31028WAT     H193326   3.612   4.467   3.626
31028WAT     H293327   3.459   4.413   3.639
31029WAT      O93328   0.011   5.164   6.487
31029WAT     H193329   0.101   5.190   6.454
31029WAT     H293330  -0.055   5.170   6.412
31030WAT      O93331   0.746   9.433   6.642
31030WAT     H193332   0.781   9.476   6.559
31030WAT     H293333   0.717   9.504   6.706
31031WAT      O93334   0.993   7.576   3.883
31031WAT     H193335   0.972   7.583   3.981
31031WAT     H293336   0.916   7.610   3.830
31032WAT      O93337   0.712   3.269   7.125
31032WAT     H193338   0.636   3.331   7.105
31032WAT     H293339   0.793   3.299   7.075
31033WAT      O93340   6.251   2.826   9.466
31033WAT     H193341   6.237   2.808   9.563
31033WAT     H293342   6.208   2.753   9.412
31034WAT      O93343   1.793   3.701   1.109
31034WAT     H193344   1.738   3.749   1.177
31034WAT     H293345   1.746   3.617   1.082
31035WAT      O93346   4.482   5.167   1.900
31035WAT     H193347   4.535   5.216   1.969
31035WAT     H293348   4.539   5.095   1.860
31036WAT      O93349   7.061   4.902   8.871
31036WAT     H193350   7.135   4.842   8.843
31036WAT     H293351   7.084   4.945   8.959
31037WAT      O93352   0.220   8.751   1.661
31037WAT     H193353   0.178   8.730   1.573
31037WAT     H293354   0.237   8.666   1.711
31038WAT      O93355   1.210   4.511   9.819
31038WAT     H193356   1.170   4.422   9.798
31038WAT     H293357   1.305   4.499   9.847
31039WAT      O93358   4.174   1.593   1.899
31039WAT     H193359   4.226   1.543   1.968
31039WAT     H293360   4.149   1.683   1.934
31040WAT      O93361   2.350   6.386   5.315
31040WAT     H193362   2.332   6.463   5.377
31040WAT     H293363   2.418   6.325   5.356
31041WAT      O93364   0.933   2.617   7.498
31041WAT     H193365   0.932   2.583   7.404
31041WAT     H293366   0.860   2.572   7.550
31042WAT      O93367   9.192   2.468   4.441
31042WAT     H193368   9.183   2.415   4.357
31042WAT     H293369   9.164   2.563   4.425
31043WAT      O93370   0.959   3.597   5.621
31043WAT     H193371   0.978   3.561   5.530
31043WAT     H293372   0.878   3.552   5.659
31044WAT      O93373   7.845   9.138   3.981
31044WAT     H193374   7.945   9.127   3.983
31044WAT     H293375   7.822   9.223   3.934
31045WAT      O93376   3.593   3.844   9.528
31045WAT     H193377   3.593   3.769   9.595
31045WAT     H293378   3.524   3.826   9.458
31046WAT      O93379   4.737   2.646   9.653
31046WAT     H193380   4.657   2.661   9.594
31046WAT     H293381   4.787   2.566   9.622
31047WAT      O93382   5.405   7.899   4.647
31047WAT     H193383   5.474   7.931   4.712
31047WAT     H293384   5.403   7.799   4.647
31048WAT      O93385   2.412   4.438   5.245
31048WAT     H193386   2.315   4.461   5.248
31048WAT     H293387   2.429   4.357   5.302
31049WAT      O93388   1.249   0.709   1.562
31049WAT     H193389   1.330   0.667   1.601
31049WAT     H293390   1.273   0.756   1.477
31050WAT      O93391   2.811   7.169   8.408
31050WAT     H193392   2.761   7.094   8.366
31050WAT     H293393   2.861   7.219   8.337
31051WAT      O93394   6.970   8.883   7.596
31051WAT     H193395   7.046   8.929   7.550
31051WAT     H293396   6.903   8.951   7.625
31052WAT      O93397   7.029   1.719   8.957
31052WAT     H193398   7.093   1.789   8.926
31052WAT     H293399   7.074   1.659   9.023
31053WAT      O93400   1.100   0.282   2.940
31053WAT     H193401   1.001   0.294   2.930
31053WAT     H293402   1.144   0.372   2.938
31054WAT      O93403   4.523   2.910   1.261
31054WAT     H193404   4.561   2.818   1.259
31054WAT     H293405   4.493   2.936   1.169
31055WAT      O93406   3.438   6.624   1.244
31055WAT     H193407   3.425   6.594   1.150
31055WAT     H293408   3.395   6.713   1.258
31056WAT      O93409   3.668   7.472   2.080
31056WAT     H193410   3.730   7.409   2.034
31056WAT     H293411   3.679   7.464   2.179
31057WAT      O93412   9.470   3.069   2.656
31057WAT     H193413   9.488   3.013   2.575
31057WAT     H293414   9.385   3.121   2.642
31058WAT      O93415   9.736   4.115   9.656
31058WAT     H193416   9.768   4.026   9.624
31058WAT     H293417   9.654   4.141   9.605
31059WAT      O93418   9.733   2.451   1.608
31059WAT     H193419   9.803   2.456   1.680
31059WAT     H293420   9.647   2.419   1.649
31060WAT      O93421   5.385   3.421   6.421
31060WAT     H193422   5.411   3.333   6.463
31060WAT     H293423   5.322   3.469   6.482
31061WAT      O93424   5.403   2.238   4.297
31061WAT     H193425   5.351   2.299   4.358
31061WAT     H293426   5.339   2.179   4.247
31062WAT      O93427   3.866   7.770   5.124
31062WAT     H193428   3.880   7.840   5.194
31062WAT     H293429   3.951   7.755   5.074
31063WAT      O93430   1.821   5.220   7.571
31063WAT     H193431   1.744   5.164   7.542
31063WAT     H293432   1.793   5.316   7.575
31064WAT      O93433   7.752   2.390   5.688
31064WAT     H193434   7.826   2.351   5.634
31064WAT     H293435   7.734   2.332   5.767
31065WAT      O93436   4.973   7.162   1.112
31065WAT     H193437   5.046   7.225   1.083
31065WAT     H293438   4.966   7.165   1.212
31066WAT      O93439   8.575   7.400   1.516
31066WAT     H193440   8.634   7.320   1.505
31066WAT     H293441   8.631   7.479   1.542
31067WAT      O93442   2.926   5.870   4.276
31067WAT     H193443   2.959   5.965   4.280
31067WAT     H293444   3.005   5.809   4.268
31068WAT      O93445   2.677   4.109   2.790
31068WAT     H193446   2.721   4.196   2.809
31068WAT     H293447   2.579   4.124   2.771
31069WAT      O93448   6.587   1.952   2.228
31069WAT     H193449   6.530   1.899   2.165
31069WAT     H293450   6.681   1.920   2.224
31070WAT      O93451   6.953   5.537   6.590
31070WAT     H193452   6.966   5.540   6.689
31070WAT     H293453   6.996   5.456   6.552
31071WAT      O93454   0.189   0.321   7.689
31071WAT     H193455   0.284   0.301   7.665
31071WAT     H293456   0.187   0.387   7.765
31072WAT      O93457   0.688   5.864   9.747
31072WAT     H193458   0.781   5.869   9.783
31072WAT     H293459   0.689   5.819   9.658
31073WAT      O93460   5.897   5.244   2.303
31073WAT     H193461   5.963   5.221   2.374
31073WAT     H293462   5.919   5.333   2.264
31074WAT      O93463   0.754   1.192   9.410
31074WAT     H193464   0.686   1.201   9.337
31074WAT     H293465   0.745   1.269   9.473
31075WAT      O93466   2.367   4.171   2.994
31075WAT     H193467   2.288   4.209   3.042
31075WAT     H293468   2.377   4.215   2.905
31076WAT      O93469   5.978   1.122   4.770
31076WAT     H193470   5.965   1.123   4.671
31076WAT     H293471   6.051   1.186   4.794
31077WAT      O93472   2.253   5.987   5.254
31077WAT     H193473   2.339   5.938   5.236
31077WAT     H293474   2.206   6.005   5.168
31078WAT      O93475   3.926   1.332   5.332
31078WAT     H193476   4.025   1.338   5.340
31078WAT     H293477   3.897   1.373   5.245
31079WAT      O93478   1.340   7.279   5.505
31079WAT     H193479   1.346   7.251   5.409
31079WAT     H293480   1.255   7.244   5.545
31080WAT      O93481   6.303   0.661   3.598
31080WAT     H193482   6.256   0.573   3.602
31080WAT     H293483   6.249   0.726   3.544
31081WAT      O93484   1.020   8.908   5.322
31081WAT     H193485   1.005   9.003   5.294
31081WAT     H293486   1.105   8.875   5.281
31082WAT      O93487   2.195   4.604   0.546
31082WAT     H193488   2.163   4.694   0.578
31082WAT     H293489   2.136   4.573   0.471
31083WAT      O93490   7.274   3.876   0.523
31083WAT     H193491   7.224   3.803   0.477
31083WAT     H293492   7.277   3.956   0.464
31084WAT      O93493   5.982   9.403   6.881
31084WAT     H193494   6.076   9.370   6.878
31084WAT     H293495   5.973   9.482   6.821
31085WAT      O93496   9.145   8.969   4.337
31085WAT     H193497   9.183   8.950   4.247
31085WAT     H293498   9.163   8.891   4.398
31086WAT      O93499   2.137   7.968   4.771
31086WAT     H193500   2.170   8.031   4.841
31086WAT     H293501   2.152   8.009   4.680
31087WAT      O93502   3.080   6.972   9.425
31087WAT     H193503   3.053   7.065   9.451
31087WAT     H293504   3.173   6.973   9.387
31088WAT      O93505   9.785   4.095   5.997
31088WAT     H193506   9.736   4.182   5.988
31088WAT     H293507   9.719   4.019   5.996
31089WAT      O93508   4.974   7.371   1.445
31089WAT     H193509   5.070   7.393   1.463
31089WAT     H293510   4.963   7.272   1.439
31090WAT      O93511   2.666   7.871   5.202
31090WAT     H193512   2.675   7.834   5.295
31090WAT     H293513   2.730   7.825   5.141
31091WAT      O93514   8.183   1.646   3.919
31091WAT     H193515   8.083   1.639   3.911
31091WAT     H293516   8.210   1.742   3.915
31092WAT      O93517   2.280   1.817   0.682
31092WAT     H193518   2.269   1.829   0.584
31092WAT     H293519   2.193   1.832   0.729
31093WAT      O93520   1.090   7.862   8.587
31093WAT     H193521   1.056   7.771   8.609
31093WAT     H293522   1.013   7.921   8.560
31094WAT      O93523   4.534   0.696   2.964
31094WAT     H193524   4.579   0.773   3.011
31094WAT     H293525   4.603   0.637   2.923
31095WAT      O93526   9.477   2.456   9.152
31095WAT     H193527   9.442   2.365   9.128
31095WAT     H293528   9.457   2.474   9.249
31096WAT      O93529   0.149   0.305   1.956
31096WAT     H193530   0.159   0.402   1.933
31096WAT     H293531   0.091   0.260   1.889
31097WAT      O93532   5.285   7.844   1.067
31097WAT     H193533   5.368   7.876   1.114
31097WAT     H293534   5.247   7.766   1.117
31098WAT      O93535   4.713   8.072   4.419
31098WAT     H193536   4.777   7.995   4.409
31098WAT     H293537   4.642   8.047   4.485
31099WAT      O93538   9.197   7.319   7.980
31099WAT     H193539   9.219   7.316   8.078
31099WAT     H293540   9.098   7.323   7.967
31100WAT      O93541   6.219   0.783   3.055
31100WAT     H193542   6.191   0.879   3.065
31100WAT     H293543   6.184   0.730   3.132
31101WAT      O93544   8.753   3.163   8.953
31101WAT     H193545   8.837   3.215   8.935
31101WAT     H293546   8.759   3.120   9.043
31102WAT      O93547   7.507   1.337   7.848
31102WAT     H193548   7.596   1.319   7.891
31102WAT     H293549   7.462   1.413   7.895
31103WAT      O93550   3.649   9.775   4.934
31103WAT     H193551   3.612   9.728   5.014
31103WAT     H293552   3.579   9.837   4.897
31104WAT      O93553   9.527   0.148   1.523
31104WAT     H193554   9.494   0.087   1.452
31104WAT     H293555   9.576   0.224   1.481
31105WAT      O93556   4.124   5.301   7.049
31105WAT     H193557   4.107   5.260   6.959
31105WAT     H293558   4.127   5.401   7.040
31106WAT      O93559   5.775   8.671   8.487
31106WAT     H193560   5.727   8.723   8.417
31106WAT     H293561   5.789   8.728   8.567
31107WAT      O93562   3.254   3.292   4.335
31107WAT     H193563   3.213   3.382   4.349
31107WAT     H293564   3.353   3.298   4.352
31108WAT      O93565   2.255   7.858   8.922
31108WAT     H193566   2.276   7.956   8.913
31108WAT     H293567   2.205   7.827   8.841
31109WAT      O93568   2.936   3.855   9.310
31109WAT     H193569   2.879   3.802   9.247
31109WAT     H293570   2.952   3.802   9.393
31110WAT      O93571   8.996   7.526   5.199
31110WAT     H193572   8.945   7.612   5.189
31110WAT     H293573   9.052   7.530   5.282
31111WAT      O93574   8.736   4.337   3.771
31111WAT     H193575   8.659   4.316   3.712
31111WAT     H293576   8.807   4.384   3.718
31112WAT      O93577   9.372   4.236   7.146
31112WAT     H193578   9.312   4.273   7.075
31112WAT     H293579   9.331   4.154   7.185
31113WAT      O93580   2.593   8.098   5.017
31113WAT     H193581   2.536   8.034   4.966
31113WAT     H293582   2.637   8.050   5.094
31114WAT      O93583   2.080   1.114   7.934
31114WAT     H193584   2.150   1.092   7.866
31114WAT     H293585   2.116   1.093   8.026
31115WAT      O93586   9.491   3.055   0.410
31115WAT     H193587   9.453   3.137   0.366
31115WAT     H293588   9.453   3.045   0.502
31116WAT      O93589   4.678   7.738   6.116
31116WAT     H193590   4.590   7.784   6.102
31116WAT     H293591   4.662   7.640   6.132
31117WAT      O93592   5.801   3.078   3.005
31117WAT     H193593   5.761   3.140   2.938
31117WAT     H293594   5.888   3.042   2.972
31118WAT      O93595   8.167   1.731   0.930
31118WAT     H193596   8.225   1.649   0.922
31118WAT     H293597   8.210   1.806   0.880
31119WAT      O93598   6.765   6.241   8.940
31119WAT     H193599   6.837   6.180   8.908
31119WAT     H293600   6.790   6.336   8.921
31120WAT      O93601   5.580   9.127   7.705
31120WAT     H193602   5.618   9.110   7.613
31120WAT     H293603   5.620   9.062   7.769
31121WAT      O93604   5.397   7.886   3.251
31121WAT     H193605   5.361   7.792   3.256
31121WAT     H293606   5.421   7.917   3.343
31122WAT      O93607   1.244   9.642   0.947
31122WAT     H193608   1.201   9.649   1.037
31122WAT     H293609   1.343   9.638   0.957
31123WAT      O93610   7.150   5.471   4.997
31123WAT     H193611   7.071   5.412   5.016
31123WAT     H293612   7.193   5.499   5.083
31124WAT      O93613   9.806   4.153   1.326
31124WAT     H193614   9.841   4.110   1.243
31124WAT     H293615   9.719   4.111   1.351
31125WAT      O93616   1.532   3.926   0.185
31125WAT     H193617   1.448   3.880   0.157
31125WAT     H293618   1.591   3.861   0.233
31126WAT      O93619   8.630   8.355   6.405
31126WAT     H193620   8.644   8.318   6.497
31126WAT     H293621   8.588   8.285   6.347
31127WAT      O93622   4.210   8.950   5.115
31127WAT     H193623   4.302   8.910   5.108
31127WAT     H293624   4.160   8.904   5.188
31128WAT      O93625   6.396   0.007   3.661
31128WAT     H193626   6.381   0.010   3.760
31128WAT     H293627   6.478  -0.046   3.641
31129WAT      O93628   8.328   8.740   3.363
31129WAT     H193629   8.290   8.649   3.346
31129WAT     H293630   8.418   8.730   3.407
31130WAT      O93631   7.284   7.557   1.591
31130WAT     H193632   7.259   7.639   1.643
31130WAT     H293633   7.317   7.486   1.654
31131WAT      O93634   5.910   4.709   9.738
31131WAT     H193635   5.977   4.766   9.691
31131WAT     H293636   5.868   4.762   9.812
31132WAT      O93637   2.739   9.508   2.771
31132WAT     H193638   2.738   9.483   2.674
31132WAT     H293639   2.645   9.520   2.803
31133WAT      O93640   7.132   4.709   5.447
31133WAT     H193641   7.080   4.708   5.362
31133WAT     H293642   7.122   4.620   5.493
31134WAT      O93643   3.209   6.444   0.607
31134WAT     H193644   3.288   6.420   0.551
31134WAT     H293645   3.201   6.380   0.683
31135WAT      O93646   0.717   2.089   8.610
31135WAT     H193647   0.768   2.107   8.526
31135WAT     H293648   0.775   2.107   8.689
31136WAT      O93649   6.566   2.340   4.627
31136WAT     H193650   6.506   2.329   4.548
31136WAT     H293651   6.529   2.288   4.704
31137WAT      O93652   0.834   7.991   4.693
31137WAT     H193653   0.802   8.024   4.604
31137WAT     H293654   0.934   7.995   4.696
31138WAT      O93655   9.288   5.258   4.762
31138WAT     H193656   9.317   5.343   4.807
31138WAT     H293657   9.277   5.187   4.831
31139WAT      O93658   8.430   4.846   1.834
31139WAT     H193659   8.454   4.915   1.903
31139WAT     H293660   8.333   4.852   1.813
31140WAT      O93661   8.992   9.467   1.299
31140WAT     H193662   8.910   9.469   1.355
31140WAT     H293663   8.967   9.463   1.202
31141WAT      O93664   1.555   2.553   9.275
31141WAT     H193665   1.557   2.624   9.345
31141WAT     H293666   1.526   2.592   9.188
31142WAT      O93667   0.601   7.077   6.588
31142WAT     H193668   0.622   6.983   6.617
31142WAT     H293669   0.652   7.141   6.645
31143WAT      O93670   4.624   3.757   0.047
31143WAT     H193671   4.562   3.836   0.040
31143WAT     H293672   4.632   3.713  -0.042
31144WAT      O93673   5.887   8.784   8.756
31144WAT     H193674   5.971   8.750   8.713
31144WAT     H293675   5.886   8.758   8.852
31145WAT      O93676   4.184   2.416   1.032
31145WAT     H193677   4.149   2.427   1.124
31145WAT     H293678   4.180   2.319   1.006
31146WAT      O93679   3.610   1.240   9.624
31146WAT     H193680   3.624   1.199   9.715
31146WAT     H293681   3.599   1.339   9.634
31147WAT      O93682   5.976   1.803   6.401
31147WAT     H193683   5.977   1.898   6.368
31147WAT     H293684   6.061   1.758   6.373
31148WAT      O93685   7.636   9.470   1.933
31148WAT     H193686   7.626   9.507   1.841
31148WAT     H293687   7.723   9.501   1.972
31149WAT      O93688   9.341   2.900   4.362
31149WAT     H193689   9.328   2.923   4.266
31149WAT     H293690   9.301   2.811   4.381
31150WAT      O93691   2.798   4.062   0.729
31150WAT     H193692   2.897   4.061   0.740
31150WAT     H293693   2.770   3.986   0.671
31151WAT      O93694   9.108   5.006   5.716
31151WAT     H193695   9.120   5.101   5.743
31151WAT     H293696   9.011   4.981   5.722
31152WAT      O93697   2.099   3.093   5.421
31152WAT     H193698   2.032   3.149   5.371
31152WAT     H293699   2.127   3.016   5.365
31153WAT      O93700   7.237   0.760   4.276
31153WAT     H193701   7.230   0.710   4.190
31153WAT     H293702   7.281   0.703   4.345
31154WAT      O93703   5.151   2.464   3.642
31154WAT     H193704   5.237   2.458   3.692
31154WAT     H293705   5.139   2.381   3.587
31155WAT      O93706   2.471   7.446   2.420
31155WAT     H193707   2.486   7.522   2.357
31155WAT     H293708   2.559   7.412   2.453
31156WAT      O93709   5.740   9.547   9.724
31156WAT     H193710   5.796   9.620   9.762
31156WAT     H293711   5.644   9.575   9.724
31157WAT      O93712   8.817   0.382   8.726
31157WAT     H193713   8.843   0.401   8.821
31157WAT     H293714   8.766   0.296   8.722
31158WAT      O93715   7.552   8.315   8.843
31158WAT     H193716   7.509   8.348   8.927
31158WAT     H293717   7.484   8.269   8.786
31159WAT      O93718   8.625   5.939   8.685
31159WAT     H193719   8.725   5.938   8.675
31159WAT     H293720   8.584   5.964   8.597
31160WAT      O93721   8.428   0.292   5.375
31160WAT     H193722   8.397   0.359   5.307
31160WAT     H293723   8.499   0.334   5.433
31161WAT      O93724   5.433   1.620   8.918
31161WAT     H193725   5.381   1.633   9.003
31161WAT     H293726   5.503   1.551   8.932
31162WAT      O93727   5.786   8.079   5.968
31162WAT     H193728   5.742   7.998   5.931
31162WAT     H293729   5.885   8.068   5.965
31163WAT      O93730   9.523   3.943   4.633
31163WAT     H193731   9.576   3.898   4.706
31163WAT     H293732   9.564   4.032   4.612
31164WAT      O93733   3.337   7.572   4.275
31164WAT     H193734   3.302   7.624   4.197
31164WAT     H293735   3.389   7.493   4.241
31165WAT      O93736   2.664   1.162   8.980
31165WAT     H193737   2.630   1.117   8.897
31165WAT     H293738   2.758   1.134   8.996
31166WAT      O93739   5.224   6.590   8.520
31166WAT     H193740   5.280   6.610   8.600
31166WAT     H293741   5.272   6.621   8.438
31167WAT      O93742   4.826   0.567   3.150
31167WAT     H193743   4.844   0.659   3.184
31167WAT     H293744   4.905   0.533   3.099
31168WAT      O93745   3.436   5.129   5.556
31168WAT     H193746   3.450   5.228   5.556
31168WAT     H293747   3.509   5.085   5.503
31169WAT      O93748   5.619   8.812   8.697
31169WAT     H193749   5.583   8.898   8.661
31169WAT     H293750   5.705   8.829   8.745
31170WAT      O93751   5.763   1.389   6.084
31170WAT     H193752   5.724   1.475   6.051
31170WAT     H293753   5.734   1.315   6.023
31171WAT      O93754   4.523   1.060   9.262
31171WAT     H193755   4.428   1.037   9.239
31171WAT     H293756   4.552   1.139   9.208
31172WAT      O93757   5.486   1.690   4.814
31172WAT     H193758   5.425   1.767   4.794
31172WAT     H293759   5.453   1.642   4.895
31173WAT      O93760   2.706   7.022   0.615
31173WAT     H193761   2.668   7.098   0.562
31173WAT     H293762   2.722   7.052   0.709
31174WAT      O93763   9.473   9.331   5.009
31174WAT     H193764   9.490   9.400   5.080
31174WAT     H293765   9.386   9.352   4.964
31175WAT      O93766   0.842   8.289   9.027
31175WAT     H193767   0.924   8.299   8.971
31175WAT     H293768   0.787   8.213   8.993
31176WAT      O93769   7.797   1.017   4.949
31176WAT     H193770   7.744   0.932   4.941
31176WAT     H293771   7.835   1.023   5.042
31177WAT      O93772   2.279   4.131   1.754
31177WAT     H193773   2.372   4.097   1.769
31177WAT     H293774   2.282   4.212   1.696
31178WAT      O93775   5.587   7.483   6.179
31178WAT     H193776   5.677   7.478   6.222
31178WAT     H293777   5.516   7.473   6.249
31179WAT      O93778   9.624   9.562   1.416
31179WAT     H193779   9.702   9.511   1.379
31179WAT     H293780   9.613   9.539   1.513
31180WAT      O93781   6.513   6.426   5.621
31180WAT     H193782   6.564   6.512   5.628
31180WAT     H293783   6.577   6.349   5.631
31181WAT      O93784   0.306   3.032   8.047
31181WAT     H193785   0.242   3.108   8.060
31181WAT     H293786   0.397   3.060   8.077
31182WAT      O93787   5.810   4.488   5.001
31182WAT     H193788   5.884   4.432   5.038
31182WAT     H293789   5.849   4.565   4.950
31183WAT      O93790   6.140   2.578   9.380
31183WAT     H193791   6.045   2.555   9.359
31183WAT     H293792   6.167   2.533   9.465
31184WAT      O93793   9.862   1.836   2.347
31184WAT     H193794   9.858   1.896   2.268
31184WAT     H293795   9.859   1.741   2.317
31185WAT      O93796   7.888   2.887   5.732
31185WAT     H193797   7.915   2.814   5.795
31185WAT     H293798   7.791   2.876   5.709
31186WAT      O93799   5.701   3.149   9.426
31186WAT     H193800   5.772   3.080   9.410
31186WAT     H293801   5.739   3.240   9.410
31187WAT      O93802   8.091   1.666   3.272
31187WAT     H193803   8.037   1.610   3.336
31187WAT     H293804   8.139   1.737   3.323
31188WAT      O93805   8.897   9.548   5.118
31188WAT     H193806   8.888   9.449   5.127
31188WAT     H293807   8.886   9.591   5.208
31189WAT      O93808   3.912   1.567   1.340
31189WAT     H193809   3.889   1.647   1.284
31189WAT     H293810   3.887   1.586   1.436
31190WAT      O93811   8.942   1.274   3.731
31190WAT     H193812   8.879   1.197   3.726
31190WAT     H293813   8.912   1.337   3.803
31191WAT      O93814   3.869   4.690   5.161
31191WAT     H193815   3.939   4.667   5.094
31191WAT     H293816   3.866   4.789   5.174
31192WAT      O93817   7.922   8.749   7.130
31192WAT     H193818   7.845   8.707   7.178
31192WAT     H293819   8.003   8.691   7.140
31193WAT      O93820   8.106   2.390   0.418
31193WAT     H193821   8.190   2.373   0.471
31193WAT     H293822   8.123   2.372   0.321
31194WAT      O93823   7.945   5.763   6.403
31194WAT     H193824   8.039   5.733   6.384
31194WAT     H293825   7.898   5.785   6.317
31195WAT      O93826   7.650   1.041   3.322
31195WAT     H193827   7.596   1.113   3.366
31195WAT     H293828   7.637   1.044   3.223
31196WAT      O93829   8.556   4.644   1.488
31196WAT     H193830   8.476   4.597   1.526
31196WAT     H293831   8.594   4.590   1.413
31197WAT      O93832   8.708   4.038   3.055
31197WAT     H193833   8.727   4.068   3.148
31197WAT     H293834   8.609   4.042   3.038
31198WAT      O93835   0.209   1.292   9.265
31198WAT     H193836   0.216   1.383   9.306
31198WAT     H293837   0.280   1.281   9.195
31199WAT      O93838   5.165   5.739   9.196
31199WAT     H193839   5.256   5.779   9.201
31199WAT     H293840   5.115   5.759   9.280
31200WAT      O93841   2.565   7.543   4.368
31200WAT     H193842   2.605   7.627   4.333
31200WAT     H293843   2.468   7.540   4.344
31201WAT      O93844   7.675   4.402   7.907
31201WAT     H193845   7.707   4.497   7.914
31201WAT     H293846   7.748   4.345   7.871
31202WAT      O93847   8.739   8.470   1.222
31202WAT     H193848   8.678   8.391   1.236
31202WAT     H293849   8.684   8.551   1.203
31203WAT      O93850   1.662   0.350   7.914
31203WAT     H193851   1.675   0.448   7.927
31203WAT     H293852   1.722   0.300   7.976
31204WAT      O93853   0.176   7.537   7.824
31204WAT     H193854   0.247   7.572   7.763
31204WAT     H293855   0.208   7.452   7.867
31205WAT      O93856   5.231   2.348   8.949
31205WAT     H193857   5.246   2.331   9.046
31205WAT     H293858   5.293   2.290   8.895
31206WAT      O93859   3.601   0.305   3.615
31206WAT     H193860   3.572   0.397   3.638
31206WAT     H293861   3.582   0.243   3.692
31207WAT      O93862   3.916   7.134   5.150
31207WAT     H193863   3.889   7.207   5.212
31207WAT     H293864   3.920   7.169   5.057
31208WAT      O93865   4.972   6.979   5.003
31208WAT     H193866   4.891   6.964   5.061
31208WAT     H293867   4.994   6.894   4.955
31209WAT      O93868   3.722   8.831   3.778
31209WAT     H193869   3.707   8.905   3.844
31209WAT     H293870   3.812   8.842   3.736
31210WAT      O93871   7.350   6.765   1.232
31210WAT     H193872   7.369   6.805   1.322
31210WAT     H293873   7.287   6.824   1.182
31211WAT      O93874   8.127   3.717   4.908
31211WAT     H193875   8.099   3.733   5.003
31211WAT     H293876   8.216   3.672   4.907
31212WAT      O93877   5.759   7.958   9.083
31212WAT     H193878   5.839   7.958   9.023
31212WAT     H293879   5.779   8.013   9.164
31213WAT      O93880   3.216   9.777   0.375
31213WAT     H193881   3.274   9.856   0.356
31213WAT     H293882   3.144   9.802   0.438
31214WAT      O93883   9.837   8.829   3.949
31214WAT     H193884   9.904   8.903   3.949
31214WAT     H293885   9.865   8.759   4.014
31215WAT      O93886   8.484   4.791   6.918
31215WAT     H193887   8.437   4.704   6.926
31215WAT     H293888   8.452   4.853   6.991
31216WAT      O93889   5.184   1.146   8.471
31216WAT     H193890   5.161   1.145   8.373
31216WAT     H293891   5.279   1.116   8.483
31217WAT      O93892   4.115   2.224   1.774
31217WAT     H193893   4.018   2.217   1.751
31217WAT     H293894   4.158   2.293   1.716
31218WAT      O93895   0.831   0.323   8.123
31218WAT     H193896   0.810   0.262   8.199
31218WAT     H293897   0.926   0.355   8.132
31219WAT      O93898   6.722   6.822   2.087
31219WAT     H193899   6.665   6.786   2.014
31219WAT     H293900   6.664   6.862   2.158
31220WAT      O93901   8.791   1.247   8.982
31220WAT     H193902   8.754   1.266   8.891
31220WAT     H293903   8.891   1.245   8.977
31221WAT      O93904   9.646   7.621   2.223
31221WAT     H193905   9.669   7.598   2.317
31221WAT     H293906   9.721   7.594   2.163
31222WAT      O93907   5.772   5.958   8.182
31222WAT     H193908   5.779   6.056   8.163
31222WAT     H293909   5.828   5.907   8.117
31223WAT      O93910   3.132   7.476   5.884
31223WAT     H193911   3.196   7.553   5.893
31223WAT     H293912   3.181   7.390   5.898
31224WAT      O93913   1.484   6.340   1.859
31224WAT     H193914   1.539   6.372   1.936
31224WAT     H293915   1.387   6.349   1.882
31225WAT      O93916   1.963   0.846   6.552
31225WAT     H193917   1.956   0.944   6.531
31225WAT     H293918   1.927   0.793   6.475
31226WAT      O93919   2.372   1.529   6.201
31226WAT     H193920   2.306   1.579   6.144
31226WAT     H293921   2.376   1.572   6.291
31227WAT      O93922   7.577   9.643   8.975
31227WAT     H193923   7.580   9.725   8.918
31227WAT     H293924   7.662   9.591   8.962
31228WAT      O93925   4.039   1.010   0.156
31228WAT     H193926   4.069   1.091   0.105
31228WAT     H293927   4.055   0.929   0.101
31229WAT      O93928   0.254   2.850   0.835
31229WAT     H193929   0.178   2.843   0.770
31229WAT     H293930   0.338   2.874   0.785
31230WAT      O93931   3.826   7.114   4.126
31230WAT     H193932   3.875   7.027   4.132
31230WAT     H293933   3.844   7.157   4.038
31231WAT      O93934   6.652   1.522   7.547
31231WAT     H193935   6.573   1.495   7.602
31231WAT     H293936   6.728   1.545   7.607
31232WAT      O93937   1.202   0.063   7.369
31232WAT     H193938   1.163   0.150   7.338
31232WAT     H293939   1.236   0.012   7.291
31233WAT      O93940   5.177   0.942   2.479
31233WAT     H193941   5.159   0.896   2.565
31233WAT     H293942   5.273   0.933   2.455
31234WAT      O93943   3.666   5.237   2.543
31234WAT     H193944   3.693   5.141   2.539
31234WAT     H293945   3.647   5.263   2.637
31235WAT      O93946   4.806   8.626   4.518
31235WAT     H193947   4.757   8.539   4.523
31235WAT     H293948   4.839   8.641   4.425
31236WAT      O93949   5.598   3.949   8.895
31236WAT     H193950   5.623   3.868   8.948
31236WAT     H293951   5.519   3.928   8.838
31237WAT      O93952   2.960   7.277   3.574
31237WAT     H193953   2.888   7.271   3.643
31237WAT     H293954   2.924   7.246   3.486
31238WAT      O93955   5.811   4.052   4.358
31238WAT     H193956   5.765   3.978   4.307
31238WAT     H293957   5.792   4.042   4.455
31239WAT      O93958   0.146   7.960   2.083
31239WAT     H193959   0.064   7.974   2.027
31239WAT     H293960   0.121   7.952   2.179
31240WAT      O93961   6.970   3.508   7.141
31240WAT     H193962   6.968   3.557   7.228
31240WAT     H293963   6.956   3.572   7.066
31241WAT      O93964   4.031   4.395   3.733
31241WAT     H193965   3.998   4.306   3.702
31241WAT     H293966   4.009   4.465   3.665
31242WAT      O93967   7.645   2.880   9.227
31242WAT     H193968   7.657   2.872   9.325
31242WAT     H293969   7.725   2.924   9.186
31243WAT      O93970   2.595   5.315   3.565
31243WAT     H193971   2.559   5.283   3.477
31243WAT     H293972   2.693   5.330   3.557
31244WAT      O93973   1.495   1.606   7.589
31244WAT     H193974   1.468   1.536   7.523
31244WAT     H293975   1.584   1.582   7.629
31245WAT      O93976   9.175   4.509   8.820
31245WAT     H193977   9.254   4.511   8.882
31245WAT     H293978   9.202   4.545   8.731
31246WAT      O93979   4.507   4.925   3.612
31246WAT     H193980   4.471   4.872   3.535
31246WAT     H293981   4.583   4.982   3.580
31247WAT      O93982   4.309   1.697   7.991
31247WAT     H193983   4.295   1.610   8.037
31247WAT     H293984   4.389   1.743   8.030
31248WAT      O93985   5.602   5.144   6.209
31248WAT     H193986   5.654   5.060   6.192
31248WAT     H293987   5.505   5.122   6.213
31249WAT      O93988   2.857   1.802   0.717
31249WAT     H193989   2.852   1.762   0.808
31249WAT     H293990   2.764   1.816   0.682
31250WAT      O93991   5.020   9.767   8.270
31250WAT     H193992   4.978   9.822   8.198
31250WAT     H293993   5.001   9.670   8.253
31251WAT      O93994   8.213   2.161   1.410
31251WAT     H193995   8.289   2.185   1.350
31251WAT     H293996   8.161   2.244   1.433
31252WAT      O93997   3.344   3.389   5.307
31252WAT     H193998   3.392   3.471   5.276
31252WAT     H293999   3.392   3.308   5.273
31253WAT      O94000   2.285   7.351   0.497
31253WAT     H194001   2.246   7.436   0.531
31253WAT     H294002   2.321   7.366   0.404
31254WAT      O94003   3.080   8.385   8.402
31254WAT     H194004   3.046   8.307   8.350
31254WAT     H294005   3.163   8.420   8.358
31255WAT      O94006   0.410   0.453   6.892
31255WAT     H194007   0.351   0.391   6.841
31255WAT     H294008   0.362   0.538   6.910
31256WAT      O94009   7.214   7.664   5.487
31256WAT     H194010   7.155   7.742   5.466
31256WAT     H294011   7.263   7.681   5.573
31257WAT      O94012   9.373   5.770   1.690
31257WAT     H194013   9.309   5.821   1.747
31257WAT     H294014   9.331   5.684   1.662
31258WAT      O94015   8.352   6.261   2.927
31258WAT     H194016   8.442   6.272   2.970
31258WAT     H294017   8.324   6.166   2.933
31259WAT      O94018   7.743   1.736   8.833
31259WAT     H194019   7.679   1.714   8.907
31259WAT     H294020   7.807   1.806   8.865
31260WAT      O94021   0.487   8.856   3.168
31260WAT     H194022   0.539   8.861   3.083
31260WAT     H294023   0.397   8.816   3.150
31261WAT      O94024   7.875   8.040   2.683
31261WAT     H194025   7.961   7.997   2.657
31261WAT     H294026   7.894   8.133   2.716
31262WAT      O94027   0.626   1.944   7.961
31262WAT     H194028   0.530   1.934   7.986
31262WAT     H294029   0.658   1.859   7.919
31263WAT      O94030   2.711   1.942   7.690
31263WAT     H194031   2.761   1.856   7.703
31263WAT     H294032   2.717   1.996   7.773
31264WAT      O94033   0.040   4.533   1.927
31264WAT     H194034  -0.018   4.523   1.846
31264WAT     H294035  -0.005   4.593   1.993
31265WAT      O94036   7.787   6.450   7.257
31265WAT     H194037   7.736   6.446   7.171
31265WAT     H294038   7.726   6.482   7.330
31266WAT      O94039   5.032   4.225   7.846
31266WAT     H194040   4.999   4.290   7.779
31266WAT     H294041   5.073   4.275   7.923
31267WAT      O94042   7.830   6.926   4.671
31267WAT     H194043   7.813   6.839   4.625
31267WAT     H294044   7.859   6.994   4.604
31268WAT      O94045   1.648   5.697   2.225
31268WAT     H194046   1.703   5.745   2.294
31268WAT     H294047   1.672   5.730   2.134
31269WAT      O94048   5.090   0.846   1.471
31269WAT     H194049   5.104   0.751   1.444
31269WAT     H294050   4.996   0.873   1.448
31270WAT      O94051   5.526   8.588   8.078
31270WAT     H194052   5.474   8.504   8.096
31270WAT     H294053   5.503   8.623   7.987
31271WAT      O94054   8.246   3.328   2.647
31271WAT     H194055   8.249   3.231   2.670
31271WAT     H294056   8.220   3.381   2.727
31272WAT      O94057   9.128   8.891   8.129
31272WAT     H194058   9.054   8.955   8.149
31272WAT     H294059   9.139   8.827   8.206
31273WAT      O94060   2.446   5.089   5.966
31273WAT     H194061   2.491   5.014   5.918
31273WAT     H294062   2.502   5.119   6.043
31274WAT      O94063   5.242   7.728   7.869
31274WAT     H194064   5.144   7.708   7.869
31274WAT     H294065   5.270   7.756   7.961
31275WAT      O94066   7.784   7.973   6.865
31275WAT     H194067   7.862   7.936   6.915
31275WAT     H294068   7.771   8.069   6.891
31276WAT      O94069   6.500   0.972   4.272
31276WAT     H194070   6.490   0.881   4.233
31276WAT     H294071   6.549   1.031   4.207
31277WAT      O94072   8.973   7.315   2.362
31277WAT     H194073   9.002   7.361   2.279
31277WAT     H294074   8.873   7.313   2.367
31278WAT      O94075   9.819   6.006   5.595
31278WAT     H194076   9.867   6.093   5.578
31278WAT     H294077   9.859   5.962   5.676
31279WAT      O94078   5.898   6.142   6.283
31279WAT     H194079   5.845   6.222   6.256
31279WAT     H294080   5.843   6.060   6.271
31280WAT      O94081   0.645   9.039   5.353
31280WAT     H194082   0.701   8.967   5.392
31280WAT     H294083   0.603   9.007   5.268
31281WAT      O94084   2.501   8.197   3.610
31281WAT     H194085   2.541   8.221   3.522
31281WAT     H294086   2.564   8.221   3.683
31282WAT      O94087   9.154   2.968   0.268
31282WAT     H194088   9.153   2.994   0.364
31282WAT     H294089   9.087   3.023   0.217
31283WAT      O94090   2.983   3.648   3.554
31283WAT     H194091   2.888   3.632   3.583
31283WAT     H294092   3.038   3.673   3.634
31284WAT      O94093   1.537   0.163   5.134
31284WAT     H194094   1.569   0.248   5.176
31284WAT     H294095   1.466   0.123   5.192
31285WAT      O94096   2.105   5.071   9.101
31285WAT     H194097   2.013   5.110   9.095
31285WAT     H294098   2.107   4.983   9.053
31286WAT      O94099   6.112   2.759   1.142
31286WAT     H194100   6.151   2.815   1.214
31286WAT     H294101   6.161   2.672   1.137
31287WAT      O94102   7.107   4.342   4.473
31287WAT     H194103   7.157   4.354   4.387
31287WAT     H294104   7.149   4.397   4.545
31288WAT      O94105   2.235   1.348   6.838
31288WAT     H194106   2.311   1.373   6.898
31288WAT     H294107   2.256   1.375   6.744
31289WAT      O94108   4.659   6.253   6.142
31289WAT     H194109   4.616   6.172   6.103
31289WAT     H294110   4.593   6.303   6.198
31290WAT      O94111   9.574   9.784   8.500
31290WAT     H194112   9.492   9.786   8.557
31290WAT     H294113   9.552   9.824   8.410
31291WAT      O94114   1.653   5.762   0.093
31291WAT     H194115   1.648   5.840   0.031
31291WAT     H294116   1.606   5.684   0.052
31292WAT      O94117   4.477   9.729   8.122
31292WAT     H194118   4.534   9.677   8.186
31292WAT     H294119   4.501   9.825   8.126
31293WAT      O94120   4.490   5.265   3.896
31293WAT     H194121   4.489   5.291   3.993
31293WAT     H294122   4.450   5.175   3.885
31294WAT      O94123   4.823   4.043   7.530
31294WAT     H194124   4.919   4.051   7.506
31294WAT     H294125   4.768   4.106   7.475
31295WAT      O94126   9.378   8.091   3.866
31295WAT     H194127   9.456   8.041   3.827
31295WAT     H294128   9.374   8.183   3.825
31296WAT      O94129   9.138   2.278   7.523
31296WAT     H194130   9.195   2.275   7.441
31296WAT     H294131   9.054   2.329   7.503
31297WAT      O94132   7.492   0.875   7.143
31297WAT     H194133   7.476   0.777   7.141
31297WAT     H294134   7.559   0.897   7.214
31298WAT      O94135   0.542   0.607   4.336
31298WAT     H194136   0.596   0.525   4.356
31298WAT     H294137   0.451   0.598   4.376
31299WAT      O94138   3.119   1.938   7.608
31299WAT     H194139   3.105   1.850   7.653
31299WAT     H294140   3.134   1.922   7.510
31300WAT      O94141   4.611   7.335   3.993
31300WAT     H194142   4.632   7.412   4.052
31300WAT     H294143   4.574   7.260   4.048
31301WAT      O94144   2.843   5.784   5.883
31301WAT     H194145   2.799   5.828   5.805
31301WAT     H294146   2.808   5.823   5.968
31302WAT      O94147   8.757   0.703   8.025
31302WAT     H194148   8.830   0.702   8.093
31302WAT     H294149   8.716   0.794   8.021
31303WAT      O94150   1.535   4.715   3.923
31303WAT     H194151   1.602   4.641   3.925
31303WAT     H294152   1.524   4.748   3.829
31304WAT      O94153   4.035   6.435   8.038
31304WAT     H194154   4.131   6.410   8.036
31304WAT     H294155   3.991   6.392   8.117
31305WAT      O94156   8.258   1.360   1.569
31305WAT     H194157   8.354   1.380   1.590
31305WAT     H294158   8.200   1.389   1.646
31306WAT      O94159   1.042   1.801   9.814
31306WAT     H194160   1.065   1.795   9.717
31306WAT     H294161   1.121   1.776   9.869
31307WAT      O94162   7.564   9.054   7.201
31307WAT     H194163   7.606   9.051   7.291
31307WAT     H294164   7.469   9.023   7.207
31308WAT      O94165   5.802   8.871   9.181
31308WAT     H194166   5.872   8.936   9.209
31308WAT     H294167   5.718   8.888   9.233
31309WAT      O94168   9.027   7.054   1.570
31309WAT     H194169   8.990   6.962   1.579
31309WAT     H294170   9.102   7.053   1.503
31310WAT      O94171   2.791   4.392   2.289
31310WAT     H194172   2.703   4.388   2.337
31310WAT     H294173   2.865   4.377   2.354
31311WAT      O94174   0.903   0.344   9.069
31311WAT     H194175   0.969   0.419   9.081
31311WAT     H294176   0.887   0.300   9.157
31312WAT      O94177   6.017   8.301   8.487
31312WAT     H194178   6.076   8.271   8.562
31312WAT     H294179   6.074   8.346   8.417
31313WAT      O94180   2.349   5.546   2.963
31313WAT     H194181   2.333   5.624   2.902
31313WAT     H294182   2.430   5.563   3.019
31314WAT      O94183   4.878   1.274   9.345
31314WAT     H194184   4.922   1.296   9.432
31314WAT     H294185   4.799   1.334   9.332
31315WAT      O94186   8.331   0.157   4.154
31315WAT     H194187   8.260   0.135   4.221
31315WAT     H294188   8.391   0.229   4.191
31316WAT      O94189   8.957   9.390   8.710
31316WAT     H194190   8.913   9.328   8.775
31316WAT     H294191   9.033   9.344   8.665
31317WAT      O94192   0.251   1.194   0.649
31317WAT     H194193   0.261   1.101   0.614
31317WAT     H294194   0.329   1.217   0.708
31318WAT      O94195   0.161   7.261   7.989
31318WAT     H194196   0.066   7.234   7.977
31318WAT     H294197   0.219   7.179   7.994
31319WAT      O94198   7.757   5.442   1.424
31319WAT     H194199   7.790   5.357   1.464
31319WAT     H294200   7.663   5.459   1.453
31320WAT      O94201   4.774   0.122   7.128
31320WAT     H194202   4.684   0.091   7.157
31320WAT     H294203   4.767   0.212   7.086
31321WAT      O94204   8.582   4.497   8.013
31321WAT     H194205   8.677   4.468   8.024
31321WAT     H294206   8.524   4.445   8.075
31322WAT      O94207   9.878   5.479   5.557
31322WAT     H194208   9.955   5.529   5.517
31322WAT     H294209   9.806   5.468   5.489
31323WAT      O94210   6.134   7.713   1.567
31323WAT     H194211   6.234   7.711   1.560
31323WAT     H294212   6.102   7.629   1.612
31324WAT      O94213   0.657   6.938   5.540
31324WAT     H194214   0.733   6.896   5.490
31324WAT     H294215   0.594   6.980   5.475
31325WAT      O94216   6.670   2.171   5.007
31325WAT     H194217   6.602   2.109   5.046
31325WAT     H294218   6.652   2.183   4.909
31326WAT      O94219   0.830   3.184   9.719
31326WAT     H194220   0.925   3.163   9.740
31326WAT     H294221   0.825   3.243   9.639
31327WAT      O94222   0.393   6.762   8.718
31327WAT     H194223   0.489   6.764   8.690
31327WAT     H294224   0.338   6.817   8.654
31328WAT      O94225   9.248   6.310   4.296
31328WAT     H194226   9.320   6.373   4.326
31328WAT     H294227   9.166   6.362   4.274
31329WAT      O94228   0.737   5.131   3.575
31329WAT     H194229   0.668   5.158   3.509
31329WAT     H294230   0.709   5.047   3.621
31330WAT      O94231   4.752   0.585   0.870
31330WAT     H194232   4.684   0.596   0.798
31330WAT     H294233   4.746   0.662   0.933
31331WAT      O94234   1.362   4.988   8.775
31331WAT     H194235   1.387   4.896   8.807
31331WAT     H294236   1.419   5.056   8.822
31332WAT      O94237   7.794   4.061   8.267
31332WAT     H194238   7.892   4.052   8.286
31332WAT     H294239   7.743   4.011   8.337
31333WAT      O94240   9.694   2.088   8.479
31333WAT     H194241   9.684   2.147   8.559
31333WAT     H294242   9.608   2.085   8.428
31334WAT      O94243   5.073   6.894   8.711
31334WAT     H194244   5.026   6.962   8.768
31334WAT     H294245   5.147   6.852   8.764
31335WAT      O94246   2.739   7.132   0.866
31335WAT     H194247   2.768   7.071   0.939
31335WAT     H294248   2.795   7.215   0.868
31336WAT      O94249   0.860   3.989   3.444
31336WAT     H194250   0.874   4.084   3.471
31336WAT     H294251   0.836   3.934   3.524
31337WAT      O94252   3.655   3.459   4.813
31337WAT     H194253   3.698   3.402   4.743
31337WAT     H294254   3.707   3.450   4.899
31338WAT      O94255   1.778   0.185   0.228
31338WAT     H194256   1.770   0.125   0.308
31338WAT     H294257   1.765   0.132   0.145
31339WAT      O94258   3.387   6.098   2.117
31339WAT     H194259   3.333   6.168   2.070
31339WAT     H294260   3.396   6.123   2.214
31340WAT      O94261   5.548   2.942   6.931
31340WAT     H194262   5.561   3.008   6.857
31340WAT     H294263   5.579   2.982   7.017
31341WAT      O94264   3.330   4.293   2.040
31341WAT     H194265   3.320   4.390   2.017
31341WAT     H294266   3.241   4.249   2.039
31342WAT      O94267   5.095   2.829   8.594
31342WAT     H194268   5.156   2.799   8.668
31342WAT     H294269   5.083   2.928   8.599
31343WAT      O94270   2.110   1.674   6.662
31343WAT     H194271   2.166   1.594   6.647
31343WAT     H294272   2.018   1.658   6.625
31344WAT      O94273   1.258   4.442   7.357
31344WAT     H194274   1.202   4.495   7.421
31344WAT     H294275   1.207   4.363   7.325
31345WAT      O94276   0.152   6.185   6.234
31345WAT     H194277   0.200   6.177   6.146
31345WAT     H294278   0.216   6.165   6.308
31346WAT      O94279   2.429   8.694   0.340
31346WAT     H194280   2.416   8.641   0.424
31346WAT     H294281   2.391   8.786   0.352
31347WAT      O94282   6.360   2.188   7.405
31347WAT     H194283   6.450   2.169   7.443
31347WAT     H294284   6.356   2.283   7.373
31348WAT      O94285   0.407   9.486   4.147
31348WAT     H194286   0.339   9.438   4.203
31348WAT     H294287   0.389   9.584   4.149
31349WAT      O94288   2.716   0.569   4.222
31349WAT     H194289   2.784   0.642   4.215
31349WAT     H294290   2.639   0.589   4.162
31350WAT      O94291   9.291   5.924   6.809
31350WAT     H194292   9.379   5.970   6.820
31350WAT     H294293   9.220   5.992   6.793
31351WAT      O94294   6.858   1.563   7.750
31351WAT     H194295   6.777   1.591   7.802
31351WAT     H294296   6.930   1.630   7.762
31352WAT      O94297   2.118   4.461   2.835
31352WAT     H194298   2.197   4.403   2.853
31352WAT     H294299   2.044   4.436   2.897
31353WAT      O94300   6.507   1.786   7.520
31353WAT     H194301   6.437   1.848   7.487
31353WAT     H294302   6.552   1.742   7.441
31354WAT      O94303   9.622   5.158   6.358
31354WAT     H194304   9.571   5.230   6.404
31354WAT     H294305   9.626   5.176   6.260
31355WAT      O94306   7.614   8.190   8.388
31355WAT     H194307   7.663   8.213   8.473
31355WAT     H294308   7.545   8.260   8.369
31356WAT      O94309   5.756   1.245   7.784
31356WAT     H194310   5.748   1.221   7.687
31356WAT     H294311   5.790   1.167   7.836
31357WAT      O94312   5.003   3.338   9.133
31357WAT     H194313   4.933   3.403   9.162
31357WAT     H294314   5.044   3.294   9.214
31358WAT      O94315   4.360   9.087   9.238
31358WAT     H194316   4.267   9.073   9.271
31358WAT     H294317   4.371   9.182   9.208
31359WAT      O94318   6.535   0.115   8.668
31359WAT     H194319   6.496   0.183   8.730
31359WAT     H294320   6.577   0.162   8.590
31360WAT      O94321   8.210   3.758   3.924
31360WAT     H194322   8.195   3.679   3.984
31360WAT     H294323   8.123   3.806   3.910
31361WAT      O94324   1.755   5.257   4.113
31361WAT     H194325   1.688   5.238   4.185
31361WAT     H294326   1.763   5.355   4.098
31362WAT      O94327   2.391   7.642   1.343
31362WAT     H194328   2.346   7.638   1.433
31362WAT     H294329   2.325   7.672   1.275
31363WAT      O94330   6.260   8.564   5.612
31363WAT     H194331   6.170   8.594   5.582
31363WAT     H294332   6.310   8.527   5.534
31364WAT      O94333   2.503   5.910   5.201
31364WAT     H194334   2.575   5.968   5.162
31364WAT     H294335   2.519   5.815   5.176
31365WAT      O94336   7.377   8.341   0.038
31365WAT     H194337   7.394   8.243   0.040
31365WAT     H294338   7.391   8.376  -0.055
31366WAT      O94339   2.117   2.608   2.619
31366WAT     H194340   2.203   2.565   2.646
31366WAT     H294341   2.043   2.541   2.628
31367WAT      O94342   3.179   8.243   3.900
31367WAT     H194343   3.131   8.203   3.821
31367WAT     H294344   3.157   8.190   3.982
31368WAT      O94345   9.451   8.533   5.216
31368WAT     H194346   9.490   8.613   5.261
31368WAT     H294347   9.359   8.516   5.252
31369WAT      O94348   3.940   0.796   9.659
31369WAT     H194349   3.853   0.819   9.703
31369WAT     H294350   3.923   0.767   9.565
31370WAT      O94351   5.813   4.186   0.673
31370WAT     H194352   5.874   4.136   0.735
31370WAT     H294353   5.850   4.184   0.580
31371WAT      O94354   8.912   6.171   1.008
31371WAT     H194355   8.879   6.197   0.918
31371WAT     H294356   8.967   6.088   1.001
31372WAT      O94357   6.867   5.937   3.597
31372WAT     H194358   6.836   6.003   3.665
31372WAT     H294359   6.874   5.846   3.639
31373WAT      O94360   5.917   8.025   3.888
31373WAT     H194361   5.964   7.937   3.882
31373WAT     H294362   5.830   8.019   3.839
31374WAT      O94363   7.671   2.023   0.133
31374WAT     H194364   7.599   2.087   0.106
31374WAT     H294365   7.750   2.074   0.168
31375WAT      O94366   7.661   8.989   7.997
31375WAT     H194367   7.709   9.041   8.067
31375WAT     H294368   7.725   8.964   7.924
31376WAT      O94369   3.941   9.652   4.911
31376WAT     H194370   3.990   9.730   4.871
31376WAT     H294371   3.845   9.678   4.927
31377WAT      O94372   7.230   0.992   6.780
31377WAT     H194373   7.221   1.086   6.815
31377WAT     H294374   7.285   0.993   6.696
31378WAT      O94375   5.084   6.106   1.169
31378WAT     H194376   5.121   6.023   1.127
31378WAT     H294377   4.987   6.114   1.147
31379WAT      O94378   5.544   9.237   8.266
31379WAT     H194379   5.477   9.310   8.277
31379WAT     H294380   5.582   9.213   8.356
31380WAT      O94381   9.748   4.031   4.979
31380WAT     H194382   9.815   3.994   5.043
31380WAT     H294383   9.676   4.078   5.030
31381WAT      O94384   3.098   9.733   8.620
31381WAT     H194385   3.080   9.766   8.713
31381WAT     H294386   3.101   9.633   8.620
31382WAT      O94387   8.855   6.008   5.644
31382WAT     H194388   8.920   6.041   5.713
31382WAT     H294389   8.898   5.936   5.590
31383WAT      O94390   6.709   9.621   4.847
31383WAT     H194391   6.701   9.711   4.804
31383WAT     H294392   6.806   9.601   4.863
31384WAT      O94393   9.700   5.630   0.738
31384WAT     H194394   9.603   5.628   0.761
31384WAT     H294395   9.714   5.592   0.647
31385WAT      O94396   5.729   9.316   3.386
31385WAT     H194397   5.648   9.271   3.349
31385WAT     H294398   5.810   9.261   3.365
31386WAT      O94399   9.788   0.652   1.557
31386WAT     H194400   9.782   0.746   1.524
31386WAT     H294401   9.743   0.645   1.646
31387WAT      O94402   2.503   8.084   1.101
31387WAT     H194403   2.528   8.177   1.128
31387WAT     H294404   2.551   8.060   1.016
31388WAT      O94405   9.803   1.239   0.402
31388WAT     H194406   9.810   1.159   0.342
31388WAT     H294407   9.761   1.314   0.351
31389WAT      O94408   3.255   9.145   2.234
31389WAT     H194409   3.303   9.221   2.278
31389WAT     H294410   3.321   9.078   2.202
31390WAT      O94411   9.806   2.972   9.272
31390WAT     H194412   9.757   2.979   9.185
31390WAT     H294413   9.814   2.875   9.298
31391WAT      O94414   9.775   2.169   0.489
31391WAT     H194415   9.746   2.232   0.418
31391WAT     H294416   9.868   2.137   0.470
31392WAT      O94417   8.444   4.305   4.732
31392WAT     H194418   8.524   4.321   4.675
31392WAT     H294419   8.441   4.208   4.758
31393WAT      O94420   4.312   7.030   3.049
31393WAT     H194421   4.366   7.013   2.966
31393WAT     H294422   4.215   7.021   3.028
31394WAT      O94423   7.751   7.553   3.062
31394WAT     H194424   7.705   7.621   3.003
31394WAT     H294425   7.754   7.587   3.156
31395WAT      O94426   4.086   6.695   5.269
31395WAT     H194427   4.071   6.711   5.367
31395WAT     H294428   4.018   6.747   5.216
31396WAT      O94429   7.079   7.679   8.015
31396WAT     H194430   7.037   7.604   8.066
31396WAT     H294431   7.009   7.744   7.987
31397WAT      O94432   2.668   1.872   2.251
31397WAT     H194433   2.573   1.844   2.268
31397WAT     H294434   2.730   1.815   2.305
31398WAT      O94435   2.116   2.548   3.774
31398WAT     H194436   2.143   2.576   3.866
31398WAT     H294437   2.192   2.564   3.710
31399WAT      O94438   1.337   5.924   2.908
31399WAT     H194439   1.313   5.839   2.955
31399WAT     H294440   1.265   5.992   2.921
31400WAT      O94441   3.481   3.402   0.863
31400WAT     H194442   3.580   3.385   0.864
31400WAT     H294443   3.434   3.318   0.836
31401WAT      O94444   5.352   1.682   4.382
31401WAT     H194445   5.309   1.598   4.348
31401WAT     H294446   5.401   1.662   4.467
31402WAT      O94447   0.634   8.927   0.510
31402WAT     H194448   0.550   8.967   0.473
31402WAT     H294449   0.646   8.957   0.605
31403WAT      O94450   5.653   0.923   2.177
31403WAT     H194451   5.573   0.931   2.118
31403WAT     H294452   5.696   0.834   2.165
31404WAT      O94453   3.423   0.090   8.359
31404WAT     H194454   3.458   0.178   8.327
31404WAT     H294455   3.339   0.105   8.412
31405WAT      O94456   8.720   7.166   6.392
31405WAT     H194457   8.791   7.210   6.448
31405WAT     H294458   8.737   7.185   6.296
31406WAT      O94459   1.608   1.816   5.222
31406WAT     H194460   1.618   1.775   5.132
31406WAT     H294461   1.682   1.785   5.282
31407WAT      O94462   1.500   6.717   5.771
31407WAT     H194463   1.529   6.812   5.760
31407WAT     H294464   1.425   6.713   5.837
31408WAT      O94465   6.053   1.085   8.760
31408WAT     H194466   6.000   1.004   8.783
31408WAT     H294467   6.045   1.103   8.662
31409WAT      O94468   0.021   3.819   7.384
31409WAT     H194469  -0.022   3.870   7.458
31409WAT     H294470  -0.029   3.733   7.369
31410WAT      O94471   5.275   0.985   4.948
31410WAT     H194472   5.280   0.978   4.848
31410WAT     H294473   5.300   1.078   4.976
31411WAT      O94474   2.090   0.093   3.397
31411WAT     H194475   2.126   0.178   3.358
31411WAT     H294476   2.037   0.113   3.480
31412WAT      O94477   4.879   4.758   2.932
31412WAT     H194478   4.948   4.690   2.909
31412WAT     H294479   4.869   4.823   2.856
31413WAT      O94480   6.352   4.397   4.135
31413WAT     H194481   6.299   4.460   4.193
31413WAT     H294482   6.321   4.304   4.150
31414WAT      O94483   5.052   7.580   8.332
31414WAT     H194484   4.961   7.551   8.360
31414WAT     H294485   5.046   7.634   8.248
31415WAT      O94486   2.945   7.221   9.778
31415WAT     H194487   2.920   7.297   9.839
31415WAT     H294488   3.039   7.193   9.797
31416WAT      O94489   3.357   2.086   1.372
31416WAT     H194490   3.305   2.072   1.288
31416WAT     H294491   3.386   1.997   1.409
31417WAT      O94492   3.574   4.892   0.048
31417WAT     H194493   3.588   4.977   0.098
31417WAT     H294494   3.641   4.823   0.079
31418WAT      O94495   1.568   4.507   6.725
31418WAT     H194496   1.631   4.490   6.649
31418WAT     H294497   1.529   4.420   6.755
31419WAT      O94498   4.074   7.414   6.185
31419WAT     H194499   4.065   7.506   6.223
31419WAT     H294500   4.167   7.381   6.200
31420WAT      O94501   4.832   2.877   7.328
31420WAT     H194502   4.756   2.839   7.380
31420WAT     H294503   4.796   2.923   7.247
31421WAT      O94504   3.411   8.818   5.292
31421WAT     H194505   3.351   8.892   5.322
31421WAT     H294506   3.356   8.740   5.261
31422WAT      O94507   4.597   4.640   5.502
31422WAT     H194508   4.638   4.548   5.495
31422WAT     H294509   4.605   4.673   5.596
31423WAT      O94510   3.424   2.296   1.752
31423WAT     H194511   3.377   2.219   1.794
31423WAT     H294512   3.369   2.379   1.764
31424WAT      O94513   2.842   2.955   1.696
31424WAT     H194514   2.794   3.037   1.728
31424WAT     H294515   2.775   2.884   1.674
31425WAT      O94516   6.555   7.333   8.505
31425WAT     H194517   6.594   7.263   8.564
31425WAT     H294518   6.512   7.289   8.426
31426WAT      O94519   3.320   0.273   2.116
31426WAT     H194520   3.321   0.260   2.215
31426WAT     H294521   3.321   0.184   2.071
31427WAT      O94522   8.002   8.526   9.288
31427WAT     H194523   7.943   8.606   9.303
31427WAT     H294524   8.053   8.538   9.203
31428WAT      O94525   0.822   9.679   9.555
31428WAT     H194526   0.804   9.697   9.651
31428WAT     H294527   0.817   9.581   9.537
31429WAT      O94528   5.387   5.372   0.676
31429WAT     H194529   5.424   5.284   0.647
31429WAT     H294530   5.320   5.404   0.608
31430WAT      O94531   3.252   7.350   6.538
31430WAT     H194532   3.288   7.441   6.521
31430WAT     H294533   3.253   7.332   6.637
31431WAT      O94534   0.807   3.657   9.767
31431WAT     H194535   0.823   3.575   9.712
31431WAT     H294536   0.774   3.731   9.709
31432WAT      O94537   4.733   2.042   0.071
31432WAT     H194538   4.635   2.042   0.091
31432WAT     H294539   4.785   2.048   0.156
31433WAT      O94540   1.314   4.725   1.673
31433WAT     H194541   1.252   4.685   1.741
31433WAT     H294542   1.400   4.750   1.716
31434WAT      O94543   6.951   9.234   5.695
31434WAT     H194544   6.955   9.286   5.780
31434WAT     H294545   7.044   9.214   5.663
31435WAT      O94546   4.721   9.243   8.912
31435WAT     H194547   4.626   9.216   8.924
31435WAT     H294548   4.756   9.281   8.998
31436WAT      O94549   7.890   8.861   6.293
31436WAT     H194550   7.955   8.926   6.333
31436WAT     H294551   7.865   8.793   6.362
31437WAT      O94552   3.614   6.318   0.958
31437WAT     H194553   3.551   6.378   1.009
31437WAT     H294554   3.585   6.314   0.862
31438WAT      O94555   6.640   3.190   9.047
31438WAT     H194556   6.580   3.224   8.975
31438WAT     H294557   6.731   3.229   9.036
31439WAT      O94558   9.128   0.283   3.715
31439WAT     H194559   9.057   0.269   3.784
31439WAT     H294560   9.127   0.207   3.650
31440WAT      O94561   4.392   5.827   0.373
31440WAT     H194562   4.415   5.923   0.388
31440WAT     H294563   4.476   5.775   0.359
31441WAT      O94564   2.230   4.175   1.032
31441WAT     H194565   2.318   4.197   0.990
31441WAT     H294566   2.229   4.078   1.058
31442WAT      O94567   8.358   7.276   1.885
31442WAT     H194568   8.277   7.329   1.858
31442WAT     H294569   8.380   7.296   1.980
31443WAT      O94570   0.054   7.862   1.157
31443WAT     H194571   0.144   7.847   1.197
31443WAT     H294572   0.001   7.922   1.218
31444WAT      O94573   8.477   1.615   7.924
31444WAT     H194574   8.405   1.668   7.881
31444WAT     H294575   8.466   1.518   7.900
31445WAT      O94576   7.314   9.254   2.264
31445WAT     H194577   7.265   9.215   2.341
31445WAT     H294578   7.282   9.347   2.247
31446WAT      O94579   9.319   8.243   1.524
31446WAT     H194580   9.415   8.213   1.523
31446WAT     H294581   9.294   8.270   1.617
31447WAT      O94582   0.683   8.878   8.045
31447WAT     H194583   0.593   8.917   8.031
31447WAT     H294584   0.691   8.793   7.992
31448WAT      O94585   0.645   3.017   5.608
31448WAT     H194586   0.741   3.039   5.621
31448WAT     H294587   0.594   3.101   5.587
31449WAT      O94588   5.446   9.562   9.434
31449WAT     H194589   5.511   9.616   9.381
31449WAT     H294590   5.462   9.464   9.417
31450WAT      O94591   1.865   3.930   7.337
31450WAT     H194592   1.939   3.865   7.323
31450WAT     H294593   1.889   3.993   7.411
31451WAT      O94594   3.565   9.674   0.904
31451WAT     H194595   3.558   9.602   0.973
31451WAT     H294596   3.499   9.657   0.832
31452WAT      O94597   7.423   1.841   5.751
31452WAT     H194598   7.365   1.920   5.768
31452WAT     H294599   7.507   1.870   5.705
31453WAT      O94600   8.227   2.961   3.345
31453WAT     H194601   8.226   2.978   3.444
31453WAT     H294602   8.172   3.031   3.299
31454WAT      O94603   7.976   5.701   2.403
31454WAT     H194604   8.038   5.629   2.434
31454WAT     H294605   7.990   5.783   2.459
31455WAT      O94606   2.268   0.562   5.573
31455WAT     H194607   2.260   0.639   5.511
31455WAT     H294608   2.346   0.576   5.634
31456WAT      O94609   2.296   0.179   6.519
31456WAT     H194610   2.339   0.252   6.572
31456WAT     H294611   2.255   0.112   6.580
31457WAT      O94612   9.317   8.642   4.176
31457WAT     H194613   9.398   8.601   4.134
31457WAT     H294614   9.310   8.738   4.147
31458WAT      O94615   8.691   6.078   1.325
31458WAT     H194616   8.648   6.038   1.244
31458WAT     H294617   8.630   6.149   1.362
31459WAT      O94618   2.542   4.976   1.281
31459WAT     H194619   2.544   4.956   1.378
31459WAT     H294620   2.476   4.914   1.236
31460WAT      O94621   1.178   1.750   8.321
31460WAT     H194622   1.276   1.742   8.304
31460WAT     H294623   1.128   1.737   8.235
31461WAT      O94624   5.157   1.835   4.075
31461WAT     H194625   5.208   1.757   4.040
31461WAT     H294626   5.144   1.825   4.174
31462WAT      O94627   3.501   4.631   8.749
31462WAT     H194628   3.445   4.683   8.684
31462WAT     H294629   3.486   4.665   8.841
31463WAT      O94630   8.754   3.798   9.690
31463WAT     H194631   8.677   3.833   9.744
31463WAT     H294632   8.822   3.870   9.679
31464WAT      O94633   8.689   2.840   8.059
31464WAT     H194634   8.589   2.846   8.049
31464WAT     H294635   8.728   2.932   8.065
31465WAT      O94636   3.886   4.264   5.651
31465WAT     H194637   3.863   4.239   5.557
31465WAT     H294638   3.820   4.330   5.685
31466WAT      O94639   5.283   3.905   0.061
31466WAT     H194640   5.274   3.845   0.141
31466WAT     H294641   5.207   3.970   0.060
31467WAT      O94642   9.252   1.145   9.638
31467WAT     H194643   9.269   1.147   9.736
31467WAT     H294644   9.319   1.203   9.591
31468WAT      O94645   5.815   3.229   1.870
31468WAT     H194646   5.855   3.147   1.829
31468WAT     H294647   5.746   3.202   1.938
31469WAT      O94648   6.648   3.290   4.271
31469WAT     H194649   6.595   3.368   4.237
31469WAT     H294650   6.677   3.234   4.194
31470WAT      O94651   7.166   2.577   5.429
31470WAT     H194652   7.255   2.622   5.432
31470WAT     H294653   7.123   2.583   5.520
31471WAT      O94654   6.138   3.337   2.729
31471WAT     H194655   6.234   3.341   2.755
31471WAT     H294656   6.122   3.399   2.652
31472WAT      O94657   7.287   9.618   5.116
31472WAT     H194658   7.195   9.638   5.150
31472WAT     H294659   7.280   9.576   5.026
31473WAT      O94660   8.019   1.635   7.417
31473WAT     H194661   8.001   1.545   7.376
31473WAT     H294662   8.004   1.630   7.515
31474WAT      O94663   2.178   3.990   2.597
31474WAT     H194664   2.240   3.926   2.642
31474WAT     H294665   2.207   4.006   2.503
31475WAT      O94666   2.549   5.977   5.459
31475WAT     H194667   2.525   5.936   5.372
31475WAT     H294668   2.533   6.076   5.455
31476WAT      O94669   7.268   4.731   8.822
31476WAT     H194670   7.346   4.784   8.789
31476WAT     H294671   7.236   4.669   8.751
31477WAT      O94672   2.951   7.455   3.083
31477WAT     H194673   2.909   7.484   3.168
31477WAT     H294674   2.889   7.475   3.007
31478WAT      O94675   0.526   4.961   2.504
31478WAT     H194676   0.448   4.990   2.560
31478WAT     H294677   0.589   4.908   2.560
31479WAT      O94678   9.154   9.538   8.825
31479WAT     H194679   9.080   9.503   8.768
31479WAT     H294680   9.242   9.519   8.781
31480WAT      O94681   4.524   7.608   3.525
31480WAT     H194682   4.461   7.587   3.600
31480WAT     H294683   4.564   7.698   3.539
31481WAT      O94684   5.685   2.211   0.587
31481WAT     H194685   5.749   2.202   0.663
31481WAT     H294686   5.703   2.140   0.520
31482WAT      O94687   8.734   4.042   6.432
31482WAT     H194688   8.769   4.131   6.459
31482WAT     H294689   8.797   3.971   6.461
31483WAT      O94690   8.078   9.739   9.319
31483WAT     H194691   8.101   9.643   9.304
31483WAT     H294692   8.087   9.760   9.416
31484WAT      O94693   7.269   6.989   0.915
31484WAT     H194694   7.191   6.932   0.940
31484WAT     H294695   7.253   7.083   0.945
31485WAT      O94696   9.270   1.577   5.458
31485WAT     H194697   9.176   1.549   5.478
31485WAT     H294698   9.273   1.676   5.444
31486WAT      O94699   6.545   6.282   5.892
31486WAT     H194700   6.581   6.253   5.803
31486WAT     H294701   6.455   6.324   5.880
31487WAT      O94702   1.799   7.646   2.585
31487WAT     H194703   1.738   7.724   2.573
31487WAT     H294704   1.890   7.678   2.609
31488WAT      O94705   8.137   0.201   1.800
31488WAT     H194706   8.082   0.257   1.862
31488WAT     H294707   8.104   0.107   1.801
31489WAT      O94708   1.120   7.646   9.239
31489WAT     H194709   1.106   7.744   9.255
31489WAT     H294710   1.031   7.600   9.235
31490WAT      O94711   4.539   0.682   0.735
31490WAT     H194712   4.598   0.763   0.740
31490WAT     H294713   4.498   0.675   0.644
31491WAT      O94714   2.974   5.221   4.604
31491WAT     H194715   3.004   5.125   4.601
31491WAT     H294716   3.039   5.274   4.657
31492WAT      O94717   5.707   4.756   5.954
31492WAT     H194718   5.608   4.763   5.970
31492WAT     H294719   5.740   4.838   5.908
31493WAT      O94720   7.800   0.997   1.721
31493WAT     H194721   7.796   0.975   1.624
31493WAT     H294722   7.739   1.074   1.741
31494WAT      O94723   7.181   7.831   6.663
31494WAT     H194724   7.129   7.913   6.689
31494WAT     H294725   7.168   7.813   6.565
31495WAT      O94726   1.573   0.519   7.334
31495WAT     H194727   1.505   0.499   7.405
31495WAT     H294728   1.616   0.434   7.305
31496WAT      O94729   6.381   7.567   5.425
31496WAT     H194730   6.368   7.616   5.339
31496WAT     H294731   6.300   7.512   5.445
31497WAT      O94732   8.238   9.559   2.485
31497WAT     H194733   8.189   9.584   2.402
31497WAT     H294734   8.336   9.550   2.465
31498WAT      O94735   0.115   2.599   7.051
31498WAT     H194736   0.090   2.672   7.115
31498WAT     H294737   0.172   2.637   6.978
31499WAT      O94738   3.410   5.901   9.399
31499WAT     H194739   3.375   5.960   9.327
31499WAT     H294740   3.471   5.953   9.458
31500WAT      O94741   2.931   1.356   2.730
31500WAT     H194742   2.905   1.322   2.821
31500WAT     H294743   2.958   1.279   2.673
31501WAT      O94744   4.053   8.888   3.897
31501WAT     H194745   4.009   8.870   3.810
31501WAT     H294746   4.095   8.979   3.896
31502WAT      O94747   0.832   0.658   2.139
31502WAT     H194748   0.868   0.581   2.192
31502WAT     H294749   0.843   0.743   2.191
31503WAT      O94750   9.475   4.330   6.266
31503WAT     H194751   9.575   4.331   6.260
31503WAT     H294752   9.437   4.318   6.174
31504WAT      O94753   5.197   5.416   5.901
31504WAT     H194754   5.151   5.327   5.909
31504WAT     H294755   5.282   5.413   5.954
31505WAT      O94756   2.668   1.606   6.585
31505WAT     H194757   2.742   1.548   6.621
31505WAT     H294758   2.608   1.551   6.527
31506WAT      O94759   4.283   2.028   1.143
31506WAT     H194760   4.310   1.946   1.194
31506WAT     H294761   4.321   2.109   1.187
31507WAT      O94762   4.626   4.162   0.352
31507WAT     H194763   4.693   4.235   0.345
31507WAT     H294764   4.565   4.164   0.272
31508WAT      O94765   1.771   4.693   4.278
31508WAT     H194766   1.691   4.637   4.259
31508WAT     H294767   1.813   4.664   4.364
31509WAT      O94768   9.058   8.738   8.437
31509WAT     H194769   9.023   8.690   8.356
31509WAT     H294770   9.033   8.835   8.431
31510WAT      O94771   5.866   5.707   6.968
31510WAT     H194772   5.808   5.788   6.976
31510WAT     H294773   5.905   5.702   6.876
31511WAT      O94774   4.453   8.867   4.996
31511WAT     H194775   4.372   8.849   4.940
31511WAT     H294776   4.508   8.783   5.003
31512WAT      O94777   5.822   5.091   4.274
31512WAT     H194778   5.869   5.094   4.185
31512WAT     H294779   5.771   5.005   4.281
31513WAT      O94780   7.035   4.016   2.776
31513WAT     H194781   6.982   3.933   2.761
31513WAT     H294782   6.973   4.092   2.796
31514WAT      O94783   1.532   4.049   0.756
31514WAT     H194784   1.601   3.988   0.718
31514WAT     H294785   1.541   4.140   0.716
31515WAT      O94786   7.918   4.543   2.343
31515WAT     H194787   7.875   4.615   2.398
31515WAT     H294788   7.882   4.454   2.369
31516WAT      O94789   7.013   6.658   1.368
31516WAT     H194790   7.094   6.600   1.368
31516WAT     H294791   7.042   6.754   1.359
31517WAT      O94792   3.787   9.262   4.540
31517WAT     H194793   3.761   9.200   4.614
31517WAT     H294794   3.774   9.357   4.570
31518WAT      O94795   5.748   4.913   0.712
31518WAT     H194796   5.836   4.866   0.706
31518WAT     H294797   5.763   5.011   0.725
31519WAT      O94798   7.288   9.003   5.409
31519WAT     H194799   7.331   8.915   5.432
31519WAT     H294800   7.192   8.988   5.388
31520WAT      O94801   9.389   5.406   5.272
31520WAT     H194802   9.391   5.502   5.246
31520WAT     H294803   9.367   5.398   5.369
31521WAT      O94804   3.157   2.666   2.589
31521WAT     H194805   3.216   2.593   2.555
31521WAT     H294806   3.155   2.741   2.523
31522WAT      O94807   3.467   1.217   5.145
31522WAT     H194808   3.378   1.221   5.190
31522WAT     H294809   3.456   1.231   5.047
31523WAT      O94810   6.544   6.140   7.816
31523WAT     H194811   6.622   6.202   7.806
31523WAT     H294812   6.526   6.123   7.913
31524WAT      O94813   6.376   1.055   4.991
31524WAT     H194814   6.440   1.025   5.061
31524WAT     H294815   6.283   1.049   5.026
31525WAT      O94816   9.336   8.944   5.385
31525WAT     H194817   9.355   8.927   5.289
31525WAT     H294818   9.396   8.888   5.442
31526WAT      O94819   2.899   3.998   8.330
31526WAT     H194820   2.901   3.989   8.430
31526WAT     H294821   2.902   3.907   8.289
31527WAT      O94822   6.067   9.311   3.353
31527WAT     H194823   6.024   9.332   3.265
31527WAT     H294824   6.090   9.396   3.400
31528WAT      O94825   1.029   3.280   4.642
31528WAT     H194826   0.960   3.324   4.699
31528WAT     H294827   1.041   3.332   4.558
31529WAT      O94828   1.822   5.174   9.092
31529WAT     H194829   1.839   5.241   9.019
31529WAT     H294830   1.817   5.221   9.180
31530WAT      O94831   2.339   7.353   9.176
31530WAT     H194832   2.356   7.452   9.183
31530WAT     H294833   2.277   7.325   9.250
31531WAT      O94834   7.425   7.126   2.881
31531WAT     H194835   7.402   7.193   2.811
31531WAT     H294836   7.466   7.172   2.960
31532WAT      O94837   6.789   1.907   7.176
31532WAT     H194838   6.756   1.859   7.257
31532WAT     H294839   6.711   1.944   7.125
31533WAT      O94840   7.097   6.749   0.769
31533WAT     H194841   7.194   6.726   0.763
31533WAT     H294842   7.068   6.794   0.685
31534WAT      O94843   8.121   9.162   3.705
31534WAT     H194844   8.117   9.144   3.803
31534WAT     H294845   8.217   9.163   3.675
31535WAT      O94846   2.270   0.440   5.307
31535WAT     H194847   2.174   0.418   5.291
31535WAT     H294848   2.314   0.365   5.357
31536WAT      O94849   0.105   1.121   6.695
31536WAT     H194850   0.174   1.167   6.639
31536WAT     H294851   0.066   1.045   6.644
31537WAT      O94852   2.505   1.988   9.540
31537WAT     H194853   2.600   2.002   9.569
31537WAT     H294854   2.488   1.891   9.524
31538WAT      O94855   5.271   5.806   8.650
31538WAT     H194856   5.228   5.809   8.559
31538WAT     H294857   5.207   5.766   8.715
31539WAT      O94858   2.717   0.848   5.127
31539WAT     H194859   2.804   0.818   5.168
31539WAT     H294860   2.661   0.894   5.196
31540WAT      O94861   4.408   3.248   5.494
31540WAT     H194862   4.385   3.336   5.536
31540WAT     H294863   4.507   3.242   5.481
31541WAT      O94864   2.042   1.079   0.538
31541WAT     H194865   2.004   1.078   0.445
31541WAT     H294866   2.048   0.986   0.572
31542WAT      O94867   0.726   1.024   0.180
31542WAT     H194868   0.655   0.954   0.175
31542WAT     H294869   0.728   1.063   0.272
31543WAT      O94870   3.732   1.102   4.975
31543WAT     H194871   3.807   1.045   5.010
31543WAT     H294872   3.648   1.047   4.971
31544WAT      O94873   8.558   7.400   6.223
31544WAT     H194874   8.499   7.466   6.176
31544WAT     H294875   8.524   7.386   6.316
31545WAT      O94876   8.931   3.240   6.942
31545WAT     H194877   8.891   3.310   7.000
31545WAT     H294878   9.009   3.198   6.990
31546WAT      O94879   5.478   8.840   9.114
31546WAT     H194880   5.532   8.758   9.096
31546WAT     H294881   5.382   8.815   9.128
31547WAT      O94882   6.667   3.403   5.277
31547WAT     H194883   6.767   3.404   5.288
31547WAT     H294884   6.644   3.362   5.189
31548WAT      O94885   0.850   4.844   1.634
31548WAT     H194886   0.884   4.831   1.541
31548WAT     H294887   0.753   4.820   1.637
31549WAT      O94888   8.404   5.091   0.610
31549WAT     H194889   8.340   5.167   0.602
31549WAT     H294890   8.411   5.044   0.522
31550WAT      O94891   0.002   5.927   5.323
31550WAT     H194892  -0.018   5.971   5.411
31550WAT     H294893   0.064   5.850   5.337
31551WAT      O94894   5.441   9.479   1.576
31551WAT     H194895   5.511   9.516   1.638
31551WAT     H294896   5.424   9.545   1.503
31552WAT      O94897   9.617   0.887   3.605
31552WAT     H194898   9.709   0.864   3.572
31552WAT     H294899   9.554   0.814   3.582
31553WAT      O94900   2.524   9.071   5.017
31553WAT     H194901   2.565   8.980   5.014
31553WAT     H294902   2.451   9.072   5.086
31554WAT      O94903   5.050   1.185   6.647
31554WAT     H194904   5.072   1.268   6.699
31554WAT     H294905   4.977   1.206   6.581
31555WAT      O94906   5.012   4.062   0.349
31555WAT     H194907   5.004   4.158   0.376
31555WAT     H294908   4.923   4.018   0.357
31556WAT      O94909   7.634   2.782   5.197
31556WAT     H194910   7.696   2.859   5.214
31556WAT     H294911   7.684   2.696   5.201
31557WAT      O94912   3.807   9.058   6.685
31557WAT     H194913   3.891   9.100   6.719
31557WAT     H294914   3.770   8.995   6.753
31558WAT      O94915   7.358   7.438   7.707
31558WAT     H194916   7.438   7.380   7.717
31558WAT     H294917   7.370   7.521   7.762
31559WAT      O94918   1.362   8.256   6.547
31559WAT     H194919   1.341   8.260   6.644
31559WAT     H294920   1.287   8.295   6.494
31560WAT      O94921   6.302   4.982   6.738
31560WAT     H194922   6.285   4.941   6.648
31560WAT     H294923   6.292   5.081   6.733
31561WAT      O94924   1.864   6.885   4.735
31561WAT     H194925   1.829   6.954   4.672
31561WAT     H294926   1.790   6.825   4.765
31562WAT      O94927   9.362   6.374   3.913
31562WAT     H194928   9.268   6.404   3.925
31562WAT     H294929   9.416   6.448   3.871
31563WAT      O94930   0.950   2.840   5.383
31563WAT     H194931   1.026   2.877   5.436
31563WAT     H294932   0.956   2.740   5.381
31564WAT      O94933   1.118   7.450   5.792
31564WAT     H194934   1.215   7.478   5.787
31564WAT     H294935   1.105   7.388   5.870
31565WAT      O94936   8.788   2.163   9.282
31565WAT     H194937   8.855   2.217   9.231
31565WAT     H294938   8.769   2.078   9.233
31566WAT      O94939   9.811   6.977   4.744
31566WAT     H194940   9.893   7.021   4.709
31566WAT     H294941   9.768   7.035   4.813
31567WAT      O94942   6.736   9.179   8.234
31567WAT     H194943   6.714   9.082   8.233
31567WAT     H294944   6.652   9.232   8.222
31568WAT      O94945   5.652   7.100   7.699
31568WAT     H194946   5.574   7.153   7.733
31568WAT     H294947   5.736   7.131   7.744
31569WAT      O94948   7.992   6.738   7.563
31569WAT     H194949   7.984   6.655   7.508
31569WAT     H294950   8.054   6.802   7.518
31570WAT      O94951   0.493   6.237   1.493
31570WAT     H194952   0.487   6.276   1.401
31570WAT     H294953   0.467   6.307   1.560
31571WAT      O94954   2.977   7.837   2.921
31571WAT     H194955   3.009   7.744   2.904
31571WAT     H294956   3.004   7.896   2.845
31572WAT      O94957   3.756   5.054   1.173
31572WAT     H194958   3.754   5.089   1.266
31572WAT     H294959   3.851   5.042   1.144
31573WAT      O94960   4.954   4.496   6.315
31573WAT     H194961   4.950   4.415   6.258
31573WAT     H294962   4.876   4.556   6.294
31574WAT      O94963   1.533   6.591   9.498
31574WAT     H194964   1.532   6.665   9.431
31574WAT     H294965   1.600   6.611   9.569
31575WAT      O94966   2.550   9.548   1.719
31575WAT     H194967   2.606   9.626   1.748
31575WAT     H294968   2.599   9.463   1.739
31576WAT      O94969   4.263   3.609   0.559
31576WAT     H194970   4.273   3.689   0.501
31576WAT     H294971   4.200   3.630   0.634
31577WAT      O94972   0.345   0.622   7.829
31577WAT     H194973   0.254   0.585   7.845
31577WAT     H294974   0.351   0.713   7.869
31578WAT      O94975   5.958   0.590   6.689
31578WAT     H194976   5.955   0.683   6.654
31578WAT     H294977   5.881   0.576   6.752
31579WAT      O94978   4.247   7.427   0.511
31579WAT     H194979   4.346   7.415   0.508
31579WAT     H294980   4.207   7.406   0.422
31580WAT      O94981   0.861   1.803   6.438
31580WAT     H194982   0.824   1.743   6.367
31580WAT     H294983   0.960   1.812   6.427
31581WAT      O94984   3.825   1.468   5.561
31581WAT     H194985   3.789   1.404   5.629
31581WAT     H294986   3.843   1.419   5.476
31582WAT      O94987   4.175   7.885   6.372
31582WAT     H194988   4.159   7.984   6.381
31582WAT     H294989   4.156   7.857   6.278
31583WAT      O94990   3.560   2.293   7.774
31583WAT     H194991   3.581   2.204   7.815
31583WAT     H294992   3.629   2.315   7.705
31584WAT      O94993   0.738   7.074   7.386
31584WAT     H194994   0.683   6.991   7.383
31584WAT     H294995   0.820   7.063   7.329
31585WAT      O94996   1.177   8.367   3.271
31585WAT     H194997   1.192   8.317   3.357
31585WAT     H294998   1.218   8.458   3.278
31586WAT      O94999   0.754   4.180   8.666
31586WAT     H195000   0.801   4.131   8.593
31586WAT     H295001   0.740   4.118   8.744
31587WAT      O95002   8.081   4.431   1.921
31587WAT     H195003   8.169   4.478   1.915
31587WAT     H295004   8.087   4.343   1.874
31588WAT      O95005   1.716   3.928   2.056
31588WAT     H195006   1.657   3.963   2.129
31588WAT     H295007   1.812   3.936   2.085
31589WAT      O95008   2.288   9.726   3.324
31589WAT     H195009   2.236   9.808   3.348
31589WAT     H295010   2.324   9.684   3.408
31590WAT      O95011   0.783   0.006   6.126
31590WAT     H195012   0.706   0.044   6.075
31590WAT     H295013   0.809   0.069   6.198
31591WAT      O95014   3.333   3.608   9.729
31591WAT     H195015   3.411   3.661   9.762
31591WAT     H295016   3.364   3.541   9.662
31592WAT      O95017   1.236   5.960   6.283
31592WAT     H195018   1.287   6.032   6.329
31592WAT     H295019   1.146   5.951   6.325
31593WAT      O95020   8.062   5.379   2.863
31593WAT     H195021   7.974   5.401   2.822
31593WAT     H295022   8.135   5.394   2.797
31594WAT      O95023   8.445   3.844   5.810
31594WAT     H195024   8.391   3.876   5.888
31594WAT     H295025   8.425   3.902   5.731
31595WAT      O95026   6.078   1.147   5.074
31595WAT     H195027   6.010   1.077   5.052
31595WAT     H295028   6.152   1.106   5.127
31596WAT      O95029   2.453   5.217   3.373
31596WAT     H195030   2.409   5.305   3.356
31596WAT     H295031   2.392   5.159   3.428
31597WAT      O95032   8.765   7.807   7.238
31597WAT     H195033   8.696   7.879   7.239
31597WAT     H295034   8.737   7.734   7.175
31598WAT      O95035   5.480   6.038   4.136
31598WAT     H195036   5.509   6.097   4.061
31598WAT     H295037   5.443   5.952   4.099
31599WAT      O95038   7.205   7.074   3.658
31599WAT     H195039   7.289   7.032   3.691
31599WAT     H295040   7.191   7.162   3.704
31600WAT      O95041   3.645   2.637   2.660
31600WAT     H195042   3.591   2.569   2.611
31600WAT     H295043   3.742   2.619   2.645
31601WAT      O95044   2.710   3.545   1.337
31601WAT     H195045   2.761   3.621   1.296
31601WAT     H295046   2.713   3.466   1.276
31602WAT      O95047   6.392   2.644   1.255
31602WAT     H195048   6.386   2.666   1.353
31602WAT     H295049   6.414   2.727   1.204
31603WAT      O95050   8.905   6.645   0.256
31603WAT     H195051   9.005   6.639   0.258
31603WAT     H295052   8.876   6.740   0.269
31604WAT      O95053   4.128   9.082   8.840
31604WAT     H195054   4.188   9.039   8.907
31604WAT     H295055   4.164   9.067   8.748
31605WAT      O95056   3.614   1.983   1.898
31605WAT     H195057   3.636   1.977   1.801
31605WAT     H295058   3.583   2.075   1.920
31606WAT      O95059   6.142   3.822   4.044
31606WAT     H195060   6.133   3.918   4.069
31606WAT     H295061   6.207   3.812   3.969
31607WAT      O95062   8.732   8.836   2.958
31607WAT     H195063   8.688   8.913   3.005
31607WAT     H295064   8.683   8.816   2.873
31608WAT      O95065   8.099   1.099   9.079
31608WAT     H195066   8.028   1.076   9.013
31608WAT     H295067   8.079   1.054   9.166
31609WAT      O95068   8.532   9.638   2.860
31609WAT     H195069   8.514   9.568   2.791
31609WAT     H295070   8.547   9.594   2.949
31610WAT      O95071   7.666   2.604   5.552
31610WAT     H195072   7.707   2.610   5.461
31610WAT     H295073   7.709   2.528   5.603
31611WAT      O95074   9.411   7.725   4.386
31611WAT     H195075   9.457   7.636   4.385
31611WAT     H295076   9.472   7.794   4.347
31612WAT      O95077   0.491   3.643   8.979
31612WAT     H195078   0.393   3.660   8.987
31612WAT     H295079   0.514   3.561   9.032
31613WAT      O95080   6.671   3.206   0.248
31613WAT     H195081   6.609   3.283   0.260
31613WAT     H295082   6.712   3.182   0.336
31614WAT      O95083   4.753   4.004   8.685
31614WAT     H195084   4.752   3.919   8.633
31614WAT     H295085   4.795   3.989   8.774
31615WAT      O95086   2.573   3.022   8.012
31615WAT     H195087   2.533   3.034   7.921
31615WAT     H295088   2.600   3.111   8.049
31616WAT      O95089   7.258   2.709   5.996
31616WAT     H195090   7.251   2.640   6.067
31616WAT     H295091   7.333   2.771   6.018
31617WAT      O95092   4.789   3.177   6.277
31617WAT     H195093   4.851   3.126   6.337
31617WAT     H295094   4.694   3.149   6.295
31618WAT      O95095   6.638   0.691   5.474
31618WAT     H195096   6.616   0.783   5.505
31618WAT     H295097   6.558   0.632   5.485
31619WAT      O95098   1.615   6.644   1.277
31619WAT     H195099   1.678   6.671   1.350
31619WAT     H295100   1.611   6.544   1.272
31620WAT      O95101   2.351   5.676   0.147
31620WAT     H195102   2.268   5.623   0.129
31620WAT     H295103   2.427   5.614   0.165
31621WAT      O95104   1.330   4.221   5.570
31621WAT     H195105   1.349   4.241   5.474
31621WAT     H295106   1.246   4.167   5.577
31622WAT      O95107   6.998   3.509   8.770
31622WAT     H195108   6.987   3.559   8.855
31622WAT     H295109   7.068   3.437   8.781
31623WAT      O95110   0.561   0.393   9.557
31623WAT     H195111   0.594   0.477   9.515
31623WAT     H295112   0.476   0.365   9.513
31624WAT      O95113   6.568   0.593   2.235
31624WAT     H195114   6.479   0.610   2.277
31624WAT     H295115   6.610   0.513   2.278
31625WAT      O95116   7.983   5.207   9.255
31625WAT     H195117   7.975   5.159   9.167
31625WAT     H295118   8.053   5.164   9.311
31626WAT      O95119   2.401   1.595   6.465
31626WAT     H195120   2.340   1.519   6.488
31626WAT     H295121   2.424   1.647   6.548
31627WAT      O95122   7.001   9.105   9.663
31627WAT     H195123   6.927   9.158   9.705
31627WAT     H295124   7.089   9.142   9.691
31628WAT      O95125   8.392   3.267   9.551
31628WAT     H195126   8.352   3.225   9.632
31628WAT     H295127   8.489   3.286   9.568
31629WAT      O95128   8.822   0.846   6.669
31629WAT     H195129   8.836   0.844   6.768
31629WAT     H295130   8.774   0.763   6.640
31630WAT      O95131   1.222   0.514   5.363
31630WAT     H195132   1.168   0.559   5.292
31630WAT     H295133   1.196   0.550   5.453
31631WAT      O95134   1.750   4.517   8.973
31631WAT     H195135   1.717   4.554   8.886
31631WAT     H295136   1.782   4.592   9.030
31632WAT      O95137   2.604   8.598   6.172
31632WAT     H195138   2.630   8.505   6.144
31632WAT     H295139   2.666   8.664   6.130
31633WAT      O95140   8.978   5.770   1.899
31633WAT     H195141   9.058   5.830   1.903
31633WAT     H295142   8.969   5.733   1.807
31634WAT      O95143   3.353   1.242   3.999
31634WAT     H195144   3.326   1.292   4.081
31634WAT     H295145   3.278   1.243   3.933
31635WAT      O95146   7.404   2.616   4.253
31635WAT     H195147   7.435   2.688   4.314
31635WAT     H295148   7.351   2.656   4.178
31636WAT      O95149   1.318   0.449   3.433
31636WAT     H195150   1.325   0.497   3.521
31636WAT     H295151   1.334   0.514   3.359
31637WAT      O95152   8.469   8.264   1.827
31637WAT     H195153   8.491   8.355   1.793
31637WAT     H295154   8.382   8.266   1.876
31638WAT      O95155   8.596   4.775   4.630
31638WAT     H195156   8.525   4.708   4.605
31638WAT     H295157   8.560   4.867   4.618
31639WAT      O95158   6.478   5.184   2.255
31639WAT     H195159   6.405   5.120   2.232
31639WAT     H295160   6.548   5.137   2.309
31640WAT      O95161   2.123   7.422   3.357
31640WAT     H195162   2.174   7.411   3.272
31640WAT     H295163   2.175   7.479   3.421
31641WAT      O95164   9.440   8.314   8.932
31641WAT     H195165   9.400   8.388   8.985
31641WAT     H295166   9.540   8.326   8.928
31642WAT      O95167   1.274   6.476   9.434
31642WAT     H195168   1.364   6.473   9.478
31642WAT     H295169   1.210   6.419   9.486
31643WAT      O95170   9.553   6.456   2.567
31643WAT     H195171   9.489   6.391   2.608
31643WAT     H295172   9.520   6.483   2.477
31644WAT      O95173   4.995   2.105   5.144
31644WAT     H195174   5.088   2.094   5.179
31644WAT     H295175   4.963   2.198   5.162
31645WAT      O95176   3.040   0.887   5.668
31645WAT     H195177   3.084   0.822   5.606
31645WAT     H295178   3.030   0.975   5.623
31646WAT      O95179   2.461   1.096   9.742
31646WAT     H195180   2.503   1.048   9.819
31646WAT     H295181   2.502   1.064   9.657
31647WAT      O95182   2.961   8.571   6.176
31647WAT     H195183   3.052   8.550   6.211
31647WAT     H295184   2.899   8.495   6.195
31648WAT      O95185   7.867   1.439   1.148
31648WAT     H195186   7.796   1.497   1.188
31648WAT     H295187   7.949   1.441   1.206
31649WAT      O95188   9.166   1.703   2.375
31649WAT     H195189   9.245   1.650   2.344
31649WAT     H295190   9.108   1.646   2.433
31650WAT      O95191   5.044   3.372   1.115
31650WAT     H195192   4.972   3.321   1.068
31650WAT     H295193   5.003   3.428   1.187
31651WAT      O95194   6.694   1.230   7.959
31651WAT     H195195   6.643   1.162   8.013
31651WAT     H295196   6.656   1.234   7.867
31652WAT      O95197   0.588   5.407   6.123
31652WAT     H195198   0.683   5.436   6.114
31652WAT     H295199   0.555   5.373   6.035
31653WAT      O95200   3.160   1.041   8.094
31653WAT     H195201   3.159   0.990   8.180
31653WAT     H295202   3.235   1.008   8.037
31654WAT      O95203   1.135   1.607   5.586
31654WAT     H195204   1.167   1.600   5.491
31654WAT     H295205   1.092   1.696   5.600
31655WAT      O95206   5.485   3.066   1.578
31655WAT     H195207   5.462   3.074   1.481
31655WAT     H295208   5.551   3.137   1.603
31656WAT      O95209   0.182   2.342   1.915
31656WAT     H195210   0.125   2.420   1.890
31656WAT     H295211   0.264   2.374   1.961
31657WAT      O95212   5.571   4.956   3.220
31657WAT     H195213   5.529   5.046   3.216
31657WAT     H295214   5.655   4.955   3.166
31658WAT      O95215   2.149   7.458   5.150
31658WAT     H195216   2.177   7.420   5.238
31658WAT     H295217   2.197   7.544   5.133
31659WAT      O95218   5.210   1.363   2.082
31659WAT     H195219   5.248   1.424   2.012
31659WAT     H295220   5.260   1.375   2.167
31660WAT      O95221   1.107   8.121   4.527
31660WAT     H195222   1.160   8.161   4.452
31660WAT     H295223   1.120   8.175   4.610
31661WAT      O95224   0.189   3.844   1.026
31661WAT     H195225   0.128   3.766   1.041
31661WAT     H295226   0.283   3.818   1.050
31662WAT      O95227   9.539   9.256   2.337
31662WAT     H195228   9.553   9.322   2.262
31662WAT     H295229   9.537   9.304   2.424
31663WAT      O95230   9.376   1.315   1.235
31663WAT     H195231   9.440   1.239   1.228
31663WAT     H295232   9.422   1.400   1.210
31664WAT      O95233   4.280   5.725   2.828
31664WAT     H195234   4.221   5.792   2.783
31664WAT     H295235   4.247   5.632   2.806
31665WAT      O95236   7.274   5.332   7.119
31665WAT     H195237   7.261   5.388   7.038
31665WAT     H295238   7.266   5.235   7.095
31666WAT      O95239   7.559   5.317   3.700
31666WAT     H195240   7.478   5.372   3.683
31666WAT     H295241   7.598   5.286   3.614
31667WAT      O95242   8.267   7.314   6.022
31667WAT     H195243   8.323   7.231   6.016
31667WAT     H295244   8.200   7.303   6.095
31668WAT      O95245   3.336   9.430   0.079
31668WAT     H195246   3.424   9.463   0.046
31668WAT     H295247   3.336   9.330   0.079
31669WAT      O95248   8.713   0.281   2.658
31669WAT     H195249   8.714   0.297   2.559
31669WAT     H295250   8.679   0.189   2.677
31670WAT      O95251   4.438   3.047   6.675
31670WAT     H195252   4.410   3.110   6.603
31670WAT     H295253   4.442   2.954   6.639
31671WAT      O95254   4.473   1.710   9.285
31671WAT     H195255   4.409   1.778   9.321
31671WAT     H295256   4.522   1.667   9.361
31672WAT      O95257   9.175   1.894   3.755
31672WAT     H195258   9.151   1.897   3.658
31672WAT     H295259   9.128   1.818   3.798
31673WAT      O95260   9.810   7.264   5.808
31673WAT     H195261   9.903   7.300   5.816
31673WAT     H295262   9.744   7.338   5.823
31674WAT      O95263   8.855   8.191   1.427
31674WAT     H195264   8.927   8.135   1.385
31674WAT     H295265   8.890   8.229   1.513
31675WAT      O95266   8.850   4.188   8.843
31675WAT     H195267   8.908   4.261   8.880
31675WAT     H295268   8.758   4.196   8.881
31676WAT      O95269   9.125   0.954   1.161
31676WAT     H195270   9.203   0.942   1.099
31676WAT     H295271   9.109   1.051   1.177
31677WAT      O95272   5.345   8.045   7.486
31677WAT     H195273   5.340   8.060   7.387
31677WAT     H295274   5.437   8.015   7.511
31678WAT      O95275   4.809   6.132   7.763
31678WAT     H195276   4.901   6.095   7.752
31678WAT     H295277   4.815   6.223   7.805
31679WAT      O95278   6.518   2.815   9.547
31679WAT     H195279   6.579   2.742   9.517
31679WAT     H295280   6.423   2.785   9.536
31680WAT      O95281   3.046   5.253   9.090
31680WAT     H195282   3.002   5.337   9.057
31680WAT     H295283   3.137   5.245   9.048
31681WAT      O95284   4.897   9.499   5.646
31681WAT     H195285   4.826   9.541   5.703
31681WAT     H295286   4.899   9.545   5.558
31682WAT      O95287   6.030   5.578   2.441
31682WAT     H195288   6.065   5.586   2.534
31682WAT     H295289   6.097   5.529   2.384
31683WAT      O95290   3.842   9.566   5.836
31683WAT     H195291   3.874   9.534   5.747
31683WAT     H295292   3.920   9.586   5.895
31684WAT      O95293   8.146   4.066   7.460
31684WAT     H195294   8.115   4.030   7.372
31684WAT     H295295   8.222   4.129   7.445
31685WAT      O95296   3.127   2.126   4.698
31685WAT     H195297   3.209   2.182   4.704
31685WAT     H295298   3.115   2.074   4.783
31686WAT      O95299   5.128   4.707   2.563
31686WAT     H195300   5.052   4.718   2.499
31686WAT     H295301   5.208   4.672   2.513
31687WAT      O95302   9.303   6.634   6.811
31687WAT     H195303   9.212   6.675   6.819
31687WAT     H295304   9.367   6.684   6.869
31688WAT      O95305   6.503   8.884   3.083
31688WAT     H195306   6.449   8.811   3.126
31688WAT     H295307   6.598   8.878   3.114
31689WAT      O95308   8.064   2.012   4.850
31689WAT     H195309   8.012   2.089   4.811
31689WAT     H295310   8.128   1.977   4.781
31690WAT      O95311   0.249   2.856   4.024
31690WAT     H195312   0.195   2.913   4.086
31690WAT     H295313   0.312   2.799   4.077
31691WAT      O95314   7.275   6.997   7.515
31691WAT     H195315   7.274   7.064   7.440
31691WAT     H295316   7.360   6.946   7.512
31692WAT      O95317   1.367   9.696   8.118
31692WAT     H195318   1.403   9.782   8.082
31692WAT     H295319   1.267   9.700   8.122
31693WAT      O95320   3.463   1.119   6.950
31693WAT     H195321   3.548   1.094   6.996
31693WAT     H295322   3.483   1.142   6.854
31694WAT      O95323   3.746   2.439   2.079
31694WAT     H195324   3.670   2.503   2.084
31694WAT     H295325   3.736   2.381   1.998
31695WAT      O95326   6.819   7.851   9.117
31695WAT     H195327   6.805   7.771   9.175
31695WAT     H295328   6.916   7.874   9.114
31696WAT      O95329   1.509   2.766   5.289
31696WAT     H195330   1.470   2.674   5.289
31696WAT     H295331   1.608   2.759   5.303
31697WAT      O95332   2.030   3.728   5.537
31697WAT     H195333   2.002   3.722   5.633
31697WAT     H295334   2.045   3.824   5.513
31698WAT      O95335   7.136   8.758   6.634
31698WAT     H195336   7.192   8.737   6.715
31698WAT     H295337   7.073   8.833   6.656
31699WAT      O95338   1.343   1.914   2.465
31699WAT     H195339   1.272   1.955   2.523
31699WAT     H295340   1.330   1.815   2.462
31700WAT      O95341   2.277   7.092   3.559
31700WAT     H195342   2.265   7.126   3.652
31700WAT     H295343   2.197   7.118   3.503
31701WAT      O95344   3.504   7.612   0.326
31701WAT     H195345   3.412   7.651   0.316
31701WAT     H295346   3.509   7.560   0.412
31702WAT      O95347   2.509   5.494   3.769
31702WAT     H195348   2.535   5.427   3.700
31702WAT     H295349   2.591   5.526   3.818
31703WAT      O95350   3.080   8.303   2.393
31703WAT     H195351   3.035   8.275   2.308
31703WAT     H295352   3.083   8.403   2.397
31704WAT      O95353   9.472   6.005   8.275
31704WAT     H195354   9.398   5.949   8.237
31704WAT     H295355   9.557   5.985   8.227
31705WAT      O95356   0.483   4.159   7.518
31705WAT     H195357   0.528   4.070   7.516
31705WAT     H295358   0.414   4.160   7.590
31706WAT      O95359   1.099   0.803   8.247
31706WAT     H195360   1.045   0.758   8.317
31706WAT     H295361   1.111   0.900   8.272
31707WAT      O95362   0.570   0.078   9.888
31707WAT     H195363   0.512   0.137   9.944
31707WAT     H295364   0.541  -0.017   9.898
31708WAT      O95365   8.721   7.844   8.798
31708WAT     H195366   8.624   7.865   8.809
31708WAT     H295367   8.733   7.745   8.791
31709WAT      O95368   6.704   1.674   1.000
31709WAT     H195369   6.609   1.671   0.968
31709WAT     H295370   6.743   1.764   0.979
31710WAT      O95371   9.171   8.342   8.553
31710WAT     H195372   9.179   8.271   8.623
31710WAT     H295373   9.128   8.302   8.472
31711WAT      O95374   1.534   8.212   1.815
31711WAT     H195375   1.531   8.151   1.894
31711WAT     H295376   1.462   8.281   1.823
31712WAT      O95377   5.431   4.677   2.744
31712WAT     H195378   5.387   4.642   2.661
31712WAT     H295379   5.405   4.773   2.757
31713WAT      O95380   3.736   2.588   4.314
31713WAT     H195381   3.691   2.588   4.224
31713WAT     H295382   3.668   2.600   4.386
31714WAT      O95383   6.212   8.026   7.907
31714WAT     H195384   6.131   8.044   7.963
31714WAT     H295385   6.197   8.062   7.815
31715WAT      O95386   8.999   4.052   3.196
31715WAT     H195387   8.992   3.953   3.207
31715WAT     H295388   8.908   4.094   3.208
31716WAT      O95389   6.962   8.551   7.221
31716WAT     H195390   6.913   8.624   7.270
31716WAT     H295391   6.976   8.473   7.283
31717WAT      O95392   2.225   8.847   0.647
31717WAT     H195393   2.240   8.885   0.555
31717WAT     H295394   2.131   8.863   0.675
31718WAT      O95395   2.410   1.860   8.489
31718WAT     H195396   2.483   1.795   8.509
31718WAT     H295397   2.324   1.827   8.528
31719WAT      O95398   3.480   2.133   4.508
31719WAT     H195399   3.522   2.056   4.556
31719WAT     H295400   3.409   2.173   4.565
31720WAT      O95401   8.239   5.619   1.918
31720WAT     H195402   8.207   5.525   1.904
31720WAT     H295403   8.223   5.672   1.835
31721WAT      O95404   5.598   9.464   8.668
31721WAT     H195405   5.508   9.426   8.646
31721WAT     H295406   5.603   9.484   8.765
31722WAT      O95407   8.072   5.309   3.989
31722WAT     H195408   8.053   5.311   4.087
31722WAT     H295409   8.109   5.397   3.960
31723WAT      O95410   1.318   3.489   7.017
31723WAT     H195411   1.315   3.407   6.960
31723WAT     H295412   1.266   3.473   7.101
31724WAT      O95413   4.450   3.200   0.645
31724WAT     H195414   4.416   3.164   0.732
31724WAT     H295415   4.546   3.173   0.633
31725WAT      O95416   6.846   0.934   3.558
31725WAT     H195417   6.863   0.847   3.604
31725WAT     H295418   6.887   0.931   3.467
31726WAT      O95419   0.825   0.262   2.995
31726WAT     H195420   0.781   0.343   2.956
31726WAT     H295421   0.770   0.181   2.973
31727WAT      O95422   2.909   2.761   0.440
31727WAT     H195423   2.809   2.766   0.449
31727WAT     H295424   2.944   2.849   0.408
31728WAT      O95425   9.394   7.413   5.367
31728WAT     H195426   9.304   7.371   5.361
31728WAT     H295427   9.383   7.511   5.387
31729WAT      O95428   8.716   9.372   7.684
31729WAT     H195429   8.808   9.402   7.707
31729WAT     H295430   8.680   9.315   7.758
31730WAT      O95431   0.390   8.583   5.538
31730WAT     H195432   0.376   8.484   5.539
31730WAT     H295433   0.319   8.627   5.593
31731WAT      O95434   5.720   7.788   0.715
31731WAT     H195435   5.689   7.693   0.725
31731WAT     H295436   5.771   7.815   0.797
31732WAT      O95437   6.832   7.546   2.035
31732WAT     H195438   6.811   7.642   2.051
31732WAT     H295439   6.762   7.505   1.976
31733WAT      O95440   7.854   7.042   0.894
31733WAT     H195441   7.936   7.012   0.845
31733WAT     H295442   7.879   7.080   0.983
31734WAT      O95443   5.259   3.230   8.832
31734WAT     H195444   5.290   3.279   8.750
31734WAT     H295445   5.233   3.296   8.903
31735WAT      O95446   0.304   0.946   1.642
31735WAT     H195447   0.241   1.023   1.643
31735WAT     H295448   0.272   0.875   1.706
31736WAT      O95449   1.846   5.699   3.374
31736WAT     H195450   1.749   5.703   3.353
31736WAT     H295451   1.884   5.791   3.375
31737WAT      O95452   3.232   3.173   3.682
31737WAT     H195453   3.263   3.121   3.603
31737WAT     H295454   3.236   3.115   3.764
31738WAT      O95455   0.042   1.566   8.038
31738WAT     H195456   0.140   1.575   8.056
31738WAT     H295457  -0.009   1.575   8.124
31739WAT      O95458   3.707   2.822   3.245
31739WAT     H195459   3.721   2.915   3.210
31739WAT     H295460   3.769   2.759   3.198
31740WAT      O95461   7.323   9.176   7.640
31740WAT     H195462   7.293   9.271   7.646
31740WAT     H295463   7.363   9.148   7.727
31741WAT      O95464   7.516   4.226   5.760
31741WAT     H195465   7.502   4.310   5.812
31741WAT     H295466   7.452   4.156   5.792
31742WAT      O95467   2.790   5.921   4.641
31742WAT     H195468   2.802   5.821   4.639
31742WAT     H295469   2.734   5.946   4.719
31743WAT      O95470   7.876   4.515   4.683
31743WAT     H195471   7.945   4.551   4.747
31743WAT     H295472   7.812   4.457   4.733
31744WAT      O95473   5.360   2.492   8.128
31744WAT     H195474   5.423   2.435   8.181
31744WAT     H295475   5.401   2.582   8.112
31745WAT      O95476   2.180   5.868   8.249
31745WAT     H195477   2.190   5.930   8.171
31745WAT     H295478   2.269   5.854   8.292
31746WAT      O95479   0.611   8.790   9.257
31746WAT     H195480   0.559   8.764   9.176
31746WAT     H295481   0.649   8.709   9.300
31747WAT      O95482   8.363   9.682   7.319
31747WAT     H195483   8.435   9.621   7.287
31747WAT     H295484   8.317   9.724   7.240
31748WAT      O95485   5.864   4.079   9.105
31748WAT     H195486   5.853   4.063   9.203
31748WAT     H295487   5.958   4.107   9.086
31749WAT      O95488   2.551   6.326   9.782
31749WAT     H195489   2.586   6.411   9.820
31749WAT     H295490   2.544   6.335   9.682
31750WAT      O95491   7.666   8.188   6.437
31750WAT     H195492   7.752   8.228   6.405
31750WAT     H295493   7.607   8.169   6.358
31751WAT      O95494   2.307   8.371   0.094
31751WAT     H195495   2.274   8.444   0.035
31751WAT     H295496   2.259   8.374   0.182
31752WAT      O95497   7.570   3.439   2.960
31752WAT     H195498   7.587   3.354   2.911
31752WAT     H295499   7.526   3.505   2.899
31753WAT      O95500   3.241   5.588   2.438
31753WAT     H195501   3.206   5.654   2.373
31753WAT     H295502   3.268   5.504   2.390
31754WAT      O95503   9.289   7.401   4.142
31754WAT     H195504   9.303   7.496   4.113
31754WAT     H295505   9.376   7.364   4.176
31755WAT      O95506   4.238   5.088   3.153
31755WAT     H195507   4.286   5.003   3.134
31755WAT     H295508   4.302   5.165   3.150
31756WAT      O95509   4.394   8.680   4.670
31756WAT     H195510   4.404   8.779   4.657
31756WAT     H295511   4.344   8.663   4.754
31757WAT      O95512   8.183   2.842   0.747
31757WAT     H195513   8.247   2.796   0.809
31757WAT     H295514   8.133   2.774   0.694
31758WAT      O95515   9.664   2.746   2.126
31758WAT     H195516   9.592   2.691   2.167
31758WAT     H295517   9.749   2.693   2.122
31759WAT      O95518   4.737   3.887   0.374
31759WAT     H195519   4.791   3.869   0.291
31759WAT     H295520   4.681   3.968   0.359
31760WAT      O95521   5.038   7.817   6.805
31760WAT     H195522   5.092   7.755   6.863
31760WAT     H295523   5.086   7.832   6.719
31761WAT      O95524   2.753   1.650   6.115
31761WAT     H195525   2.838   1.690   6.148
31761WAT     H295526   2.689   1.724   6.090
31762WAT      O95527   2.463   4.168   4.998
31762WAT     H195528   2.536   4.116   4.954
31762WAT     H295529   2.425   4.115   5.074
31763WAT      O95530   7.592   1.455   9.318
31763WAT     H195531   7.667   1.392   9.300
31763WAT     H295532   7.591   1.479   9.415
31764WAT      O95533   7.562   5.721   9.420
31764WAT     H195534   7.509   5.764   9.346
31764WAT     H295535   7.499   5.678   9.485
31765WAT      O95536   1.217   3.090   1.911
31765WAT     H195537   1.265   3.118   1.994
31765WAT     H295538   1.176   3.171   1.868
31766WAT      O95539   5.816   6.968   5.708
31766WAT     H195540   5.718   6.975   5.686
31766WAT     H295541   5.830   6.892   5.770
31767WAT      O95542   4.911   3.462   8.885
31767WAT     H195543   4.820   3.499   8.905
31767WAT     H295544   4.945   3.412   8.965
31768WAT      O95545   3.857   9.572   8.331
31768WAT     H195546   3.772   9.622   8.317
31768WAT     H295547   3.837   9.476   8.352
31769WAT      O95548   1.591   8.924   4.762
31769WAT     H195549   1.492   8.915   4.752
31769WAT     H295550   1.637   8.871   4.691
31770WAT      O95551   2.622   3.451   8.384
31770WAT     H195552   2.595   3.475   8.291
31770WAT     H295553   2.687   3.519   8.419
31771WAT      O95554   2.405   8.592   3.972
31771WAT     H195555   2.395   8.548   4.061
31771WAT     H295556   2.348   8.674   3.969
31772WAT      O95557   2.309   1.580   2.255
31772WAT     H195558   2.227   1.540   2.298
31772WAT     H295559   2.391   1.534   2.291
31773WAT      O95560   0.862   9.029   7.257
31773WAT     H195561   0.960   9.032   7.238
31773WAT     H295562   0.829   8.935   7.245
31774WAT      O95563   9.369   3.579   4.439
31774WAT     H195564   9.459   3.616   4.457
31774WAT     H295565   9.301   3.652   4.443
31775WAT      O95566   2.564   1.793   5.771
31775WAT     H195567   2.564   1.816   5.868
31775WAT     H295568   2.474   1.757   5.746
31776WAT      O95569   7.426   0.086   9.300
31776WAT     H195570   7.396  -0.008   9.284
31776WAT     H295571   7.428   0.104   9.399
31777WAT      O95572   1.926   7.809   0.315
31777WAT     H195573   1.890   7.771   0.229
31777WAT     H295574   2.017   7.847   0.299
31778WAT      O95575   6.647   0.352   4.679
31778WAT     H195576   6.720   0.288   4.656
31778WAT     H295577   6.662   0.438   4.630
31779WAT      O95578   6.392   5.507   4.541
31779WAT     H195579   6.452   5.479   4.467
31779WAT     H295580   6.402   5.606   4.556
31780WAT      O95581   7.167   1.958   6.851
31780WAT     H195582   7.079   1.999   6.828
31780WAT     H295583   7.183   1.967   6.949
31781WAT      O95584   9.000   7.761   3.537
31781WAT     H195585   9.070   7.827   3.566
31781WAT     H295586   8.911   7.790   3.571
31782WAT      O95587   9.310   6.526   9.335
31782WAT     H195588   9.334   6.542   9.431
31782WAT     H295589   9.213   6.503   9.329
31783WAT      O95590   0.719   9.178   7.058
31783WAT     H195591   0.656   9.116   7.011
31783WAT     H295592   0.725   9.151   7.155
31784WAT      O95593   7.272   4.241   8.748
31784WAT     H195594   7.356   4.201   8.712
31784WAT     H295595   7.248   4.197   8.835
31785WAT      O95596   3.538   0.190   3.861
31785WAT     H195597   3.558   0.214   3.956
31785WAT     H295598   3.552   0.092   3.847
31786WAT      O95599   6.598   5.850   7.815
31786WAT     H195600   6.559   5.942   7.818
31786WAT     H295601   6.667   5.846   7.743
31787WAT      O95602   7.429   4.497   0.390
31787WAT     H195603   7.348   4.443   0.366
31787WAT     H295604   7.511   4.454   0.351
31788WAT      O95605   0.904   1.865   1.105
31788WAT     H195606   0.816   1.907   1.084
31788WAT     H295607   0.908   1.842   1.202
31789WAT      O95608   1.085   6.841   4.487
31789WAT     H195609   1.081   6.822   4.389
31789WAT     H295610   1.137   6.924   4.504
31790WAT      O95611   3.083   6.192   2.974
31790WAT     H195612   3.152   6.121   2.958
31790WAT     H295613   3.117   6.255   3.044
31791WAT      O95614   4.306   4.787   8.107
31791WAT     H195615   4.341   4.826   8.022
31791WAT     H295616   4.380   4.780   8.173
31792WAT      O95617   7.168   3.155   4.229
31792WAT     H195618   7.109   3.228   4.195
31792WAT     H295619   7.178   3.085   4.158
31793WAT      O95620   6.541   5.833   9.793
31793WAT     H195621   6.635   5.853   9.766
31793WAT     H295622   6.521   5.736   9.776
31794WAT      O95623   5.627   7.142   0.462
31794WAT     H195624   5.609   7.186   0.550
31794WAT     H295625   5.553   7.162   0.398
31795WAT      O95626   5.470   1.171   6.326
31795WAT     H195627   5.453   1.247   6.388
31795WAT     H295628   5.390   1.110   6.325
31796WAT      O95629   7.519   3.024   2.580
31796WAT     H195630   7.476   3.046   2.493
31796WAT     H295631   7.618   3.027   2.571
31797WAT      O95632   3.621   8.650   6.732
31797WAT     H195633   3.712   8.631   6.694
31797WAT     H295634   3.578   8.723   6.679
31798WAT      O95635   1.318   8.719   4.032
31798WAT     H195636   1.377   8.722   4.113
31798WAT     H295637   1.259   8.799   4.030
31799WAT      O95638   4.906   4.745   4.964
31799WAT     H195639   4.899   4.786   4.873
31799WAT     H295640   4.956   4.807   5.025
31800WAT      O95641   8.113   2.232   9.222
31800WAT     H195642   8.074   2.311   9.269
31800WAT     H295643   8.104   2.151   9.279
31801WAT      O95644   4.838   3.509   9.256
31801WAT     H195645   4.852   3.497   9.355
31801WAT     H295646   4.870   3.600   9.229
31802WAT      O95647   4.072   3.559   7.896
31802WAT     H195648   4.096   3.543   7.992
31802WAT     H295649   4.156   3.567   7.842
31803WAT      O95650   7.152   1.073   0.417
31803WAT     H195651   7.112   1.123   0.494
31803WAT     H295652   7.179   0.982   0.447
31804WAT      O95653   1.641   6.872   5.048
31804WAT     H195654   1.626   6.958   4.999
31804WAT     H295655   1.561   6.813   5.036
31805WAT      O95656   6.494   6.809   1.119
31805WAT     H195657   6.505   6.907   1.135
31805WAT     H295658   6.574   6.760   1.154
31806WAT      O95659   5.259   1.728   7.826
31806WAT     H195660   5.296   1.659   7.763
31806WAT     H295661   5.252   1.816   7.779
31807WAT      O95662   0.359   7.095   0.171
31807WAT     H195663   0.346   6.997   0.156
31807WAT     H295664   0.327   7.119   0.263
31808WAT      O95665   6.302   3.695   9.236
31808WAT     H195666   6.270   3.610   9.278
31808WAT     H295667   6.378   3.732   9.289
31809WAT      O95668   3.103   0.134   3.833
31809WAT     H195669   3.136   0.040   3.826
31809WAT     H295670   3.038   0.141   3.909
31810WAT      O95671   3.910   7.846   3.771
31810WAT     H195672   3.883   7.907   3.697
31810WAT     H295673   3.894   7.751   3.744
31811WAT      O95674   8.786   2.735   4.125
31811WAT     H195675   8.738   2.736   4.213
31811WAT     H295676   8.720   2.752   4.052
31812WAT      O95677   0.924   8.816   4.819
31812WAT     H195678   0.830   8.783   4.826
31812WAT     H295679   0.947   8.870   4.900
31813WAT      O95680   4.484   2.611   4.734
31813WAT     H195681   4.530   2.608   4.645
31813WAT     H295682   4.532   2.674   4.794
31814WAT      O95683   7.931   5.137   2.909
31814WAT     H195684   7.914   5.080   2.828
31814WAT     H295685   8.013   5.193   2.894
31815WAT      O95686   8.764   3.508   8.644
31815WAT     H195687   8.847   3.553   8.679
31815WAT     H295688   8.780   3.410   8.638
31816WAT      O95689   2.745   3.371   3.803
31816WAT     H195690   2.734   3.323   3.716
31816WAT     H295691   2.840   3.364   3.834
31817WAT      O95692   9.070   3.676   1.962
31817WAT     H195693   9.075   3.582   1.996
31817WAT     H295694   9.089   3.739   2.037
31818WAT      O95695   5.639   1.918   3.901
31818WAT     H195696   5.667   1.938   3.808
31818WAT     H295697   5.565   1.850   3.900
31819WAT      O95698   9.406   5.896   7.878
31819WAT     H195699   9.482   5.834   7.897
31819WAT     H295700   9.428   5.952   7.798
31820WAT      O95701   2.721   7.622   3.216
31820WAT     H195702   2.640   7.678   3.231
31820WAT     H295703   2.695   7.538   3.169
31821WAT      O95704   3.738   5.229   7.496
31821WAT     H195705   3.819   5.285   7.514
31821WAT     H295706   3.755   5.135   7.523
31822WAT      O95707   2.070   8.653   0.235
31822WAT     H195708   2.014   8.698   0.305
31822WAT     H295709   2.060   8.701   0.148
31823WAT      O95710   5.260   6.234   6.193
31823WAT     H195711   5.200   6.270   6.121
31823WAT     H295712   5.354   6.229   6.158
31824WAT      O95713   8.672   1.817   2.461
31824WAT     H195714   8.580   1.818   2.500
31824WAT     H295715   8.686   1.732   2.410
31825WAT      O95716   1.156   3.009   6.512
31825WAT     H195717   1.109   2.980   6.429
31825WAT     H295718   1.251   3.031   6.490
31826WAT      O95719   1.997   4.672   9.307
31826WAT     H195720   1.959   4.670   9.215
31826WAT     H295721   1.955   4.746   9.359
31827WAT      O95722   9.411   5.593   9.499
31827WAT     H195723   9.501   5.633   9.484
31827WAT     H295724   9.416   5.494   9.486
31828WAT      O95725   6.859   8.658   2.254
31828WAT     H195726   6.907   8.585   2.205
31828WAT     H295727   6.785   8.618   2.308
31829WAT      O95728   6.399   9.321   4.670
31829WAT     H195729   6.484   9.375   4.674
31829WAT     H295730   6.421   9.224   4.683
31830WAT      O95731   6.986   2.602   1.760
31830WAT     H195732   7.003   2.568   1.668
31830WAT     H295733   6.893   2.576   1.789
31831WAT      O95734   6.286   9.007   1.781
31831WAT     H195735   6.271   9.106   1.782
31831WAT     H295736   6.198   8.960   1.781
31832WAT      O95737   6.315   3.513   7.587
31832WAT     H195738   6.409   3.546   7.581
31832WAT     H295739   6.308   3.424   7.541
31833WAT      O95740   2.408   5.812   0.725
31833WAT     H195741   2.364   5.820   0.814
31833WAT     H295742   2.344   5.769   0.661
31834WAT      O95743   7.468   5.946   2.502
31834WAT     H195744   7.460   5.983   2.594
31834WAT     H295745   7.418   5.859   2.497
31835WAT      O95746   6.438   5.318   8.389
31835WAT     H195747   6.360   5.266   8.424
31835WAT     H295748   6.405   5.399   8.341
31836WAT      O95749   5.475   2.392   7.590
31836WAT     H195750   5.475   2.311   7.649
31836WAT     H295751   5.406   2.457   7.623
31837WAT      O95752   8.297   9.585   9.515
31837WAT     H195753   8.244   9.667   9.538
31837WAT     H295754   8.250   9.534   9.443
31838WAT      O95755   7.579   2.653   6.120
31838WAT     H195756   7.660   2.647   6.179
31838WAT     H295757   7.552   2.562   6.089
31839WAT      O95758   4.886   6.780   7.746
31839WAT     H195759   4.903   6.878   7.743
31839WAT     H295760   4.963   6.731   7.703
31840WAT      O95761   4.694   3.171   2.520
31840WAT     H195762   4.628   3.194   2.449
31840WAT     H295763   4.780   3.219   2.504
31841WAT      O95764   9.605   7.922   9.629
31841WAT     H195765   9.572   7.929   9.535
31841WAT     H295766   9.532   7.887   9.688
31842WAT      O95767   8.229   5.336   8.620
31842WAT     H195768   8.199   5.292   8.535
31842WAT     H295769   8.226   5.436   8.609
31843WAT      O95770   0.588   3.895   3.376
31843WAT     H195771   0.542   3.871   3.462
31843WAT     H295772   0.679   3.931   3.396
31844WAT      O95773   5.812   7.085   5.373
31844WAT     H195774   5.887   7.019   5.368
31844WAT     H295775   5.832   7.153   5.443
31845WAT      O95776   8.564   1.586   6.515
31845WAT     H195777   8.644   1.586   6.575
31845WAT     H295778   8.506   1.507   6.536
31846WAT      O95779   0.599   8.638   0.379
31846WAT     H195780   0.611   8.735   0.400
31846WAT     H295781   0.549   8.628   0.293
31847WAT      O95782   8.915   6.207   0.234
31847WAT     H195783   9.000   6.159   0.212
31847WAT     H295784   8.936   6.289   0.288
31848WAT      O95785   8.501   4.551   0.724
31848WAT     H195786   8.529   4.635   0.770
31848WAT     H295787   8.459   4.489   0.789
31849WAT      O95788   2.258   9.449   1.862
31849WAT     H195789   2.253   9.518   1.789
31849WAT     H295790   2.345   9.460   1.911
31850WAT      O95791   6.345   9.608   7.758
31850WAT     H195792   6.420   9.566   7.707
31850WAT     H295793   6.318   9.693   7.714
31851WAT      O95794   1.047   8.324   5.133
31851WAT     H195795   0.996   8.237   5.134
31851WAT     H295796   1.033   8.369   5.045
31852WAT      O95797   5.971   4.943   8.556
31852WAT     H195798   5.938   4.960   8.464
31852WAT     H295799   6.029   5.019   8.586
31853WAT      O95800   7.880   5.339   2.510
31853WAT     H195801   7.848   5.383   2.594
31853WAT     H295802   7.979   5.325   2.517
31854WAT      O95803   0.242   6.619   5.849
31854WAT     H195804   0.282   6.596   5.938
31854WAT     H295805   0.241   6.719   5.838
31855WAT      O95806   8.021   9.338   1.962
31855WAT     H195807   8.012   9.245   1.998
31855WAT     H295808   7.946   9.395   1.995
31856WAT      O95809   2.405   4.256   0.702
31856WAT     H195810   2.326   4.312   0.728
31856WAT     H295811   2.451   4.224   0.785
31857WAT      O95812   7.461   8.171   2.228
31857WAT     H195813   7.507   8.243   2.176
31857WAT     H295814   7.407   8.213   2.302
31858WAT      O95815   0.395   7.250   2.643
31858WAT     H195816   0.298   7.250   2.621
31858WAT     H295817   0.430   7.157   2.643
31859WAT      O95818   0.333   0.492   8.400
31859WAT     H195819   0.394   0.412   8.400
31859WAT     H295820   0.358   0.554   8.326
31860WAT      O95821   0.427   4.956   0.767
31860WAT     H195822   0.454   4.965   0.863
31860WAT     H295823   0.347   5.013   0.749
31861WAT      O95824   5.515   6.826   9.058
31861WAT     H195825   5.517   6.793   8.963
31861WAT     H295826   5.587   6.781   9.110
31862WAT      O95827   2.090   7.500   4.676
31862WAT     H195828   2.022   7.568   4.701
31862WAT     H295829   2.100   7.434   4.750
31863WAT      O95830   0.965   1.615   3.756
31863WAT     H195831   0.953   1.557   3.675
31863WAT     H295832   0.896   1.590   3.824
31864WAT      O95833   7.988   3.942   3.884
31864WAT     H195834   7.892   3.929   3.908
31864WAT     H295835   7.997   3.943   3.784
31865WAT      O95836   4.793   8.498   4.978
31865WAT     H195837   4.793   8.441   4.896
31865WAT     H295838   4.885   8.536   4.992
31866WAT      O95839   3.003   9.751   7.229
31866WAT     H195840   2.970   9.805   7.307
31866WAT     H295841   2.946   9.670   7.218
31867WAT      O95842   7.708   1.445   7.647
31867WAT     H195843   7.663   1.415   7.732
31867WAT     H295844   7.651   1.513   7.602
31868WAT      O95845   7.226   7.941   5.287
31868WAT     H195846   7.300   7.994   5.246
31868WAT     H295847   7.187   7.992   5.363
31869WAT      O95848   6.815   9.305   6.861
31869WAT     H195849   6.793   9.211   6.833
31869WAT     H295850   6.877   9.346   6.794
31870WAT      O95851   4.344   1.239   6.661
31870WAT     H195852   4.281   1.164   6.638
31870WAT     H295853   4.299   1.327   6.643
31871WAT      O95854   6.763   6.737   3.898
31871WAT     H195855   6.749   6.738   3.997
31871WAT     H295856   6.678   6.709   3.852
31872WAT      O95857   3.637   8.351   1.988
31872WAT     H195858   3.605   8.436   1.946
31872WAT     H295859   3.565   8.315   2.047
31873WAT      O95860   9.511   9.503   1.109
31873WAT     H195861   9.531   9.482   1.205
31873WAT     H295862   9.591   9.484   1.053
31874WAT      O95863   4.008   9.648   3.202
31874WAT     H195864   4.062   9.730   3.218
31874WAT     H295865   3.925   9.672   3.151
31875WAT      O95866   9.187   5.962   6.066
31875WAT     H195867   9.156   5.973   6.161
31875WAT     H295868   9.120   6.003   6.004
31876WAT      O95869   3.749   0.971   3.834
31876WAT     H195870   3.797   1.010   3.912
31876WAT     H295871   3.674   0.913   3.866
31877WAT      O95872   8.361   8.245   9.870
31877WAT     H195873   8.284   8.249   9.805
31877WAT     H295874   8.446   8.228   9.819
31878WAT      O95875   9.115   6.122   2.143
31878WAT     H195876   9.135   6.220   2.136
31878WAT     H295877   9.085   6.088   2.055
31879WAT      O95878   0.767   1.038   9.085
31879WAT     H195879   0.828   1.113   9.062
31879WAT     H295880   0.685   1.074   9.130
31880WAT      O95881   0.434   8.180   4.569
31880WAT     H195882   0.411   8.169   4.472
31880WAT     H295883   0.481   8.098   4.602
31881WAT      O95884   3.131   9.140   8.796
31881WAT     H195885   3.230   9.144   8.789
31881WAT     H295886   3.093   9.092   8.717
31882WAT      O95887   2.989   2.270   5.420
31882WAT     H195888   3.006   2.180   5.378
31882WAT     H295889   2.948   2.331   5.353
31883WAT      O95890   6.146   2.235   4.680
31883WAT     H195891   6.076   2.178   4.636
31883WAT     H295892   6.102   2.309   4.731
31884WAT      O95893   5.059   0.829   8.475
31884WAT     H195894   5.041   0.864   8.383
31884WAT     H295895   5.055   0.905   8.540
31885WAT      O95896   6.303   3.472   1.071
31885WAT     H195897   6.327   3.547   1.009
31885WAT     H295898   6.212   3.437   1.046
31886WAT      O95899   2.211   4.626   5.017
31886WAT     H195900   2.188   4.721   5.037
31886WAT     H295901   2.144   4.565   5.060
31887WAT      O95902   1.184   4.015   9.661
31887WAT     H195903   1.158   3.936   9.715
31887WAT     H295904   1.176   3.993   9.564
31888WAT      O95905   5.286   6.838   7.727
31888WAT     H195906   5.285   6.923   7.674
31888WAT     H295907   5.259   6.857   7.822
31889WAT      O95908   0.596   9.273   9.631
31889WAT     H195909   0.587   9.268   9.730
31889WAT     H295910   0.626   9.184   9.596
31890WAT      O95911   8.469   3.428   3.830
31890WAT     H195912   8.524   3.346   3.815
31890WAT     H295913   8.469   3.451   3.927
31891WAT      O95914   6.791   8.541   1.903
31891WAT     H195915   6.865   8.532   1.969
31891WAT     H295916   6.703   8.538   1.950
31892WAT      O95917   6.421   3.376   0.683
31892WAT     H195918   6.420   3.285   0.641
31892WAT     H295919   6.442   3.368   0.780
31893WAT      O95920   9.319   6.351   9.615
31893WAT     H195921   9.332   6.442   9.653
31893WAT     H295922   9.396   6.329   9.554
31894WAT      O95923   8.172   9.037   1.979
31894WAT     H195924   8.220   9.115   1.939
31894WAT     H295925   8.235   8.983   2.034
31895WAT      O95926   6.646   8.827   1.742
31895WAT     H195927   6.700   8.803   1.823
31895WAT     H295928   6.555   8.785   1.750
31896WAT      O95929   5.479   1.208   4.734
31896WAT     H195930   5.574   1.183   4.753
31896WAT     H295931   5.474   1.302   4.702
31897WAT      O95932   5.219   0.884   9.013
31897WAT     H195933   5.296   0.910   8.954
31897WAT     H295934   5.254   0.836   9.094
31898WAT      O95935   2.672   3.719   6.971
31898WAT     H195936   2.697   3.808   7.011
31898WAT     H295937   2.729   3.702   6.891
31899WAT      O95938   1.483   1.389   7.421
31899WAT     H195939   1.497   1.343   7.509
31899WAT     H295940   1.487   1.322   7.347
   9.88928    9.84380    9.89279 
