GROningen MAchine for Chemical Simulation
95940
    1G5    HO5'    1   4.108   7.584   5.699
    1G5     O5'    2   4.084   7.491   5.697
    1G5     C5'    3   3.943   7.476   5.691
    1G5     H5'    4   3.894   7.557   5.744
    1G5    H5''    5   3.919   7.382   5.740
    1G5     C4'    6   3.883   7.482   5.552
    1G5     H4'    7   3.776   7.459   5.556
    1G5     O4'    8   3.919   7.614   5.499
    1G5     C1'    9   3.931   7.606   5.362
    1G5     H1'   10   3.861   7.666   5.303
    1G5      N9   11   4.065   7.657   5.328
    1G5      C8   12   4.154   7.719   5.411
    1G5      H8   13   4.125   7.749   5.511
    1G5      N7   14   4.270   7.754   5.356
    1G5      C5   15   4.253   7.708   5.219
    1G5      C6   16   4.342   7.707   5.104
    1G5      O6   17   4.457   7.740   5.097
    1G5      N1   18   4.281   7.663   4.988
    1G5      H1   19   4.340   7.662   4.906
    1G5      C2   20   4.147   7.629   4.980
    1G5      N2   21   4.089   7.613   4.864
    1G5     H21   22   4.145   7.594   4.782
    1G5     H22   23   3.989   7.606   4.862
    1G5      N3   24   4.069   7.619   5.087
    1G5      C4   25   4.127   7.653   5.206
    1G5     C3'   26   3.951   7.391   5.450
    1G5     H3'   27   4.059   7.394   5.461
    1G5     C2'   28   3.915   7.458   5.316
    1G5     H2'   29   3.983   7.431   5.235
    1G5     O2'   30   3.782   7.443   5.266
    1G5    HO2'   31   3.729   7.485   5.335
    1G5     O3'   32   3.929   7.248   5.459
    2G        P   33   4.039   7.137   5.420
    2G      OP1   34   3.983   7.008   5.462
    2G      OP2   35   4.172   7.178   5.471
    2G      O5'   36   4.054   7.144   5.264
    2G      C5'   37   3.941   7.129   5.175
    2G      H5'   38   3.871   7.207   5.205
    2G     H5''   39   3.902   7.028   5.186
    2G      C4'   40   3.980   7.148   5.027
    2G      H4'   41   3.889   7.122   4.974
    2G      O4'   42   4.033   7.276   4.995
    2G      C1'   43   4.150   7.265   4.921
    2G      H1'   44   4.141   7.327   4.832
    2G       N9   45   4.269   7.307   4.999
    2G       C8   46   4.278   7.332   5.137
    2G       H8   47   4.189   7.335   5.199
    2G       N7   48   4.393   7.382   5.174
    2G       C5   49   4.472   7.379   5.051
    2G       C6   50   4.612   7.423   5.031
    2G       O6   51   4.699   7.468   5.114
    2G       N1   52   4.651   7.408   4.897
    2G       H1   53   4.743   7.441   4.872
    2G       C2   54   4.572   7.356   4.802
    2G       N2   55   4.620   7.350   4.686
    2G      H21   56   4.718   7.363   4.662
    2G      H22   57   4.547   7.338   4.617
    2G       N3   58   4.443   7.333   4.820
    2G       C4   59   4.393   7.343   4.945
    2G      C3'   60   4.088   7.043   4.994
    2G      H3'   61   4.164   7.026   5.070
    2G      C2'   62   4.155   7.120   4.880
    2G      H2'   63   4.258   7.089   4.860
    2G      O2'   64   4.086   7.113   4.760
    2G     HO2'   65   4.037   7.031   4.756
    2G      O3'   66   4.038   6.917   4.943
    3G        P   67   4.142   6.792   4.957
    3G      OP1   68   4.072   6.676   4.893
    3G      OP2   69   4.176   6.789   5.104
    3G      O5'   70   4.276   6.819   4.880
    3G      C5'   71   4.276   6.823   4.740
    3G      H5'   72   4.200   6.892   4.705
    3G     H5''   73   4.256   6.725   4.696
    3G      C4'   74   4.420   6.858   4.690
    3G      H4'   75   4.422   6.852   4.581
    3G      O4'   76   4.449   6.997   4.735
    3G      C1'   77   4.593   7.008   4.758
    3G      H1'   78   4.642   7.086   4.699
    3G       N9   79   4.614   7.028   4.910
    3G       C8   80   4.527   7.013   5.017
    3G       H8   81   4.426   6.978   5.004
    3G       N7   82   4.572   7.056   5.132
    3G       C5   83   4.700   7.115   5.094
    3G       C6   84   4.792   7.190   5.172
    3G       O6   85   4.783   7.212   5.294
    3G       N1   86   4.898   7.240   5.102
    3G       H1   87   4.973   7.284   5.153
    3G       C2   88   4.924   7.194   4.973
    3G       N2   89   5.039   7.234   4.920
    3G      H21   90   5.104   7.295   4.967
    3G      H22   91   5.042   7.217   4.821
    3G       N3   92   4.847   7.118   4.898
    3G       C4   93   4.726   7.093   4.960
    3G      C3'   94   4.537   6.785   4.748
    3G      H3'   95   4.541   6.770   4.856
    3G      C2'   96   4.654   6.873   4.711
    3G      H2'   97   4.737   6.840   4.774
    3G      O2'   98   4.693   6.891   4.578
    3G     HO2'   99   4.788   6.904   4.582
    3G      O3'  100   4.534   6.658   4.686
    4U        P  101   4.612   6.533   4.753
    4U      OP1  102   4.583   6.416   4.663
    4U      OP2  103   4.563   6.534   4.890
    4U      O5'  104   4.768   6.565   4.768
    4U      C5'  105   4.865   6.567   4.671
    4U      H5'  106   4.823   6.628   4.592
    4U     H5''  107   4.889   6.465   4.640
    4U      C4'  108   5.001   6.622   4.726
    4U      H4'  109   5.085   6.615   4.656
    4U      O4'  110   4.992   6.757   4.770
    4U      C1'  111   5.073   6.770   4.890
    4U      H1'  112   5.148   6.847   4.872
    4U       N1  113   5.001   6.811   5.017
    4U       C6  114   4.867   6.777   5.042
    4U       H6  115   4.814   6.732   4.959
    4U       C5  116   4.800   6.807   5.156
    4U       H5  117   4.697   6.779   5.172
    4U       C4  118   4.875   6.880   5.259
    4U       O4  119   4.820   6.914   5.365
    4U       N3  120   5.010   6.908   5.228
    4U       H3  121   5.069   6.949   5.299
    4U       C2  122   5.072   6.878   5.109
    4U       O2  123   5.188   6.919   5.086
    4U      C3'  124   5.043   6.543   4.844
    4U      H3'  125   4.958   6.537   4.911
    4U      C2'  126   5.139   6.633   4.907
    4U      H2'  127   5.158   6.614   5.013
    4U      O2'  128   5.266   6.642   4.841
    4U     HO2'  129   5.333   6.693   4.887
    4U      O3'  130   5.083   6.412   4.816
    5U        P  131   5.078   6.304   4.925
    5U      OP1  132   5.140   6.184   4.857
    5U      OP2  133   4.938   6.293   4.977
    5U      O5'  134   5.172   6.347   5.043
    5U      C5'  135   5.313   6.360   5.027
    5U      H5'  136   5.341   6.433   4.952
    5U     H5''  137   5.358   6.264   5.000
    5U      C4'  138   5.375   6.412   5.159
    5U      H4'  139   5.483   6.412   5.150
    5U      O4'  140   5.325   6.535   5.202
    5U      C1'  141   5.312   6.529   5.336
    5U      H1'  142   5.366   6.615   5.375
    5U       N1  143   5.172   6.549   5.381
    5U       C6  144   5.066   6.533   5.299
    5U       H6  145   5.076   6.477   5.207
    5U       C5  146   4.944   6.561   5.347
    5U       H5  147   4.855   6.527   5.296
    5U       C4  148   4.919   6.615   5.483
    5U       O4  149   4.808   6.635   5.531
    5U       N3  150   5.033   6.623   5.555
    5U       H3  151   5.017   6.675   5.640
    5U       C2  152   5.158   6.593   5.512
    5U       O2  153   5.245   6.606   5.598
    5U      C3'  154   5.339   6.312   5.268
    5U      H3'  155   5.231   6.303   5.270
    5U      C2'  156   5.372   6.402   5.389
    5U      H2'  157   5.309   6.372   5.474
    5U      O2'  158   5.514   6.411   5.425
    5U     HO2'  159   5.531   6.394   5.517
    5U      O3'  160   5.415   6.190   5.268
    6A        P  161   5.352   6.055   5.332
    6A      OP1  162   5.448   5.941   5.328
    6A      OP2  163   5.218   6.032   5.280
    6A      O5'  164   5.327   6.093   5.480
    6A      C5'  165   5.430   6.091   5.581
    6A      H5'  166   5.520   6.144   5.550
    6A     H5''  167   5.448   5.984   5.592
    6A      C4'  168   5.365   6.152   5.707
    6A      H4'  169   5.435   6.150   5.790
    6A      O4'  170   5.312   6.286   5.691
    6A      C1'  171   5.199   6.312   5.773
    6A      H1'  172   5.206   6.401   5.835
    6A       N9  173   5.070   6.328   5.696
    6A       C8  174   5.047   6.288   5.563
    6A       H8  175   5.124   6.232   5.513
    6A       N7  176   4.918   6.285   5.533
    6A       C5  177   4.865   6.345   5.646
    6A       C6  178   4.729   6.385   5.678
    6A       N6  179   4.625   6.386   5.594
    6A      H61  180   4.533   6.403   5.630
    6A      H62  181   4.636   6.365   5.496
    6A       N1  182   4.698   6.424   5.800
    6A       C2  183   4.795   6.429   5.885
    6A       H2  184   4.773   6.452   5.988
    6A       N3  185   4.921   6.409   5.868
    6A       C4  186   4.952   6.364   5.747
    6A      C3'  187   5.240   6.079   5.766
    6A      H3'  188   5.167   6.064   5.686
    6A      C2'  189   5.179   6.192   5.850
    6A      H2'  190   5.076   6.168   5.874
    6A      O2'  191   5.248   6.222   5.966
    6A     HO2'  192   5.334   6.179   5.972
    6A      O3'  193   5.266   5.957   5.840
    7G        P  194   5.169   5.833   5.822
    7G      OP1  195   5.239   5.723   5.883
    7G      OP2  196   5.119   5.817   5.688
    7G      O5'  197   5.053   5.863   5.921
    7G      C5'  198   5.066   5.886   6.061
    7G      H5'  199   5.156   5.945   6.074
    7G     H5''  200   5.085   5.793   6.115
    7G      C4'  201   4.944   5.957   6.129
    7G      H4'  202   4.962   5.990   6.231
    7G      O4'  203   4.908   6.062   6.043
    7G      C1'  204   4.766   6.068   6.018
    7G      H1'  205   4.725   6.167   6.037
    7G       N9  206   4.743   6.031   5.875
    7G       C8  207   4.834   6.012   5.778
    7G       H8  208   4.940   6.008   5.800
    7G       N7  209   4.778   6.009   5.665
    7G       C5  210   4.636   6.023   5.683
    7G       C6  211   4.523   6.026   5.599
    7G       O6  212   4.511   6.029   5.482
    7G       N1  213   4.402   6.032   5.668
    7G       H1  214   4.320   6.014   5.612
    7G       C2  215   4.391   6.040   5.803
    7G       N2  216   4.276   6.047   5.851
    7G      H21  217   4.198   6.033   5.788
    7G      H22  218   4.268   6.060   5.951
    7G       N3  219   4.496   6.031   5.882
    7G       C4  220   4.618   6.023   5.817
    7G      C3'  221   4.814   5.868   6.135
    7G      H3'  222   4.811   5.796   6.053
    7G      C2'  223   4.704   5.967   6.116
    7G      H2'  224   4.614   5.923   6.075
    7G      O2'  225   4.663   6.034   6.235
    7G     HO2'  226   4.673   5.969   6.304
    7G      O3'  227   4.799   5.802   6.261
    8G        P  228   4.748   5.650   6.271
    8G      OP1  229   4.759   5.617   6.416
    8G      OP2  230   4.822   5.563   6.170
    8G      O5'  231   4.597   5.655   6.226
    8G      C5'  232   4.497   5.702   6.312
    8G      H5'  233   4.526   5.796   6.359
    8G     H5''  234   4.475   5.633   6.393
    8G      C4'  235   4.370   5.720   6.226
    8G      H4'  236   4.294   5.766   6.289
    8G      O4'  237   4.389   5.807   6.109
    8G      C1'  238   4.308   5.750   6.005
    8G      H1'  239   4.242   5.822   5.956
    8G       N9  240   4.392   5.696   5.898
    8G       C8  241   4.522   5.651   5.900
    8G       H8  242   4.588   5.658   5.985
    8G       N7  243   4.569   5.625   5.782
    8G       C5  244   4.461   5.638   5.698
    8G       C6  245   4.438   5.617   5.556
    8G       O6  246   4.526   5.589   5.476
    8G       N1  247   4.307   5.632   5.514
    8G       H1  248   4.284   5.599   5.421
    8G       C2  249   4.205   5.679   5.591
    8G       N2  250   4.082   5.674   5.543
    8G      H21  251   4.074   5.624   5.455
    8G      H22  252   4.007   5.731   5.578
    8G       N3  253   4.221   5.706   5.716
    8G       C4  254   4.349   5.685   5.770
    8G      C3'  255   4.316   5.587   6.176
    8G      H3'  256   4.393   5.520   6.137
    8G      C2'  257   4.227   5.643   6.069
    8G      H2'  258   4.200   5.559   6.005
    8G      O2'  259   4.109   5.710   6.119
    8G     HO2'  260   4.051   5.712   6.042
    8G      O3'  261   4.228   5.525   6.268
    9G        P  262   4.195   5.378   6.280
    9G      OP1  263   4.090   5.382   6.384
    9G      OP2  264   4.317   5.296   6.307
    9G      O5'  265   4.141   5.332   6.133
    9G      C5'  266   4.009   5.331   6.104
    9G      H5'  267   3.969   5.430   6.124
    9G     H5''  268   3.956   5.256   6.164
    9G      C4'  269   3.980   5.312   5.956
    9G      H4'  270   3.873   5.327   5.949
    9G      O4'  271   4.046   5.405   5.870
    9G      C1'  272   4.075   5.337   5.754
    9G      H1'  273   4.039   5.402   5.674
    9G       N9  274   4.221   5.314   5.739
    9G       C8  275   4.315   5.315   5.834
    9G       H8  276   4.294   5.312   5.940
    9G       N7  277   4.431   5.294   5.784
    9G       C5  278   4.419   5.280   5.647
    9G       C6  279   4.510   5.250   5.536
    9G       O6  280   4.628   5.233   5.542
    9G       N1  281   4.449   5.244   5.409
    9G       H1  282   4.508   5.206   5.337
    9G       C2  283   4.311   5.238   5.406
    9G       N2  284   4.269   5.199   5.291
    9G      H21  285   4.307   5.227   5.202
    9G      H22  286   4.170   5.177   5.294
    9G       N3  287   4.224   5.259   5.506
    9G       C4  288   4.284   5.285   5.621
    9G      C3'  289   4.017   5.176   5.906
    9G      H3'  290   4.119   5.149   5.934
    9G      C2'  291   4.002   5.207   5.756
    9G      H2'  292   4.051   5.129   5.699
    9G      O2'  293   3.866   5.215   5.704
    9G     HO2'  294   3.803   5.172   5.761
    9G      O3'  295   3.923   5.079   5.950
   10U        P  296   3.983   4.925   5.976
   10U      OP1  297   3.866   4.841   6.016
   10U      OP2  298   4.091   4.949   6.072
   10U      O5'  299   4.044   4.874   5.835
   10U      C5'  300   3.962   4.841   5.720
   10U      H5'  301   3.895   4.925   5.699
   10U     H5''  302   3.903   4.751   5.738
   10U      C4'  303   4.030   4.826   5.579
   10U      H4'  304   3.961   4.827   5.495
   10U      O4'  305   4.110   4.938   5.547
   10U      C1'  306   4.242   4.890   5.505
   10U      H1'  307   4.268   4.939   5.412
   10U       N1  308   4.354   4.930   5.606
   10U       C6  309   4.333   4.958   5.742
   10U       H6  310   4.233   4.968   5.779
   10U       C5  311   4.440   4.967   5.829
   10U       H5  312   4.425   4.980   5.935
   10U       C4  313   4.570   4.960   5.777
   10U       O4  314   4.667   4.982   5.852
   10U       N3  315   4.583   4.958   5.635
   10U       H3  316   4.673   4.988   5.599
   10U       C2  317   4.482   4.939   5.556
   10U       O2  318   4.499   4.912   5.436
   10U      C3'  319   4.112   4.700   5.580
   10U      H3'  320   4.150   4.681   5.681
   10U      C2'  321   4.234   4.738   5.481
   10U      H2'  322   4.327   4.689   5.508
   10U      O2'  323   4.198   4.730   5.342
   10U     HO2'  324   4.204   4.637   5.317
   10U      O3'  325   4.048   4.585   5.525
   11U        P  326   4.122   4.446   5.543
   11U      OP1  327   4.029   4.337   5.570
   11U      OP2  328   4.239   4.461   5.632
   11U      O5'  329   4.182   4.425   5.403
   11U      C5'  330   4.104   4.371   5.290
   11U      H5'  331   4.002   4.409   5.285
   11U     H5''  332   4.104   4.262   5.297
   11U      C4'  333   4.181   4.407   5.160
   11U      H4'  334   4.106   4.406   5.081
   11U      O4'  335   4.232   4.534   5.169
   11U      C1'  336   4.337   4.559   5.077
   11U      H1'  337   4.311   4.630   4.999
   11U       N1  338   4.456   4.614   5.154
   11U       C6  339   4.479   4.592   5.288
   11U       H6  340   4.402   4.543   5.346
   11U       C5  341   4.581   4.646   5.358
   11U       H5  342   4.604   4.634   5.463
   11U       C4  343   4.684   4.718   5.285
   11U       O4  344   4.790   4.762   5.338
   11U       N3  345   4.659   4.736   5.153
   11U       H3  346   4.737   4.777   5.104
   11U       C2  347   4.552   4.687   5.085
   11U       O2  348   4.537   4.709   4.963
   11U      C3'  349   4.307   4.326   5.124
   11U      H3'  350   4.368   4.319   5.214
   11U      C2'  351   4.372   4.421   5.018
   11U      H2'  352   4.480   4.404   5.015
   11U      O2'  353   4.310   4.405   4.894
   11U     HO2'  354   4.372   4.362   4.835
   11U      O3'  355   4.276   4.195   5.076
   12A        P  356   4.390   4.076   5.041
   12A      OP1  357   4.318   3.952   5.019
   12A      OP2  358   4.493   4.073   5.146
   12A      O5'  359   4.457   4.129   4.910
   12A      C5'  360   4.389   4.108   4.787
   12A      H5'  361   4.283   4.133   4.788
   12A     H5''  362   4.396   4.001   4.769
   12A      C4'  363   4.459   4.188   4.670
   12A      H4'  364   4.380   4.200   4.595
   12A      O4'  365   4.502   4.311   4.723
   12A      C1'  366   4.632   4.351   4.670
   12A      H1'  367   4.621   4.446   4.619
   12A       N9  368   4.736   4.359   4.777
   12A       C8  369   4.767   4.271   4.876
   12A       H8  370   4.734   4.168   4.885
   12A       N7  371   4.842   4.328   4.973
   12A       C5  372   4.851   4.456   4.929
   12A       C6  373   4.902   4.574   4.990
   12A       N6  374   4.939   4.575   5.122
   12A      H61  375   4.993   4.650   5.163
   12A      H62  376   4.917   4.497   5.182
   12A       N1  377   4.905   4.690   4.927
   12A       C2  378   4.854   4.693   4.798
   12A       H2  379   4.850   4.790   4.749
   12A       N3  380   4.799   4.595   4.735
   12A       C4  381   4.799   4.476   4.808
   12A      C3'  382   4.583   4.120   4.621
   12A      H3'  383   4.637   4.075   4.704
   12A      C2'  384   4.660   4.241   4.564
   12A      H2'  385   4.768   4.234   4.558
   12A      O2'  386   4.615   4.273   4.433
   12A     HO2'  387   4.686   4.264   4.369
   12A      O3'  388   4.559   4.020   4.523
   13G        P  389   4.661   3.903   4.503
   13G      OP1  390   4.603   3.802   4.420
   13G      OP2  391   4.710   3.865   4.637
   13G      O5'  392   4.783   3.961   4.416
   13G      C5'  393   4.774   3.988   4.273
   13G      H5'  394   4.683   4.047   4.258
   13G     H5''  395   4.762   3.908   4.200
   13G      C4'  396   4.881   4.082   4.227
   13G      H4'  397   4.865   4.098   4.120
   13G      O4'  398   4.881   4.208   4.297
   13G      C1'  399   5.013   4.240   4.324
   13G      H1'  400   5.029   4.333   4.270
   13G       N9  401   5.023   4.261   4.467
   13G       C8  402   5.019   4.168   4.566
   13G       H8  403   4.990   4.066   4.544
   13G       N7  404   5.042   4.216   4.688
   13G       C5  405   5.076   4.347   4.660
   13G       C6  406   5.123   4.454   4.746
   13G       O6  407   5.149   4.444   4.866
   13G       N1  408   5.137   4.576   4.684
   13G       H1  409   5.188   4.640   4.744
   13G       C2  410   5.125   4.591   4.552
   13G       N2  411   5.139   4.715   4.499
   13G      H21  412   5.161   4.793   4.560
   13G      H22  413   5.136   4.732   4.399
   13G       N3  414   5.081   4.493   4.466
   13G       C4  415   5.054   4.378   4.528
   13G      C3'  416   5.014   4.017   4.259
   13G      H3'  417   5.008   3.959   4.351
   13G      C2'  418   5.108   4.135   4.276
   13G      H2'  419   5.188   4.112   4.346
   13G      O2'  420   5.178   4.175   4.157
   13G     HO2'  421   5.209   4.099   4.107
   13G      O3'  422   5.046   3.934   4.145
   14G        P  423   5.178   3.839   4.150
   14G      OP1  424   5.161   3.730   4.050
   14G      OP2  425   5.209   3.813   4.295
   14G      O5'  426   5.297   3.934   4.094
   14G      C5'  427   5.312   3.970   3.956
   14G      H5'  428   5.227   4.034   3.932
   14G     H5''  429   5.317   3.886   3.887
   14G      C4'  430   5.450   4.048   3.940
   14G      H4'  431   5.469   4.069   3.835
   14G      O4'  432   5.442   4.174   4.010
   14G      C1'  433   5.548   4.183   4.099
   14G      H1'  434   5.596   4.278   4.079
   14G       N9  435   5.509   4.172   4.242
   14G       C8  436   5.482   4.060   4.314
   14G       H8  437   5.498   3.958   4.283
   14G       N7  438   5.448   4.082   4.441
   14G       C5  439   5.438   4.223   4.446
   14G       C6  440   5.398   4.316   4.554
   14G       O6  441   5.376   4.295   4.673
   14G       N1  442   5.418   4.446   4.517
   14G       H1  443   5.406   4.519   4.586
   14G       C2  444   5.456   4.484   4.397
   14G       N2  445   5.475   4.614   4.383
   14G      H21  446   5.428   4.674   4.449
   14G      H22  447   5.492   4.639   4.287
   14G       N3  448   5.497   4.409   4.299
   14G       C4  449   5.484   4.277   4.328
   14G      C3'  450   5.574   3.972   3.991
   14G      H3'  451   5.541   3.894   4.060
   14G      C2'  452   5.651   4.085   4.057
   14G      H2'  453   5.709   4.035   4.135
   14G      O2'  454   5.743   4.148   3.974
   14G     HO2'  455   5.786   4.217   4.026
   14G      O3'  456   5.639   3.911   3.881
   15G        P  457   5.699   3.763   3.900
   15G      OP1  458   5.753   3.733   3.767
   15G      OP2  459   5.604   3.673   3.957
   15G      O5'  460   5.821   3.788   4.000
   15G      C5'  461   5.934   3.865   3.960
   15G      H5'  462   5.917   3.955   3.901
   15G     H5''  463   6.003   3.800   3.907
   15G      C4'  464   6.018   3.917   4.083
   15G      H4'  465   6.104   3.976   4.050
   15G      O4'  466   5.938   3.984   4.178
   15G      C1'  467   5.967   3.920   4.303
   15G      H1'  468   6.062   3.954   4.342
   15G       N9  469   5.852   3.933   4.396
   15G       C8  470   5.783   3.830   4.461
   15G       H8  471   5.781   3.727   4.431
   15G       N7  472   5.712   3.866   4.561
   15G       C5  473   5.734   4.009   4.563
   15G       C6  474   5.698   4.109   4.660
   15G       O6  475   5.631   4.092   4.762
   15G       N1  476   5.727   4.237   4.629
   15G       H1  477   5.717   4.305   4.703
   15G       C2  478   5.807   4.265   4.521
   15G       N2  479   5.823   4.390   4.493
   15G      H21  480   5.780   4.453   4.560
   15G      H22  481   5.883   4.428   4.421
   15G       N3  482   5.858   4.175   4.443
   15G       C4  483   5.815   4.048   4.463
   15G      C3'  484   6.091   3.805   4.154
   15G      H3'  485   6.104   3.719   4.088
   15G      C2'  486   5.991   3.774   4.261
   15G      H2'  487   5.897   3.734   4.223
   15G      O2'  488   6.044   3.685   4.364
   15G     HO2'  489   5.986   3.608   4.370
   15G      O3'  490   6.215   3.851   4.206
   16U        P  491   6.344   3.849   4.110
   16U      OP1  492   6.432   3.958   4.170
   16U      OP2  493   6.293   3.863   3.971
   16U      O5'  494   6.425   3.709   4.123
   16U      C5'  495   6.526   3.687   4.215
   16U      H5'  496   6.584   3.779   4.221
   16U     H5''  497   6.589   3.609   4.171
   16U      C4'  498   6.486   3.641   4.355
   16U      H4'  499   6.563   3.581   4.404
   16U      O4'  500   6.448   3.748   4.446
   16U      C1'  501   6.380   3.694   4.559
   16U      H1'  502   6.453   3.671   4.636
   16U       N1  503   6.269   3.780   4.611
   16U       C6  504   6.224   3.900   4.553
   16U       H6  505   6.260   3.928   4.455
   16U       C5  506   6.122   3.968   4.604
   16U       H5  507   6.085   4.055   4.553
   16U       C4  508   6.057   3.932   4.728
   16U       O4  509   5.964   3.995   4.786
   16U       N3  510   6.101   3.815   4.782
   16U       H3  511   6.048   3.775   4.857
   16U       C2  512   6.218   3.746   4.734
   16U       O2  513   6.265   3.661   4.812
   16U      C3'  514   6.360   3.554   4.354
   16U      H3'  515   6.279   3.594   4.294
   16U      C2'  516   6.331   3.559   4.506
   16U      H2'  517   6.223   3.569   4.510
   16U      O2'  518   6.387   3.461   4.591
   16U     HO2'  519   6.358   3.373   4.565
   16U      O3'  520   6.383   3.419   4.299
   17U        P  521   6.263   3.310   4.282
   17U      OP1  522   6.293   3.207   4.183
   17U      OP2  523   6.140   3.389   4.265
   17U      O5'  524   6.266   3.239   4.433
   17U      C5'  525   6.361   3.141   4.464
   17U      H5'  526   6.461   3.185   4.463
   17U     H5''  527   6.364   3.062   4.389
   17U      C4'  528   6.333   3.084   4.604
   17U      H4'  529   6.410   3.009   4.619
   17U      O4'  530   6.335   3.177   4.704
   17U      C1'  531   6.237   3.157   4.803
   17U      H1'  532   6.293   3.157   4.897
   17U       N1  533   6.139   3.267   4.825
   17U       C6  534   6.113   3.365   4.726
   17U       H6  535   6.153   3.343   4.628
   17U       C5  536   6.048   3.475   4.748
   17U       H5  537   6.045   3.554   4.675
   17U       C4  538   5.999   3.502   4.883
   17U       O4  539   5.941   3.601   4.919
   17U       N3  540   6.017   3.400   4.973
   17U       H3  541   5.980   3.412   5.066
   17U       C2  542   6.094   3.289   4.953
   17U       O2  543   6.132   3.215   5.045
   17U      C3'  544   6.191   3.012   4.610
   17U      H3'  545   6.120   3.072   4.554
   17U      C2'  546   6.165   3.029   4.759
   17U      H2'  547   6.058   3.021   4.779
   17U      O2'  548   6.229   2.931   4.835
   17U     HO2'  549   6.179   2.908   4.913
   17U      O3'  550   6.204   2.876   4.563
   18A        P  551   6.097   2.823   4.461
   18A      OP1  552   6.121   2.678   4.427
   18A      OP2  553   6.098   2.917   4.348
   18A      O5'  554   5.959   2.829   4.548
   18A      C5'  555   5.942   2.739   4.663
   18A      H5'  556   6.036   2.734   4.718
   18A     H5''  557   5.923   2.636   4.633
   18A      C4'  558   5.829   2.785   4.755
   18A      H4'  559   5.833   2.720   4.842
   18A      O4'  560   5.851   2.918   4.800
   18A      C1'  561   5.727   2.981   4.811
   18A      H1'  562   5.704   3.019   4.911
   18A       N9  563   5.727   3.100   4.719
   18A       C8  564   5.787   3.118   4.593
   18A       H8  565   5.835   3.042   4.533
   18A       N7  566   5.800   3.238   4.555
   18A       C5  567   5.739   3.305   4.655
   18A       C6  568   5.723   3.444   4.685
   18A       N6  569   5.766   3.547   4.608
   18A      H61  570   5.753   3.644   4.634
   18A      H62  571   5.799   3.536   4.513
   18A       N1  572   5.646   3.483   4.790
   18A       C2  573   5.606   3.389   4.876
   18A       H2  574   5.552   3.436   4.957
   18A       N3  575   5.624   3.261   4.869
   18A       C4  576   5.684   3.225   4.753
   18A      C3'  577   5.686   2.787   4.691
   18A      H3'  578   5.698   2.824   4.589
   18A      C2'  579   5.616   2.885   4.779
   18A      H2'  580   5.533   2.928   4.721
   18A      O2'  581   5.567   2.815   4.894
   18A     HO2'  582   5.574   2.724   4.863
   18A      O3'  583   5.626   2.660   4.693
   19G        P  584   5.526   2.616   4.582
   19G      OP1  585   5.482   2.475   4.616
   19G      OP2  586   5.579   2.629   4.443
   19G      O5'  587   5.408   2.711   4.614
   19G      C5'  588   5.312   2.690   4.711
   19G      H5'  589   5.346   2.669   4.812
   19G     H5''  590   5.265   2.602   4.666
   19G      C4'  591   5.212   2.806   4.703
   19G      H4'  592   5.146   2.798   4.790
   19G      O4'  593   5.268   2.934   4.729
   19G      C1'  594   5.200   3.032   4.656
   19G      H1'  595   5.161   3.114   4.716
   19G       N9  596   5.295   3.087   4.552
   19G       C8  597   5.389   3.023   4.477
   19G       H8  598   5.391   2.916   4.469
   19G       N7  599   5.470   3.099   4.413
   19G       C5  600   5.434   3.228   4.454
   19G       C6  601   5.484   3.350   4.414
   19G       O6  602   5.579   3.389   4.350
   19G       N1  603   5.418   3.454   4.468
   19G       H1  604   5.464   3.543   4.455
   19G       C2  605   5.318   3.440   4.561
   19G       N2  606   5.266   3.550   4.613
   19G      H21  607   5.306   3.638   4.587
   19G      H22  608   5.192   3.540   4.681
   19G       N3  609   5.260   3.322   4.596
   19G       C4  610   5.328   3.220   4.538
   19G      C3'  611   5.131   2.814   4.577
   19G      H3'  612   5.185   2.797   4.484
   19G      C2'  613   5.083   2.962   4.591
   19G      H2'  614   5.058   3.007   4.496
   19G      O2'  615   4.979   2.971   4.682
   19G     HO2'  616   4.900   2.940   4.637
   19G      O3'  617   5.025   2.719   4.578
   20G        P  618   4.930   2.696   4.456
   20G      OP1  619   4.840   2.584   4.502
   20G      OP2  620   5.021   2.680   4.340
   20G      O5'  621   4.843   2.833   4.440
   20G      C5'  622   4.714   2.855   4.482
   20G      H5'  623   4.726   2.876   4.589
   20G     H5''  624   4.646   2.772   4.464
   20G      C4'  625   4.659   2.983   4.414
   20G      H4'  626   4.559   3.007   4.450
   20G      O4'  627   4.749   3.090   4.457
   20G      C1'  628   4.766   3.180   4.345
   20G      H1'  629   4.732   3.279   4.375
   20G       N9  630   4.911   3.200   4.310
   20G       C8  631   5.001   3.109   4.246
   20G       H8  632   4.976   3.004   4.242
   20G       N7  633   5.117   3.157   4.215
   20G       C5  634   5.106   3.290   4.256
   20G       C6  635   5.194   3.411   4.238
   20G       O6  636   5.308   3.426   4.195
   20G       N1  637   5.138   3.525   4.271
   20G       H1  638   5.175   3.609   4.229
   20G       C2  639   5.023   3.535   4.341
   20G       N2  640   4.975   3.653   4.368
   20G      H21  641   5.030   3.733   4.340
   20G      H22  642   4.874   3.659   4.375
   20G       N3  643   4.940   3.439   4.367
   20G       C4  644   4.979   3.320   4.312
   20G      C3'  645   4.667   2.973   4.266
   20G      H3'  646   4.760   2.928   4.230
   20G      C2'  647   4.675   3.126   4.231
   20G      H2'  648   4.721   3.138   4.133
   20G      O2'  649   4.563   3.201   4.236
   20G     HO2'  650   4.503   3.149   4.182
   20G      O3'  651   4.541   2.905   4.228
   21G3       P  652   4.506   2.883   4.074
   21G3     OP1  653   4.391   2.789   4.069
   21G3     OP2  654   4.630   2.850   3.998
   21G3     O5'  655   4.461   3.024   4.029
   21G3     C5'  656   4.327   3.067   4.031
   21G3     H5'  657   4.284   3.068   4.131
   21G3    H5''  658   4.269   2.986   3.987
   21G3     C4'  659   4.314   3.198   3.952
   21G3     H4'  660   4.211   3.235   3.955
   21G3     O4'  661   4.400   3.304   3.985
   21G3     C1'  662   4.460   3.359   3.871
   21G3     H1'  663   4.455   3.468   3.870
   21G3      N9  664   4.602   3.327   3.885
   21G3      C8  665   4.663   3.208   3.885
   21G3      H8  666   4.612   3.114   3.873
   21G3      N7  667   4.786   3.207   3.910
   21G3      C5  668   4.818   3.346   3.918
   21G3      C6  669   4.943   3.407   3.938
   21G3      O6  670   5.059   3.364   3.948
   21G3      N1  671   4.928   3.542   3.960
   21G3      H1  672   5.012   3.592   3.987
   21G3      C2  673   4.812   3.608   3.960
   21G3      N2  674   4.818   3.738   3.996
   21G3     H21  675   4.907   3.779   4.020
   21G3     H22  676   4.734   3.794   3.996
   21G3      N3  677   4.682   3.555   3.933
   21G3      C4  678   4.699   3.421   3.911
   21G3     C3'  679   4.343   3.169   3.801
   21G3     H3'  680   4.429   3.101   3.797
   21G3     C2'  681   4.379   3.312   3.756
   21G3     H2'  682   4.432   3.314   3.661
   21G3     O2'  683   4.260   3.398   3.749
   21G3    HO2'  684   4.190   3.341   3.716
   21G3     O3'  685   4.219   3.137   3.741
   21G3    HO3'  686   4.199   3.043   3.741
   22Cl-    Cl-  687   9.655   3.397   2.454
   23Cl-    Cl-  688   4.752   2.008   5.597
   24Cl-    Cl-  689   6.738   7.343   8.574
   25Cl-    Cl-  690   3.459   9.348   6.533
   26Cl-    Cl-  691   5.239   5.329   1.527
   27Cl-    Cl-  692   9.685   0.186   5.438
   28Cl-    Cl-  693   9.381   0.796   5.034
   29Cl-    Cl-  694   9.373   0.273   8.304
   30Cl-    Cl-  695   9.818   1.709   5.080
   31Cl-    Cl-  696   0.198   5.422   9.345
   32Cl-    Cl-  697   6.432   6.517   7.143
   33Cl-    Cl-  698   7.522   3.664   2.675
   34Cl-    Cl-  699   2.951   9.562   8.772
   35Cl-    Cl-  700   7.851   7.223   6.291
   36Cl-    Cl-  701   2.591   3.412   0.101
   37Cl-    Cl-  702   9.370   1.423   2.161
   38Cl-    Cl-  703   5.476   0.155   3.486
   39Cl-    Cl-  704   3.241   5.049   5.203
   40Cl-    Cl-  705   8.520   1.245   3.985
   41Cl-    Cl-  706   0.068   2.643   8.963
   42Cl-    Cl-  707   7.085   8.478   5.743
   43Cl-    Cl-  708   7.726   1.506   3.639
   44Cl-    Cl-  709   6.057   5.566   1.404
   45Cl-    Cl-  710   2.190   6.936   7.149
   46Cl-    Cl-  711   7.546   2.219   0.864
   47Cl-    Cl-  712   7.383   9.708   0.701
   48Cl-    Cl-  713   7.754   3.982   9.632
   49Cl-    Cl-  714   6.035   3.706   7.272
   50Cl-    Cl-  715   0.348   4.506   8.022
   51Cl-    Cl-  716   6.945   9.760   1.660
   52Cl-    Cl-  717   5.832   8.734   8.611
   53Cl-    Cl-  718   5.951   0.724   5.719
   54Cl-    Cl-  719   6.283   1.170   9.587
   55Cl-    Cl-  720   5.108   4.740   1.167
   56Cl-    Cl-  721   6.730   7.558   7.306
   57Cl-    Cl-  722   2.401   3.050   3.564
   58Cl-    Cl-  723   9.610   9.843   0.437
   59Cl-    Cl-  724   4.173   2.046   8.231
   60Cl-    Cl-  725   6.773   8.601   2.611
   61Cl-    Cl-  726   0.494   1.271   1.871
   62Cl-    Cl-  727   3.901   8.081   2.513
   63Cl-    Cl-  728   7.425   0.377   9.451
   64Cl-    Cl-  729   5.247   7.157   2.473
   65Cl-    Cl-  730   3.214   2.237   6.662
   66Cl-    Cl-  731   7.008   3.960   4.156
   67Cl-    Cl-  732   9.070   4.877   7.639
   68Cl-    Cl-  733   8.565   8.859   4.204
   69Cl-    Cl-  734   5.484   7.821   4.120
   70Cl-    Cl-  735   9.130   2.113   1.901
   71Cl-    Cl-  736   9.205   0.458   6.689
   72Cl-    Cl-  737   3.709   0.250   9.554
   73Cl-    Cl-  738   7.976   3.595   5.761
   74Cl-    Cl-  739   9.600   9.556   7.991
   75Cl-    Cl-  740   0.839   5.756   2.685
   76Cl-    Cl-  741   1.199   4.213   2.803
   77Cl-    Cl-  742   1.430   3.979   7.001
   78Cl-    Cl-  743   4.399   2.852   2.318
   79Cl-    Cl-  744   1.928   3.476   3.687
   80Cl-    Cl-  745   9.654   6.301   1.884
   81Cl-    Cl-  746   7.603   9.499   4.689
   82Cl-    Cl-  747   2.339   2.080   8.917
   83Cl-    Cl-  748   4.609   3.825   3.035
   84Cl-    Cl-  749   2.547   9.329   1.578
   85Cl-    Cl-  750   9.632   0.164   3.842
   86Cl-    Cl-  751   4.177   1.086   4.122
   87Cl-    Cl-  752   7.775   3.261   6.671
   88Cl-    Cl-  753   6.216   9.567   0.807
   89Cl-    Cl-  754   2.038   4.057   6.819
   90Cl-    Cl-  755   2.551   3.082   5.990
   91Cl-    Cl-  756   4.363   3.501   8.330
   92Cl-    Cl-  757   8.690   5.612   6.234
   93Cl-    Cl-  758   5.524   0.479   7.540
   94Cl-    Cl-  759   5.241   5.686   8.115
   95Cl-    Cl-  760   2.065   5.354   0.093
   96Cl-    Cl-  761   6.119   2.128   2.750
   97Cl-    Cl-  762   4.739   8.510   2.133
   98Cl-    Cl-  763   1.826   8.254   3.045
   99Cl-    Cl-  764   8.505   4.538   1.464
  100Cl-    Cl-  765   1.358   4.220   9.552
  101Cl-    Cl-  766   3.137   5.807   8.768
  102Cl-    Cl-  767   8.193   0.916   3.389
  103Cl-    Cl-  768   3.229   5.388   4.307
  104Cl-    Cl-  769   8.355   0.336   0.355
  105Cl-    Cl-  770   8.973   6.513   9.309
  106Cl-    Cl-  771   0.865   5.479   8.535
  107K+      K+  772   5.247   5.220   1.235
  108K+      K+  773   0.402   3.401   8.344
  109K+      K+  774   5.794   4.014   4.987
  110K+      K+  775   8.750   0.768   8.362
  111K+      K+  776   4.465   9.218   7.263
  112K+      K+  777   9.473   0.243   4.988
  113K+      K+  778   7.784   3.882   3.066
  114K+      K+  779   6.354   5.744   3.262
  115K+      K+  780   5.445   3.922   4.673
  116K+      K+  781   0.371   3.789   3.236
  117K+      K+  782   6.435   9.322   0.455
  118K+      K+  783   4.208   3.805   6.872
  119K+      K+  784   6.363   2.425   3.924
  120K+      K+  785   7.027   6.899   7.278
  121K+      K+  786   5.172   0.933   6.932
  122K+      K+  787   4.145   4.311   2.643
  123K+      K+  788   0.966   2.018   3.168
  124K+      K+  789   8.291   0.195   0.082
  125K+      K+  790   1.809   4.648   1.072
  126K+      K+  791   6.563   0.433   3.369
  127K+      K+  792   5.050   2.352   0.472
  128K+      K+  793   0.697   4.444   8.345
  129K+      K+  794   2.580   4.566   9.878
  130K+      K+  795   4.335   9.506   9.869
  131K+      K+  796   1.066   5.430   8.045
  132K+      K+  797   5.966   1.368   8.446
  133K+      K+  798   6.474   0.491   3.805
  134K+      K+  799   7.669   1.722   4.426
  135K+      K+  800   4.127   3.810   4.966
  136K+      K+  801   2.023   3.642   1.795
  137K+      K+  802   2.088   0.668   4.120
  138K+      K+  803   4.848   6.083   1.321
  139K+      K+  804   9.120   1.104   0.468
  140K+      K+  805   8.899   0.844   3.280
  141K+      K+  806   9.816   5.932   5.191
  142K+      K+  807   2.125   4.975   4.183
  143K+      K+  808   0.636   5.275   8.667
  144K+      K+  809   4.258   9.610   6.032
  145K+      K+  810   5.083   4.167   4.965
  146K+      K+  811   4.959   5.675   5.354
  147K+      K+  812   4.849   7.106   5.556
  148K+      K+  813   0.156   2.880   4.082
  149K+      K+  814   3.616   4.572   6.066
  150K+      K+  815   9.521   0.661   0.377
  151K+      K+  816   4.782   0.081   3.351
  152K+      K+  817   4.491   4.866   6.240
  153K+      K+  818   3.215   7.458   4.874
  154K+      K+  819   9.414   1.967   1.744
  155K+      K+  820   7.513   6.050   7.135
  156K+      K+  821   5.268   8.069   6.736
  157K+      K+  822   4.645   5.543   1.702
  158K+      K+  823   7.289   0.677   8.416
  159K+      K+  824   3.752   7.031   5.667
  160K+      K+  825   4.194   3.408   2.225
  161K+      K+  826   6.668   8.491   3.681
  162K+      K+  827   5.095   1.855   9.833
  163K+      K+  828   1.360   2.315   0.200
  164K+      K+  829   0.452   7.196   9.752
  165K+      K+  830   1.642   1.089   1.396
  166K+      K+  831   5.311   3.283   3.940
  167K+      K+  832   8.093   1.593   3.031
  168K+      K+  833   5.519   5.976   5.087
  169K+      K+  834   8.027   9.805   7.886
  170K+      K+  835   7.727   1.219   7.338
  171K+      K+  836   8.289   8.212   0.227
  172K+      K+  837   7.887   4.339   8.991
  173K+      K+  838   8.808   4.227   0.266
  174K+      K+  839   4.794   6.088   5.386
  175K+      K+  840   3.705   5.013   7.110
  176K+      K+  841   7.327   6.950   5.417
  177K+      K+  842   7.256   9.750   6.704
  178K+      K+  843   7.813   9.174   4.322
  179K+      K+  844   5.241   2.352   4.632
  180K+      K+  845   2.670   1.155   5.463
  181K+      K+  846   9.095   3.664   6.525
  182K+      K+  847   5.223   7.648   0.136
  183K+      K+  848   9.021   5.744   2.155
  184K+      K+  849   9.315   3.491   6.196
  185K+      K+  850   2.305   8.906   8.808
  186K+      K+  851   8.622   4.189   1.116
  187K+      K+  852   6.710   2.878   7.286
  188K+      K+  853   2.911   4.203   5.596
  189K+      K+  854   8.695   4.531   3.861
  190K+      K+  855   9.081   9.139   2.466
  191K+      K+  856   4.704   2.453   7.868
  192K+      K+  857   8.279   9.576   6.818
  193K+      K+  858   3.570   0.664   8.677
  194K+      K+  859   3.119   5.535   9.675
  195K+      K+  860   1.794   4.113   6.230
  196K+      K+  861   1.965   5.308   2.161
  197K+      K+  862   4.431   7.113   5.393
  198K+      K+  863   5.427   2.096   2.685
  199K+      K+  864   8.371   4.826   1.456
  200K+      K+  865   0.270   9.765   2.249
  201K+      K+  866   5.760   3.263   4.215
  202K+      K+  867   6.087   5.399   1.689
  203K+      K+  868   6.581   7.403   6.054
  204K+      K+  869   3.537   8.732   1.692
  205K+      K+  870   5.691   3.760   9.403
  206K+      K+  871   2.415   2.783   6.485
  207K+      K+  872   4.770   5.480   5.685
  208K+      K+  873   2.006   6.845   1.184
  209K+      K+  874   0.932   2.328   2.821
  210K+      K+  875   3.227   3.458   9.170
  211K+      K+  876   0.228   5.899   2.234
  212WAT      O  877   0.428   7.753   6.954
  212WAT     H1  878   0.503   7.818   6.946
  212WAT     H2  879   0.430   7.690   6.876
  213WAT      O  880   1.701   3.439   5.987
  213WAT     H1  881   1.733   3.511   6.049
  213WAT     H2  882   1.615   3.401   6.023
  214WAT      O  883   3.071   1.573   6.148
  214WAT     H1  884   3.083   1.481   6.186
  214WAT     H2  885   3.026   1.631   6.216
  215WAT      O  886   8.808   8.134   3.006
  215WAT     H1  887   8.713   8.105   2.994
  215WAT     H2  888   8.859   8.063   3.054
  216WAT      O  889   0.357   9.765   4.975
  216WAT     H1  890   0.420   9.836   4.944
  216WAT     H2  891   0.368   9.683   4.918
  217WAT      O  892   5.985   9.101   8.520
  217WAT     H1  893   5.998   9.015   8.470
  217WAT     H2  894   5.946   9.082   8.610
  218WAT      O  895   0.353   1.599   3.631
  218WAT     H1  896   0.431   1.627   3.687
  218WAT     H2  897   0.301   1.529   3.679
  219WAT      O  898   4.689   6.683   6.439
  219WAT     H1  899   4.680   6.761   6.501
  219WAT     H2  900   4.598   6.650   6.413
  220WAT      O  901   3.048   8.768   1.782
  220WAT     H1  902   3.056   8.733   1.876
  220WAT     H2  903   3.031   8.866   1.784
  221WAT      O  904   9.120   3.485   2.184
  221WAT     H1  905   9.178   3.452   2.259
  221WAT     H2  906   9.135   3.583   2.170
  222WAT      O  907   2.765   6.284   5.905
  222WAT     H1  908   2.739   6.191   5.929
  222WAT     H2  909   2.801   6.331   5.985
  223WAT      O  910   9.402   8.996   9.666
  223WAT     H1  911   9.351   9.073   9.628
  223WAT     H2  912   9.349   8.954   9.740
  224WAT      O  913   0.799   3.389   7.058
  224WAT     H1  914   0.893   3.370   7.084
  224WAT     H2  915   0.793   3.401   6.959
  225WAT      O  916   2.837   5.657   2.376
  225WAT     H1  917   2.917   5.716   2.365
  225WAT     H2  918   2.785   5.685   2.457
  226WAT      O  919   0.736   1.949   8.906
  226WAT     H1  920   0.691   2.031   8.941
  226WAT     H2  921   0.716   1.940   8.808
  227WAT      O  922   3.145   2.775   2.654
  227WAT     H1  923   3.204   2.850   2.682
  227WAT     H2  924   3.192   2.688   2.671
  228WAT      O  925   3.677   4.015   6.376
  228WAT     H1  926   3.640   3.976   6.292
  228WAT     H2  927   3.674   3.947   6.449
  229WAT      O  928   9.455   0.339   3.614
  229WAT     H1  929   9.514   0.271   3.659
  229WAT     H2  930   9.477   0.430   3.649
  230WAT      O  931   8.754   8.027   7.792
  230WAT     H1  932   8.720   8.026   7.697
  230WAT     H2  933   8.848   7.996   7.794
  231WAT      O  934   8.520   4.435   5.713
  231WAT     H1  935   8.602   4.491   5.713
  231WAT     H2  936   8.468   4.451   5.798
  232WAT      O  937   9.864   7.979   7.035
  232WAT     H1  938   9.853   8.040   7.114
  232WAT     H2  939   9.961   7.968   7.014
  233WAT      O  940   5.165   2.445   9.576
  233WAT     H1  941   5.193   2.360   9.620
  233WAT     H2  942   5.109   2.499   9.639
  234WAT      O  943   5.451   3.763   0.221
  234WAT     H1  944   5.373   3.826   0.223
  234WAT     H2  945   5.452   3.709   0.306
  235WAT      O  946   0.518   5.113   8.057
  235WAT     H1  947   0.586   5.140   7.989
  235WAT     H2  948   0.454   5.048   8.017
  236WAT      O  949   5.550   5.378   9.770
  236WAT     H1  950   5.491   5.332   9.704
  236WAT     H2  951   5.601   5.451   9.724
  237WAT      O  952   7.997   1.050   2.514
  237WAT     H1  953   8.041   0.971   2.472
  237WAT     H2  954   7.901   1.054   2.487
  238WAT      O  955   9.270   5.523   8.369
  238WAT     H1  956   9.328   5.539   8.290
  238WAT     H2  957   9.322   5.478   8.441
  239WAT      O  958   8.836   0.455   8.741
  239WAT     H1  959   8.804   0.446   8.647
  239WAT     H2  960   8.761   0.440   8.804
  240WAT      O  961   4.695   0.634   9.618
  240WAT     H1  962   4.684   0.733   9.618
  240WAT     H2  963   4.740   0.606   9.533
  241WAT      O  964   3.874   9.591   0.619
  241WAT     H1  965   3.931   9.662   0.660
  241WAT     H2  966   3.791   9.633   0.583
  242WAT      O  967   4.772   6.395   4.001
  242WAT     H1  968   4.780   6.296   3.984
  242WAT     H2  969   4.682   6.426   3.971
  243WAT      O  970   2.232   5.581   1.221
  243WAT     H1  971   2.305   5.576   1.289
  243WAT     H2  972   2.271   5.565   1.130
  244WAT      O  973   3.973   8.441   3.682
  244WAT     H1  974   3.906   8.367   3.678
  244WAT     H2  975   4.037   8.432   3.606
  245WAT      O  976   1.181   0.871   9.233
  245WAT     H1  977   1.128   0.938   9.182
  245WAT     H2  978   1.140   0.858   9.324
  246WAT      O  979   7.619   1.034   3.651
  246WAT     H1  980   7.700   1.077   3.612
  246WAT     H2  981   7.555   1.011   3.578
  247WAT      O  982   7.787   6.502   7.975
  247WAT     H1  983   7.836   6.469   8.056
  247WAT     H2  984   7.801   6.600   7.965
  248WAT      O  985   9.564   5.082   2.169
  248WAT     H1  986   9.637   5.015   2.182
  248WAT     H2  987   9.573   5.155   2.237
  249WAT      O  988   2.031   1.314   6.994
  249WAT     H1  989   1.972   1.345   7.069
  249WAT     H2  990   2.018   1.372   6.914
  250WAT      O  991   4.498   8.640   0.222
  250WAT     H1  992   4.535   8.558   0.178
  250WAT     H2  993   4.502   8.628   0.321
  251WAT      O  994   8.454   6.647   2.029
  251WAT     H1  995   8.381   6.686   1.972
  251WAT     H2  996   8.450   6.688   2.120
  252WAT      O  997   4.695   1.334   7.571
  252WAT     H1  998   4.682   1.397   7.648
  252WAT     H2  999   4.660   1.243   7.595
  253WAT      O 1000   3.719   1.329   7.378
  253WAT     H1 1001   3.807   1.372   7.358
  253WAT     H2 1002   3.657   1.344   7.302
  254WAT      O 1003   0.922   8.403   6.351
  254WAT     H1 1004   0.941   8.440   6.441
  254WAT     H2 1005   0.902   8.477   6.287
  255WAT      O 1006   4.797   6.286   8.594
  255WAT     H1 1007   4.774   6.246   8.683
  255WAT     H2 1008   4.728   6.354   8.569
  256WAT      O 1009   8.277   1.546   5.950
  256WAT     H1 1010   8.347   1.483   5.917
  256WAT     H2 1011   8.281   1.551   6.049
  257WAT      O 1012   7.895   6.272   9.710
  257WAT     H1 1013   7.989   6.257   9.679
  257WAT     H2 1014   7.848   6.331   9.645
  258WAT      O 1015   7.516   6.744   5.215
  258WAT     H1 1016   7.447   6.682   5.178
  258WAT     H2 1017   7.595   6.692   5.246
  259WAT      O 1018   5.933   5.335   8.063
  259WAT     H1 1019   6.028   5.352   8.089
  259WAT     H2 1020   5.923   5.348   7.964
  260WAT      O 1021   2.011   4.643   0.113
  260WAT     H1 1022   1.917   4.645   0.148
  260WAT     H2 1023   2.064   4.575   0.163
  261WAT      O 1024   0.882   1.160   3.742
  261WAT     H1 1025   0.906   1.063   3.750
  261WAT     H2 1026   0.962   1.211   3.710
  262WAT      O 1027   1.416   6.042   3.651
  262WAT     H1 1028   1.492   5.988   3.616
  262WAT     H2 1029   1.425   6.051   3.751
  263WAT      O 1030   9.426   7.512   2.256
  263WAT     H1 1031   9.443   7.425   2.302
  263WAT     H2 1032   9.511   7.544   2.215
  264WAT      O 1033   0.257   2.147   5.870
  264WAT     H1 1034   0.320   2.092   5.815
  264WAT     H2 1035   0.216   2.218   5.812
  265WAT      O 1036   5.441   4.650   4.692
  265WAT     H1 1037   5.498   4.715   4.642
  265WAT     H2 1038   5.383   4.699   4.756
  266WAT      O 1039   8.713   7.946   3.468
  266WAT     H1 1040   8.622   7.970   3.434
  266WAT     H2 1041   8.770   8.028   3.473
  267WAT      O 1042   2.282   8.648   0.696
  267WAT     H1 1043   2.184   8.648   0.717
  267WAT     H2 1044   2.300   8.709   0.619
  268WAT      O 1045   0.501   7.493   0.829
  268WAT     H1 1046   0.425   7.430   0.811
  268WAT     H2 1047   0.474   7.586   0.801
  269WAT      O 1048   6.205   7.215   5.435
  269WAT     H1 1049   6.137   7.287   5.423
  269WAT     H2 1050   6.186   7.139   5.373
  270WAT      O 1051   6.396   3.882   2.644
  270WAT     H1 1052   6.471   3.891   2.578
  270WAT     H2 1053   6.430   3.835   2.725
  271WAT      O 1054   1.504   4.894   3.751
  271WAT     H1 1055   1.543   4.985   3.759
  271WAT     H2 1056   1.497   4.852   3.842
  272WAT      O 1057   4.434   4.635   4.670
  272WAT     H1 1058   4.335   4.631   4.660
  272WAT     H2 1059   4.458   4.634   4.768
  273WAT      O 1060   7.094   7.802   7.876
  273WAT     H1 1061   7.060   7.855   7.798
  273WAT     H2 1062   7.084   7.855   7.960
  274WAT      O 1063   1.640   3.327   4.379
  274WAT     H1 1064   1.632   3.377   4.465
  274WAT     H2 1065   1.717   3.363   4.327
  275WAT      O 1066   0.743   2.987   4.530
  275WAT     H1 1067   0.824   3.046   4.522
  275WAT     H2 1068   0.661   3.041   4.512
  276WAT      O 1069   2.430   5.445   9.482
  276WAT     H1 1070   2.467   5.363   9.527
  276WAT     H2 1071   2.502   5.513   9.474
  277WAT      O 1072   7.839   7.113   3.271
  277WAT     H1 1073   7.871   7.199   3.231
  277WAT     H2 1074   7.741   7.120   3.292
  278WAT      O 1075   4.345   2.596   8.429
  278WAT     H1 1076   4.405   2.552   8.362
  278WAT     H2 1077   4.306   2.679   8.389
  279WAT      O 1078   7.230   5.467   8.974
  279WAT     H1 1079   7.313   5.458   9.030
  279WAT     H2 1080   7.185   5.379   8.965
  280WAT      O 1081   8.557   5.021   2.977
  280WAT     H1 1082   8.627   5.045   2.910
  280WAT     H2 1083   8.476   5.078   2.963
  281WAT      O 1084   6.465   7.534   1.430
  281WAT     H1 1085   6.424   7.605   1.373
  281WAT     H2 1086   6.438   7.547   1.525
  282WAT      O 1087   6.126   7.503   3.867
  282WAT     H1 1088   6.137   7.595   3.905
  282WAT     H2 1089   6.134   7.508   3.767
  283WAT      O 1090   1.145   7.076   4.758
  283WAT     H1 1091   1.184   6.984   4.755
  283WAT     H2 1092   1.152   7.118   4.668
  284WAT      O 1093   9.664   9.159   0.762
  284WAT     H1 1094   9.646   9.091   0.834
  284WAT     H2 1095   9.581   9.211   0.744
  285WAT      O 1096   5.521   9.276   3.876
  285WAT     H1 1097   5.619   9.296   3.880
  285WAT     H2 1098   5.469   9.355   3.909
  286WAT      O 1099   8.191   5.646   9.861
  286WAT     H1 1100   8.134   5.597   9.927
  286WAT     H2 1101   8.133   5.706   9.806
  287WAT      O 1102   7.836   9.139   1.941
  287WAT     H1 1103   7.899   9.079   1.989
  287WAT     H2 1104   7.779   9.188   2.007
  288WAT      O 1105   7.968   0.549   2.558
  288WAT     H1 1106   8.016   0.620   2.611
  288WAT     H2 1107   7.959   0.467   2.614
  289WAT      O 1108   3.113   8.057   2.228
  289WAT     H1 1109   3.021   8.088   2.208
  289WAT     H2 1110   3.139   7.985   2.163
  290WAT      O 1111   5.398   3.646   8.894
  290WAT     H1 1112   5.484   3.697   8.895
  290WAT     H2 1113   5.395   3.584   8.973
  291WAT      O 1114   0.115   4.690   5.568
  291WAT     H1 1115   0.077   4.737   5.647
  291WAT     H2 1116   0.181   4.750   5.522
  292WAT      O 1117   3.203   5.759   1.363
  292WAT     H1 1118   3.181   5.846   1.408
  292WAT     H2 1119   3.140   5.744   1.287
  293WAT      O 1120   4.609   4.791   8.923
  293WAT     H1 1121   4.642   4.696   8.919
  293WAT     H2 1122   4.668   4.849   8.866
  294WAT      O 1123   0.947   4.704   9.750
  294WAT     H1 1124   0.922   4.801   9.747
  294WAT     H2 1125   0.903   4.661   9.830
  295WAT      O 1126   8.943   8.624   4.353
  295WAT     H1 1127   8.879   8.623   4.430
  295WAT     H2 1128   9.035   8.640   4.388
  296WAT      O 1129   3.503   2.670   9.127
  296WAT     H1 1130   3.456   2.757   9.145
  296WAT     H2 1131   3.593   2.688   9.089
  297WAT      O 1132   8.855   4.553   0.730
  297WAT     H1 1133   8.796   4.607   0.670
  297WAT     H2 1134   8.950   4.566   0.703
  298WAT      O 1135   5.158   9.029   2.961
  298WAT     H1 1136   5.120   9.022   2.869
  298WAT     H2 1137   5.094   8.989   3.027
  299WAT      O 1138   4.862   8.204   4.563
  299WAT     H1 1139   4.901   8.295   4.546
  299WAT     H2 1140   4.852   8.155   4.476
  300WAT      O 1141   5.939   1.710   4.912
  300WAT     H1 1142   5.964   1.666   4.826
  300WAT     H2 1143   5.840   1.717   4.919
  301WAT      O 1144   9.045   2.104   4.525
  301WAT     H1 1145   8.961   2.156   4.510
  301WAT     H2 1146   9.053   2.034   4.454
  302WAT      O 1147   9.268   5.326   5.665
  302WAT     H1 1148   9.342   5.370   5.715
  302WAT     H2 1149   9.217   5.266   5.727
  303WAT      O 1150   2.383   2.290   1.898
  303WAT     H1 1151   2.403   2.285   1.800
  303WAT     H2 1152   2.408   2.381   1.933
  304WAT      O 1153   6.968   4.197   0.144
  304WAT     H1 1154   7.053   4.177   0.094
  304WAT     H2 1155   6.935   4.288   0.119
  305WAT      O 1156   4.943   3.116   0.028
  305WAT     H1 1157   4.846   3.136   0.020
  305WAT     H2 1158   4.996   3.196   0.001
  306WAT      O 1159   7.062   5.330   7.302
  306WAT     H1 1160   7.078   5.237   7.268
  306WAT     H2 1161   7.148   5.365   7.341
  307WAT      O 1162   5.452   8.698   9.603
  307WAT     H1 1163   5.492   8.608   9.615
  307WAT     H2 1164   5.431   8.713   9.506
  308WAT      O 1165   2.476   5.748   8.427
  308WAT     H1 1166   2.506   5.679   8.361
  308WAT     H2 1167   2.426   5.820   8.379
  309WAT      O 1168   1.637   5.070   3.154
  309WAT     H1 1169   1.625   5.025   3.065
  309WAT     H2 1170   1.640   5.169   3.140
  310WAT      O 1171   3.210   0.074   1.732
  310WAT     H1 1172   3.279   0.146   1.731
  310WAT     H2 1173   3.185   0.050   1.638
  311WAT      O 1174   6.779   2.318   5.589
  311WAT     H1 1175   6.688   2.355   5.569
  311WAT     H2 1176   6.795   2.236   5.534
  312WAT      O 1177   1.578   7.843   8.770
  312WAT     H1 1178   1.664   7.856   8.819
  312WAT     H2 1179   1.592   7.862   8.673
  313WAT      O 1180   3.657   3.819   8.386
  313WAT     H1 1181   3.716   3.871   8.449
  313WAT     H2 1182   3.711   3.786   8.309
  314WAT      O 1183   7.185   1.101   6.605
  314WAT     H1 1184   7.242   1.101   6.524
  314WAT     H2 1185   7.091   1.077   6.581
  315WAT      O 1186   0.629   7.626   3.671
  315WAT     H1 1187   0.539   7.634   3.628
  315WAT     H2 1188   0.656   7.715   3.709
  316WAT      O 1189   3.423   9.120   4.785
  316WAT     H1 1190   3.471   9.151   4.703
  316WAT     H2 1191   3.480   9.136   4.866
  317WAT      O 1192   6.462   0.183   8.083
  317WAT     H1 1193   6.415   0.136   8.157
  317WAT     H2 1194   6.447   0.133   7.997
  318WAT      O 1195   4.765   4.115   2.646
  318WAT     H1 1196   4.839   4.071   2.595
  318WAT     H2 1197   4.725   4.049   2.709
  319WAT      O 1198   4.297   7.612   6.751
  319WAT     H1 1199   4.320   7.515   6.759
  319WAT     H2 1200   4.340   7.650   6.670
  320WAT      O 1201   1.208   3.348   1.595
  320WAT     H1 1202   1.136   3.289   1.630
  320WAT     H2 1203   1.278   3.292   1.549
  321WAT      O 1204   9.685   4.852   4.129
  321WAT     H1 1205   9.739   4.883   4.051
  321WAT     H2 1206   9.642   4.931   4.174
  322WAT      O 1207   6.618   1.394   7.816
  322WAT     H1 1208   6.571   1.481   7.801
  322WAT     H2 1209   6.670   1.370   7.734
  323WAT      O 1210   4.831   9.425   1.039
  323WAT     H1 1211   4.829   9.494   0.967
  323WAT     H2 1212   4.894   9.455   1.111
  324WAT      O 1213   1.243   6.418   6.897
  324WAT     H1 1214   1.149   6.451   6.886
  324WAT     H2 1215   1.306   6.479   6.848
  325WAT      O 1216   8.650   9.168   1.678
  325WAT     H1 1217   8.651   9.172   1.778
  325WAT     H2 1218   8.743   9.161   1.644
  326WAT      O 1219   5.780   7.634   7.207
  326WAT     H1 1220   5.709   7.652   7.275
  326WAT     H2 1221   5.860   7.692   7.225
  327WAT      O 1222   2.392   6.209   8.880
  327WAT     H1 1223   2.451   6.180   8.805
  327WAT     H2 1224   2.340   6.131   8.914
  328WAT      O 1225   1.514   0.122   7.940
  328WAT     H1 1226   1.576   0.150   8.013
  328WAT     H2 1227   1.509   0.022   7.937
  329WAT      O 1228   8.336   3.935   1.128
  329WAT     H1 1229   8.395   3.982   1.194
  329WAT     H2 1230   8.299   3.852   1.170
  330WAT      O 1231   4.984   1.249   9.813
  330WAT     H1 1232   4.984   1.293   9.903
  330WAT     H2 1233   5.031   1.161   9.819
  331WAT      O 1234   6.857   6.136   9.261
  331WAT     H1 1235   6.813   6.140   9.350
  331WAT     H2 1236   6.918   6.057   9.257
  332WAT      O 1237   3.965   3.368   6.570
  332WAT     H1 1238   3.882   3.312   6.563
  332WAT     H2 1239   4.001   3.385   6.478
  333WAT      O 1240   7.101   6.343   7.122
  333WAT     H1 1241   7.166   6.409   7.084
  333WAT     H2 1242   7.150   6.262   7.153
  334WAT      O 1243   0.946   8.410   1.565
  334WAT     H1 1244   0.999   8.356   1.630
  334WAT     H2 1245   0.859   8.438   1.608
  335WAT      O 1246   6.725   1.217   6.920
  335WAT     H1 1247   6.749   1.276   6.844
  335WAT     H2 1248   6.684   1.272   6.993
  336WAT      O 1249   4.090   0.139   3.937
  336WAT     H1 1250   4.110   0.215   3.875
  336WAT     H2 1251   4.132   0.156   4.026
  337WAT      O 1252   6.183   5.292   5.825
  337WAT     H1 1253   6.176   5.202   5.869
  337WAT     H2 1254   6.252   5.288   5.752
  338WAT      O 1255   8.126   9.546   4.715
  338WAT     H1 1256   8.174   9.633   4.723
  338WAT     H2 1257   8.057   9.553   4.643
  339WAT      O 1258   4.805   3.174   5.988
  339WAT     H1 1259   4.725   3.134   5.942
  339WAT     H2 1260   4.778   3.205   6.079
  340WAT      O 1261   3.658   5.742   9.325
  340WAT     H1 1262   3.560   5.725   9.313
  340WAT     H2 1263   3.696   5.779   9.240
  341WAT      O 1264   5.898   8.495   8.765
  341WAT     H1 1265   5.997   8.481   8.761
  341WAT     H2 1266   5.874   8.579   8.717
  342WAT      O 1267   0.159   4.529   9.014
  342WAT     H1 1268   0.236   4.560   8.959
  342WAT     H2 1269   0.074   4.538   8.962
  343WAT      O 1270   3.469   6.111   1.173
  343WAT     H1 1271   3.465   6.063   1.261
  343WAT     H2 1272   3.419   6.197   1.181
  344WAT      O 1273   8.320   1.571   6.789
  344WAT     H1 1274   8.350   1.645   6.850
  344WAT     H2 1275   8.371   1.576   6.704
  345WAT      O 1276   5.973   3.506   7.960
  345WAT     H1 1277   5.889   3.554   7.934
  345WAT     H2 1278   6.047   3.573   7.967
  346WAT      O 1279   6.744   5.291   0.718
  346WAT     H1 1280   6.758   5.233   0.638
  346WAT     H2 1281   6.818   5.278   0.783
  347WAT      O 1282   6.285   6.338   8.443
  347WAT     H1 1283   6.359   6.376   8.387
  347WAT     H2 1284   6.200   6.338   8.390
  348WAT      O 1285   8.933   1.554   5.191
  348WAT     H1 1286   9.014   1.530   5.136
  348WAT     H2 1287   8.962   1.603   5.273
  349WAT      O 1288   6.301   5.628   2.471
  349WAT     H1 1289   6.301   5.560   2.545
  349WAT     H2 1290   6.323   5.718   2.509
  350WAT      O 1291   5.849   6.039   6.389
  350WAT     H1 1292   5.924   5.998   6.440
  350WAT     H2 1293   5.767   5.984   6.400
  351WAT      O 1294   1.160   2.730   3.405
  351WAT     H1 1295   1.233   2.795   3.423
  351WAT     H2 1296   1.119   2.702   3.492
  352WAT      O 1297   1.510   7.213   4.381
  352WAT     H1 1298   1.449   7.238   4.306
  352WAT     H2 1299   1.604   7.213   4.349
  353WAT      O 1300   4.388   5.144   2.532
  353WAT     H1 1301   4.396   5.065   2.471
  353WAT     H2 1302   4.456   5.137   2.605
  354WAT      O 1303   8.384   0.827   0.545
  354WAT     H1 1304   8.368   0.918   0.508
  354WAT     H2 1305   8.297   0.786   0.573
  355WAT      O 1306   2.921   1.852   8.112
  355WAT     H1 1307   2.945   1.805   8.197
  355WAT     H2 1308   2.948   1.796   8.034
  356WAT      O 1309   5.875   4.616   5.866
  356WAT     H1 1310   5.860   4.613   5.767
  356WAT     H2 1311   5.934   4.540   5.893
  357WAT      O 1312   2.275   2.449   4.017
  357WAT     H1 1313   2.347   2.389   3.983
  357WAT     H2 1314   2.225   2.488   3.939
  358WAT      O 1315   6.334   4.095   3.833
  358WAT     H1 1316   6.349   4.078   3.735
  358WAT     H2 1317   6.314   4.009   3.879
  359WAT      O 1318   5.348   2.221   4.213
  359WAT     H1 1319   5.322   2.125   4.221
  359WAT     H2 1320   5.275   2.272   4.169
  360WAT      O 1321   5.555   5.509   8.741
  360WAT     H1 1322   5.640   5.562   8.739
  360WAT     H2 1323   5.494   5.541   8.668
  361WAT      O 1324   2.139   5.996   7.598
  361WAT     H1 1325   2.108   6.055   7.674
  361WAT     H2 1326   2.087   5.911   7.598
  362WAT      O 1327   9.605   8.570   1.355
  362WAT     H1 1328   9.666   8.527   1.421
  362WAT     H2 1329   9.534   8.504   1.328
  363WAT      O 1330   2.713   5.235   8.856
  363WAT     H1 1331   2.755   5.210   8.943
  363WAT     H2 1332   2.614   5.216   8.861
  364WAT      O 1333   9.702   6.302   6.789
  364WAT     H1 1334   9.616   6.300   6.738
  364WAT     H2 1335   9.779   6.310   6.726
  365WAT      O 1336   2.134   9.766   0.012
  365WAT     H1 1337   2.126   9.866   0.016
  365WAT     H2 1338   2.119   9.727   0.103
  366WAT      O 1339   6.038   7.962   0.316
  366WAT     H1 1340   6.035   7.895   0.241
  366WAT     H2 1341   6.022   7.916   0.403
  367WAT      O 1342   9.409   8.646   6.452
  367WAT     H1 1343   9.449   8.702   6.524
  367WAT     H2 1344   9.435   8.683   6.362
  368WAT      O 1345   0.927   4.804   0.534
  368WAT     H1 1346   1.002   4.847   0.485
  368WAT     H2 1347   0.917   4.846   0.624
  369WAT      O 1348   0.502   4.401   4.233
  369WAT     H1 1349   0.570   4.468   4.203
  369WAT     H2 1350   0.531   4.363   4.321
  370WAT      O 1351   0.157   2.760   0.607
  370WAT     H1 1352   0.134   2.809   0.690
  370WAT     H2 1353   0.079   2.704   0.578
  371WAT      O 1354   3.575   9.527   3.684
  371WAT     H1 1355   3.663   9.572   3.696
  371WAT     H2 1356   3.558   9.510   3.587
  372WAT      O 1357   8.919   7.312   0.223
  372WAT     H1 1358   8.974   7.230   0.234
  372WAT     H2 1359   8.874   7.311   0.134
  373WAT      O 1360   9.301   4.385   8.812
  373WAT     H1 1361   9.335   4.312   8.871
  373WAT     H2 1362   9.315   4.473   8.856
  374WAT      O 1363   4.008   3.309   9.638
  374WAT     H1 1364   3.988   3.213   9.659
  374WAT     H2 1365   3.964   3.367   9.706
  375WAT      O 1366   6.070   4.816   9.463
  375WAT     H1 1367   6.105   4.845   9.374
  375WAT     H2 1368   6.093   4.720   9.479
  376WAT      O 1369   7.657   0.636   4.579
  376WAT     H1 1370   7.651   0.585   4.665
  376WAT     H2 1371   7.752   0.640   4.549
  377WAT      O 1372   5.604   5.549   1.286
  377WAT     H1 1373   5.645   5.637   1.310
  377WAT     H2 1374   5.675   5.486   1.255
  378WAT      O 1375   9.579   9.235   5.942
  378WAT     H1 1376   9.651   9.299   5.968
  378WAT     H2 1377   9.490   9.282   5.945
  379WAT      O 1378   9.793   1.421   6.587
  379WAT     H1 1379   9.876   1.392   6.633
  379WAT     H2 1380   9.807   1.418   6.488
  380WAT      O 1381   5.849   5.790   1.098
  380WAT     H1 1382   5.944   5.772   1.125
  380WAT     H2 1383   5.847   5.822   1.003
  381WAT      O 1384   1.098   8.964   5.862
  381WAT     H1 1385   1.070   8.868   5.861
  381WAT     H2 1386   1.192   8.971   5.893
  382WAT      O 1387   6.688   6.997   1.004
  382WAT     H1 1388   6.599   7.030   0.972
  382WAT     H2 1389   6.684   6.983   1.103
  383WAT      O 1390   5.438   7.696   7.803
  383WAT     H1 1391   5.469   7.606   7.771
  383WAT     H2 1392   5.341   7.690   7.828
  384WAT      O 1393   6.796   3.905   2.276
  384WAT     H1 1394   6.817   3.868   2.186
  384WAT     H2 1395   6.745   3.837   2.329
  385WAT      O 1396   2.889   8.597   9.787
  385WAT     H1 1397   2.883   8.504   9.749
  385WAT     H2 1398   2.916   8.661   9.715
  386WAT      O 1399   9.208   1.750   0.057
  386WAT     H1 1400   9.274   1.796  -0.002
  386WAT     H2 1401   9.240   1.754   0.152
  387WAT      O 1402   3.890   1.213   0.746
  387WAT     H1 1403   3.853   1.306   0.734
  387WAT     H2 1404   3.865   1.178   0.836
  388WAT      O 1405   2.082   4.179   7.190
  388WAT     H1 1406   1.998   4.134   7.160
  388WAT     H2 1407   2.112   4.139   7.277
  389WAT      O 1408   5.698   5.759   2.580
  389WAT     H1 1409   5.656   5.784   2.667
  389WAT     H2 1410   5.739   5.840   2.538
  390WAT      O 1411   9.356   9.074   2.527
  390WAT     H1 1412   9.352   8.975   2.513
  390WAT     H2 1413   9.388   9.093   2.620
  391WAT      O 1414   9.888   0.904   8.116
  391WAT     H1 1415   9.820   0.847   8.162
  391WAT     H2 1416   9.854   0.997   8.110
  392WAT      O 1417   3.700   6.273   5.042
  392WAT     H1 1418   3.788   6.287   4.997
  392WAT     H2 1419   3.663   6.184   5.014
  393WAT      O 1420   8.657   7.047   7.618
  393WAT     H1 1421   8.558   7.042   7.630
  393WAT     H2 1422   8.701   7.045   7.708
  394WAT      O 1423   5.383   9.135   7.724
  394WAT     H1 1424   5.467   9.135   7.669
  394WAT     H2 1425   5.304   9.137   7.663
  395WAT      O 1426   8.707   9.075   3.238
  395WAT     H1 1427   8.697   9.109   3.331
  395WAT     H2 1428   8.638   9.117   3.179
  396WAT      O 1429   3.485   4.769   3.605
  396WAT     H1 1430   3.558   4.700   3.601
  396WAT     H2 1431   3.407   4.738   3.551
  397WAT      O 1432   9.256   0.971   1.040
  397WAT     H1 1433   9.319   0.952   0.965
  397WAT     H2 1434   9.175   0.913   1.031
  398WAT      O 1435   0.901   1.204   7.255
  398WAT     H1 1436   0.992   1.164   7.243
  398WAT     H2 1437   0.856   1.163   7.333
  399WAT      O 1438   1.926   6.863   3.617
  399WAT     H1 1439   1.964   6.917   3.692
  399WAT     H2 1440   1.894   6.924   3.545
  400WAT      O 1441   9.454   7.657   8.940
  400WAT     H1 1442   9.522   7.596   8.899
  400WAT     H2 1443   9.362   7.630   8.910
  401WAT      O 1444   5.653   5.673   6.969
  401WAT     H1 1445   5.658   5.696   7.066
  401WAT     H2 1446   5.734   5.707   6.922
  402WAT      O 1447   3.988   7.723   2.929
  402WAT     H1 1448   3.899   7.682   2.950
  402WAT     H2 1449   3.992   7.745   2.832
  403WAT      O 1450   1.776   0.671   2.293
  403WAT     H1 1451   1.757   0.748   2.354
  403WAT     H2 1452   1.771   0.585   2.344
  404WAT      O 1453   3.925   4.030   7.825
  404WAT     H1 1454   3.987   4.108   7.829
  404WAT     H2 1455   3.928   3.981   7.912
  405WAT      O 1456   4.060   5.540   3.182
  405WAT     H1 1457   4.097   5.556   3.273
  405WAT     H2 1458   4.099   5.456   3.144
  406WAT      O 1459   0.112   5.462   2.126
  406WAT     H1 1460   0.161   5.394   2.071
  406WAT     H2 1461   0.014   5.443   2.123
  407WAT      O 1462   2.244   1.126   6.997
  407WAT     H1 1463   2.161   1.183   6.994
  407WAT     H2 1464   2.222   1.038   7.037
  408WAT      O 1465   8.740   1.169   5.228
  408WAT     H1 1466   8.701   1.110   5.158
  408WAT     H2 1467   8.839   1.168   5.221
  409WAT      O 1468   1.002   7.235   2.216
  409WAT     H1 1469   0.972   7.150   2.171
  409WAT     H2 1470   1.095   7.224   2.249
  410WAT      O 1471   1.308   7.341   4.989
  410WAT     H1 1472   1.402   7.314   4.967
  410WAT     H2 1473   1.309   7.405   5.066
  411WAT      O 1474   0.246   7.123   4.396
  411WAT     H1 1475   0.236   7.076   4.483
  411WAT     H2 1476   0.238   7.057   4.321
  412WAT      O 1477   5.238   1.058   1.621
  412WAT     H1 1478   5.293   1.141   1.635
  412WAT     H2 1479   5.278   0.983   1.674
  413WAT      O 1480   1.928   7.164   8.134
  413WAT     H1 1481   1.833   7.193   8.149
  413WAT     H2 1482   1.929   7.081   8.078
  414WAT      O 1483   1.871   9.013   8.687
  414WAT     H1 1484   1.807   9.043   8.758
  414WAT     H2 1485   1.891   8.916   8.698
  415WAT      O 1486   5.367   3.821   5.619
  415WAT     H1 1487   5.315   3.753   5.670
  415WAT     H2 1488   5.401   3.891   5.681
  416WAT      O 1489   5.239   1.994   1.137
  416WAT     H1 1490   5.221   2.002   1.039
  416WAT     H2 1491   5.315   1.931   1.152
  417WAT      O 1492   0.730   9.224   5.490
  417WAT     H1 1493   0.709   9.319   5.513
  417WAT     H2 1494   0.675   9.163   5.546
  418WAT      O 1495   0.680   7.131   4.250
  418WAT     H1 1496   0.645   7.133   4.344
  418WAT     H2 1497   0.754   7.063   4.244
  419WAT      O 1498   4.735   0.629   6.581
  419WAT     H1 1499   4.659   0.574   6.547
  419WAT     H2 1500   4.713   0.726   6.570
  420WAT      O 1501   5.054   7.119   9.109
  420WAT     H1 1502   5.121   7.054   9.144
  420WAT     H2 1503   5.101   7.191   9.059
  421WAT      O 1504   5.909   6.227   0.535
  421WAT     H1 1505   5.882   6.308   0.483
  421WAT     H2 1506   5.937   6.155   0.471
  422WAT      O 1507   4.634   4.327   9.708
  422WAT     H1 1508   4.566   4.333   9.781
  422WAT     H2 1509   4.712   4.274   9.739
  423WAT      O 1510   3.949   6.430   4.348
  423WAT     H1 1511   3.940   6.511   4.406
  423WAT     H2 1512   3.923   6.349   4.401
  424WAT      O 1513   9.010   5.961   7.772
  424WAT     H1 1514   9.083   5.945   7.838
  424WAT     H2 1515   8.990   5.877   7.722
  425WAT      O 1516   0.177   7.953   2.733
  425WAT     H1 1517   0.190   7.865   2.687
  425WAT     H2 1518   0.123   8.013   2.675
  426WAT      O 1519   5.792   1.956   9.366
  426WAT     H1 1520   5.781   1.988   9.461
  426WAT     H2 1521   5.828   1.863   9.367
  427WAT      O 1522   2.725   0.909   8.822
  427WAT     H1 1523   2.685   0.959   8.898
  427WAT     H2 1524   2.658   0.845   8.786
  428WAT      O 1525   1.997   8.749   6.139
  428WAT     H1 1526   2.026   8.788   6.052
  428WAT     H2 1527   2.075   8.744   6.201
  429WAT      O 1528   5.764   2.891   2.494
  429WAT     H1 1529   5.664   2.889   2.504
  429WAT     H2 1530   5.796   2.801   2.464
  430WAT      O 1531   0.818   3.012   1.961
  430WAT     H1 1532   0.802   3.083   1.892
  430WAT     H2 1533   0.840   2.926   1.917
  431WAT      O 1534   3.704   5.640   7.841
  431WAT     H1 1535   3.774   5.665   7.908
  431WAT     H2 1536   3.647   5.719   7.822
  432WAT      O 1537   3.366   5.568   9.853
  432WAT     H1 1538   3.381   5.477   9.893
  432WAT     H2 1539   3.454   5.614   9.839
  433WAT      O 1540   3.234   8.935   7.182
  433WAT     H1 1541   3.277   9.025   7.183
  433WAT     H2 1542   3.220   8.905   7.087
  434WAT      O 1543   1.927   8.946   1.539
  434WAT     H1 1544   1.827   8.944   1.549
  434WAT     H2 1545   1.950   8.996   1.455
  435WAT      O 1546   9.650   5.000   1.501
  435WAT     H1 1547   9.633   4.922   1.561
  435WAT     H2 1548   9.630   4.975   1.407
  436WAT      O 1549   1.623   7.321   0.996
  436WAT     H1 1550   1.661   7.284   0.911
  436WAT     H2 1551   1.556   7.256   1.033
  437WAT      O 1552   9.087   9.015   8.950
  437WAT     H1 1553   9.080   9.077   9.028
  437WAT     H2 1554   9.078   9.066   8.865
  438WAT      O 1555   5.528   4.081   8.277
  438WAT     H1 1556   5.523   4.181   8.280
  438WAT     H2 1557   5.594   4.054   8.207
  439WAT      O 1558   2.294   2.980   4.664
  439WAT     H1 1559   2.364   2.909   4.668
  439WAT     H2 1560   2.315   3.044   4.590
  440WAT      O 1561   0.268   7.334   0.757
  440WAT     H1 1562   0.194   7.287   0.805
  440WAT     H2 1563   0.232   7.373   0.672
  441WAT      O 1564   5.784   1.526   0.091
  441WAT     H1 1565   5.706   1.512   0.152
  441WAT     H2 1566   5.868   1.498   0.137
  442WAT      O 1567   8.757   8.693   0.799
  442WAT     H1 1568   8.696   8.763   0.762
  442WAT     H2 1569   8.842   8.693   0.746
  443WAT      O 1570   1.629   7.845   1.974
  443WAT     H1 1571   1.610   7.768   1.913
  443WAT     H2 1572   1.626   7.930   1.921
  444WAT      O 1573   3.770   5.288   7.093
  444WAT     H1 1574   3.757   5.350   7.171
  444WAT     H2 1575   3.866   5.290   7.065
  445WAT      O 1576   8.370   5.056   0.392
  445WAT     H1 1577   8.380   5.113   0.311
  445WAT     H2 1578   8.320   5.107   0.462
  446WAT      O 1579   4.115   7.081   0.448
  446WAT     H1 1580   4.070   7.068   0.536
  446WAT     H2 1581   4.065   7.150   0.395
  447WAT      O 1582   1.187   5.059   6.018
  447WAT     H1 1583   1.207   5.154   6.040
  447WAT     H2 1584   1.211   5.001   6.096
  448WAT      O 1585   5.984   2.214   7.915
  448WAT     H1 1586   5.904   2.250   7.963
  448WAT     H2 1587   6.055   2.284   7.911
  449WAT      O 1588   4.307   5.233   6.568
  449WAT     H1 1589   4.303   5.268   6.474
  449WAT     H2 1590   4.219   5.246   6.613
  450WAT      O 1591   5.847   3.926   2.976
  450WAT     H1 1592   5.894   4.014   2.968
  450WAT     H2 1593   5.889   3.873   3.050
  451WAT      O 1594   4.678   4.451   6.139
  451WAT     H1 1595   4.681   4.401   6.226
  451WAT     H2 1596   4.716   4.543   6.152
  452WAT      O 1597   6.642   8.170   0.536
  452WAT     H1 1598   6.548   8.144   0.510
  452WAT     H2 1599   6.689   8.208   0.456
  453WAT      O 1600   7.357   2.936   7.345
  453WAT     H1 1601   7.318   2.922   7.254
  453WAT     H2 1602   7.363   3.034   7.364
  454WAT      O 1603   3.790   6.693   6.934
  454WAT     H1 1604   3.769   6.595   6.930
  454WAT     H2 1605   3.885   6.705   6.965
  455WAT      O 1606   7.976   2.088   4.431
  455WAT     H1 1607   8.059   2.060   4.480
  455WAT     H2 1608   7.896   2.056   4.481
  456WAT      O 1609   5.996   6.803   5.751
  456WAT     H1 1610   6.046   6.885   5.721
  456WAT     H2 1611   5.914   6.831   5.799
  457WAT      O 1612   0.292   1.507   0.723
  457WAT     H1 1613   0.259   1.546   0.809
  457WAT     H2 1614   0.217   1.461   0.676
  458WAT      O 1615   1.047   0.985   6.839
  458WAT     H1 1616   1.125   0.944   6.885
  458WAT     H2 1617   1.075   1.016   6.748
  459WAT      O 1618   6.863   0.855   0.033
  459WAT     H1 1619   6.888   0.842  -0.063
  459WAT     H2 1620   6.812   0.941   0.042
  460WAT      O 1621   8.184   3.918   9.872
  460WAT     H1 1622   8.220   4.011   9.868
  460WAT     H2 1623   8.149   3.892   9.782
  461WAT      O 1624   5.034   0.008   4.375
  461WAT     H1 1625   5.054  -0.013   4.471
  461WAT     H2 1626   4.937  -0.009   4.357
  462WAT      O 1627   4.437   4.487   2.115
  462WAT     H1 1628   4.414   4.433   2.035
  462WAT     H2 1629   4.502   4.437   2.172
  463WAT      O 1630   5.234   4.675   0.836
  463WAT     H1 1631   5.273   4.611   0.903
  463WAT     H2 1632   5.137   4.654   0.824
  464WAT      O 1633   2.006   9.213   8.103
  464WAT     H1 1634   1.936   9.178   8.041
  464WAT     H2 1635   2.056   9.287   8.059
  465WAT      O 1636   6.592   5.001   5.259
  465WAT     H1 1637   6.631   5.056   5.185
  465WAT     H2 1638   6.600   4.904   5.235
  466WAT      O 1639   2.436   5.554   0.545
  466WAT     H1 1640   2.396   5.572   0.635
  466WAT     H2 1641   2.363   5.534   0.479
  467WAT      O 1642   2.661   5.498   9.236
  467WAT     H1 1643   2.569   5.500   9.198
  467WAT     H2 1644   2.700   5.590   9.237
  468WAT      O 1645   7.684   2.161   4.274
  468WAT     H1 1646   7.741   2.132   4.196
  468WAT     H2 1647   7.698   2.099   4.351
  469WAT      O 1648   7.987   1.469   4.233
  469WAT     H1 1649   8.083   1.477   4.261
  469WAT     H2 1650   7.936   1.419   4.303
  470WAT      O 1651   5.988   6.006   1.602
  470WAT     H1 1652   6.087   5.996   1.595
  470WAT     H2 1653   5.948   5.917   1.627
  471WAT      O 1654   4.219   1.714   0.751
  471WAT     H1 1655   4.239   1.629   0.701
  471WAT     H2 1656   4.167   1.775   0.692
  472WAT      O 1657   8.855   1.892   6.263
  472WAT     H1 1658   8.912   1.851   6.192
  472WAT     H2 1659   8.806   1.970   6.226
  473WAT      O 1660   0.908   2.347   1.604
  473WAT     H1 1661   0.846   2.367   1.528
  473WAT     H2 1662   0.976   2.420   1.612
  474WAT      O 1663   3.114   7.009   0.809
  474WAT     H1 1664   3.191   6.981   0.866
  474WAT     H2 1665   3.083   6.932   0.754
  475WAT      O 1666   8.477   7.509   2.819
  475WAT     H1 1667   8.478   7.609   2.820
  475WAT     H2 1668   8.564   7.474   2.857
  476WAT      O 1669   1.855   7.494   4.017
  476WAT     H1 1670   1.933   7.439   3.985
  476WAT     H2 1671   1.835   7.472   4.112
  477WAT      O 1672   6.858   2.322   1.420
  477WAT     H1 1673   6.811   2.398   1.465
  477WAT     H2 1674   6.832   2.319   1.323
  478WAT      O 1675   3.832   9.125   4.512
  478WAT     H1 1676   3.805   9.029   4.515
  478WAT     H2 1677   3.864   9.154   4.602
  479WAT      O 1678   2.466   0.338   6.129
  479WAT     H1 1679   2.468   0.438   6.122
  479WAT     H2 1680   2.407   0.301   6.058
  480WAT      O 1681   8.841   8.250   1.361
  480WAT     H1 1682   8.877   8.337   1.327
  480WAT     H2 1683   8.744   8.262   1.384
  481WAT      O 1684   3.100   9.813   1.232
  481WAT     H1 1685   3.195   9.813   1.200
  481WAT     H2 1686   3.070   9.718   1.245
  482WAT      O 1687   6.856   5.595   0.620
  482WAT     H1 1688   6.946   5.584   0.579
  482WAT     H2 1689   6.849   5.538   0.701
  483WAT      O 1690   7.933   0.667   4.564
  483WAT     H1 1691   8.019   0.615   4.562
  483WAT     H2 1692   7.954   0.765   4.566
  484WAT      O 1693   1.262   6.600   3.618
  484WAT     H1 1694   1.182   6.618   3.676
  484WAT     H2 1695   1.312   6.522   3.655
  485WAT      O 1696   6.671   7.900   1.615
  485WAT     H1 1697   6.707   7.815   1.654
  485WAT     H2 1698   6.616   7.879   1.535
  486WAT      O 1699   1.787   2.985   6.081
  486WAT     H1 1700   1.763   2.936   5.997
  486WAT     H2 1701   1.830   2.922   6.146
  487WAT      O 1702   0.148   9.678   5.132
  487WAT     H1 1703   0.220   9.719   5.075
  487WAT     H2 1704   0.167   9.580   5.143
  488WAT      O 1705   0.312   6.144   1.342
  488WAT     H1 1706   0.347   6.052   1.325
  488WAT     H2 1707   0.264   6.146   1.430
  489WAT      O 1708   5.656   1.141   9.718
  489WAT     H1 1709   5.713   1.223   9.715
  489WAT     H2 1710   5.562   1.164   9.693
  490WAT      O 1711   4.537   7.521   0.961
  490WAT     H1 1712   4.472   7.464   1.010
  490WAT     H2 1713   4.610   7.464   0.922
  491WAT      O 1714   9.846   8.027   0.152
  491WAT     H1 1715   9.789   8.109   0.158
  491WAT     H2 1716   9.891   8.024   0.063
  492WAT      O 1717   8.123   1.087   7.145
  492WAT     H1 1718   8.050   1.079   7.076
  492WAT     H2 1719   8.193   1.150   7.112
  493WAT      O 1720   0.466   7.598   6.717
  493WAT     H1 1721   0.511   7.530   6.775
  493WAT     H2 1722   0.410   7.551   6.649
  494WAT      O 1723   8.507   1.576   0.631
  494WAT     H1 1724   8.564   1.657   0.639
  494WAT     H2 1725   8.521   1.535   0.541
  495WAT      O 1726   3.928   8.927   5.836
  495WAT     H1 1727   4.003   8.989   5.812
  495WAT     H2 1728   3.940   8.840   5.787
  496WAT      O 1729   7.316   8.293   6.882
  496WAT     H1 1730   7.395   8.304   6.822
  496WAT     H2 1731   7.343   8.309   6.977
  497WAT      O 1732   7.850   0.170   2.208
  497WAT     H1 1733   7.820   0.194   2.116
  497WAT     H2 1734   7.925   0.230   2.236
  498WAT      O 1735   9.589   2.954   7.391
  498WAT     H1 1736   9.670   2.902   7.417
  498WAT     H2 1737   9.610   3.052   7.394
  499WAT      O 1738   5.002   2.116   2.887
  499WAT     H1 1739   5.082   2.136   2.832
  499WAT     H2 1740   5.021   2.040   2.948
  500WAT      O 1741   0.866   6.848   9.072
  500WAT     H1 1742   0.838   6.762   9.029
  500WAT     H2 1743   0.966   6.849   9.083
  501WAT      O 1744   7.741   4.220   7.566
  501WAT     H1 1745   7.821   4.239   7.510
  501WAT     H2 1746   7.704   4.130   7.541
  502WAT      O 1747   9.588   5.594   9.378
  502WAT     H1 1748   9.684   5.602   9.402
  502WAT     H2 1749   9.578   5.541   9.293
  503WAT      O 1750   5.237   2.911   2.685
  503WAT     H1 1751   5.270   2.832   2.736
  503WAT     H2 1752   5.285   2.993   2.716
  504WAT      O 1753   0.636   9.701   2.555
  504WAT     H1 1754   0.683   9.620   2.519
  504WAT     H2 1755   0.705   9.768   2.584
  505WAT      O 1756   2.329   5.356   9.818
  505WAT     H1 1757   2.259   5.421   9.787
  505WAT     H2 1758   2.295   5.306   9.897
  506WAT      O 1759   7.336   4.526   6.039
  506WAT     H1 1760   7.388   4.538   5.955
  506WAT     H2 1761   7.356   4.437   6.079
  507WAT      O 1762   1.769   4.694   0.222
  507WAT     H1 1763   1.696   4.677   0.156
  507WAT     H2 1764   1.768   4.791   0.248
  508WAT      O 1765   3.311   8.472   9.758
  508WAT     H1 1766   3.394   8.417   9.769
  508WAT     H2 1767   3.239   8.438   9.818
  509WAT      O 1768   6.999   1.139   2.887
  509WAT     H1 1769   6.910   1.099   2.908
  509WAT     H2 1770   7.069   1.093   2.941
  510WAT      O 1771   0.324   7.464   9.732
  510WAT     H1 1772   0.372   7.494   9.815
  510WAT     H2 1773   0.237   7.513   9.725
  511WAT      O 1774   0.610   7.886   0.716
  511WAT     H1 1775   0.613   7.887   0.816
  511WAT     H2 1776   0.532   7.831   0.685
  512WAT      O 1777   4.900   1.452   9.433
  512WAT     H1 1778   4.834   1.481   9.364
  512WAT     H2 1779   4.989   1.492   9.412
  513WAT      O 1780   2.775   0.534   3.945
  513WAT     H1 1781   2.762   0.436   3.928
  513WAT     H2 1782   2.693   0.571   3.990
  514WAT      O 1783   5.550   9.695   2.710
  514WAT     H1 1784   5.548   9.647   2.798
  514WAT     H2 1785   5.552   9.628   2.636
  515WAT      O 1786   3.559   2.114   3.090
  515WAT     H1 1787   3.509   2.045   3.143
  515WAT     H2 1788   3.497   2.188   3.066
  516WAT      O 1789   7.757   0.725   7.027
  516WAT     H1 1790   7.772   0.810   7.078
  516WAT     H2 1791   7.688   0.670   7.074
  517WAT      O 1792   1.913   3.590   3.295
  517WAT     H1 1793   1.898   3.548   3.206
  517WAT     H2 1794   1.996   3.553   3.336
  518WAT      O 1795   6.095   8.168   0.896
  518WAT     H1 1796   6.153   8.146   0.974
  518WAT     H2 1797   6.091   8.267   0.884
  519WAT      O 1798   2.945   7.266   4.032
  519WAT     H1 1799   2.902   7.176   4.028
  519WAT     H2 1800   2.900   7.327   3.966
  520WAT      O 1801   2.697   5.403   1.468
  520WAT     H1 1802   2.757   5.410   1.548
  520WAT     H2 1803   2.731   5.332   1.407
  521WAT      O 1804   2.207   3.626   9.574
  521WAT     H1 1805   2.218   3.710   9.521
  521WAT     H2 1806   2.280   3.620   9.642
  522WAT      O 1807   0.853   4.164   7.775
  522WAT     H1 1808   0.936   4.177   7.829
  522WAT     H2 1809   0.786   4.113   7.828
  523WAT      O 1810   0.887   9.703   9.490
  523WAT     H1 1811   0.819   9.731   9.557
  523WAT     H2 1812   0.861   9.735   9.399
  524WAT      O 1813   6.960   6.849   2.029
  524WAT     H1 1814   7.045   6.859   2.081
  524WAT     H2 1815   6.958   6.918   1.956
  525WAT      O 1816   3.585   7.469   9.042
  525WAT     H1 1817   3.674   7.424   9.049
  525WAT     H2 1818   3.596   7.560   9.001
  526WAT      O 1819   8.619   2.428   0.538
  526WAT     H1 1820   8.652   2.340   0.572
  526WAT     H2 1821   8.530   2.448   0.578
  527WAT      O 1822   3.746   1.428   8.161
  527WAT     H1 1823   3.754   1.365   8.239
  527WAT     H2 1824   3.796   1.391   8.083
  528WAT      O 1825   0.997   6.751   1.635
  528WAT     H1 1826   1.088   6.763   1.595
  528WAT     H2 1827   0.949   6.678   1.586
  529WAT      O 1828   3.932   4.099   0.399
  529WAT     H1 1829   3.867   4.101   0.323
  529WAT     H2 1830   3.899   4.159   0.472
  530WAT      O 1831   2.873   6.243   9.809
  530WAT     H1 1832   2.823   6.328   9.825
  530WAT     H2 1833   2.968   6.254   9.839
  531WAT      O 1834   0.961   0.832   9.570
  531WAT     H1 1835   0.928   0.832   9.664
  531WAT     H2 1836   0.898   0.781   9.512
  532WAT      O 1837   4.080   9.215   6.734
  532WAT     H1 1838   4.068   9.174   6.643
  532WAT     H2 1839   4.011   9.286   6.748
  533WAT      O 1840   3.025   1.059   1.377
  533WAT     H1 1841   2.947   0.999   1.394
  533WAT     H2 1842   3.058   1.095   1.464
  534WAT      O 1843   2.567   6.012   3.515
  534WAT     H1 1844   2.567   5.912   3.521
  534WAT     H2 1845   2.577   6.040   3.419
  535WAT      O 1846   0.638   5.400   0.765
  535WAT     H1 1847   0.736   5.392   0.742
  535WAT     H2 1848   0.626   5.473   0.832
  536WAT      O 1849   0.047   5.230   7.419
  536WAT     H1 1850   0.034   5.200   7.324
  536WAT     H2 1851   0.052   5.329   7.422
  537WAT      O 1852   7.958   0.799   3.242
  537WAT     H1 1853   8.021   0.858   3.292
  537WAT     H2 1854   7.988   0.704   3.250
  538WAT      O 1855   9.870   9.184   7.909
  538WAT     H1 1856   9.814   9.170   7.991
  538WAT     H2 1857   9.945   9.118   7.907
  539WAT      O 1858   1.507   8.279   9.470
  539WAT     H1 1859   1.455   8.205   9.429
  539WAT     H2 1860   1.605   8.262   9.459
  540WAT      O 1861   1.412   5.381   3.414
  540WAT     H1 1862   1.385   5.315   3.343
  540WAT     H2 1863   1.489   5.344   3.466
  541WAT      O 1864   6.546   0.180   3.064
  541WAT     H1 1865   6.470   0.120   3.041
  541WAT     H2 1866   6.578   0.159   3.156
  542WAT      O 1867   1.508   0.356   1.645
  542WAT     H1 1868   1.427   0.324   1.595
  542WAT     H2 1869   1.490   0.448   1.681
  543WAT      O 1870   0.814   6.663   5.392
  543WAT     H1 1871   0.777   6.602   5.463
  543WAT     H2 1872   0.738   6.711   5.348
  544WAT      O 1873   2.399   8.595   6.984
  544WAT     H1 1874   2.364   8.685   6.959
  544WAT     H2 1875   2.453   8.602   7.068
  545WAT      O 1876   0.157   4.104   2.326
  545WAT     H1 1877   0.092   4.028   2.333
  545WAT     H2 1878   0.109   4.185   2.292
  546WAT      O 1879   8.686   6.488   8.751
  546WAT     H1 1880   8.671   6.566   8.690
  546WAT     H2 1881   8.735   6.519   8.833
  547WAT      O 1882   3.707   4.933   3.016
  547WAT     H1 1883   3.686   4.872   3.093
  547WAT     H2 1884   3.791   4.984   3.037
  548WAT      O 1885   5.478   6.949   1.865
  548WAT     H1 1886   5.446   6.909   1.951
  548WAT     H2 1887   5.555   6.897   1.830
  549WAT      O 1888   4.004   6.449   7.757
  549WAT     H1 1889   4.097   6.483   7.739
  549WAT     H2 1890   3.951   6.452   7.672
  550WAT      O 1891   7.970   8.566   2.078
  550WAT     H1 1892   7.939   8.472   2.063
  550WAT     H2 1893   7.957   8.619   1.995
  551WAT      O 1894   8.752   1.951   3.996
  551WAT     H1 1895   8.733   1.989   4.087
  551WAT     H2 1896   8.704   2.004   3.927
  552WAT      O 1897   7.469   3.711   8.136
  552WAT     H1 1898   7.531   3.704   8.057
  552WAT     H2 1899   7.408   3.789   8.124
  553WAT      O 1900   5.919   8.178   0.192
  553WAT     H1 1901   5.958   8.101   0.242
  553WAT     H2 1902   5.823   8.190   0.219
  554WAT      O 1903   5.701   0.946   5.543
  554WAT     H1 1904   5.663   0.911   5.628
  554WAT     H2 1905   5.678   0.884   5.468
  555WAT      O 1906   9.038   0.175   0.666
  555WAT     H1 1907   9.001   0.245   0.727
  555WAT     H2 1908   8.981   0.169   0.584
  556WAT      O 1909   3.129   9.478   3.329
  556WAT     H1 1910   3.178   9.395   3.356
  556WAT     H2 1911   3.031   9.458   3.322
  557WAT      O 1912   8.567   8.927   9.810
  557WAT     H1 1913   8.506   8.917   9.889
  557WAT     H2 1914   8.635   8.853   9.812
  558WAT      O 1915   9.506   0.635   5.870
  558WAT     H1 1916   9.412   0.602   5.867
  558WAT     H2 1917   9.566   0.564   5.908
  559WAT      O 1918   9.491   1.239   6.127
  559WAT     H1 1919   9.473   1.325   6.175
  559WAT     H2 1920   9.585   1.239   6.093
  560WAT      O 1921   0.258   4.083   2.607
  560WAT     H1 1922   0.188   4.032   2.556
  560WAT     H2 1923   0.345   4.034   2.603
  561WAT      O 1924   0.268   5.684   6.208
  561WAT     H1 1925   0.227   5.691   6.299
  561WAT     H2 1926   0.328   5.604   6.205
  562WAT      O 1927   0.140   1.826   4.177
  562WAT     H1 1928   0.111   1.915   4.142
  562WAT     H2 1929   0.167   1.835   4.273
  563WAT      O 1930   8.702   9.748   2.271
  563WAT     H1 1931   8.638   9.823   2.291
  563WAT     H2 1932   8.710   9.689   2.351
  564WAT      O 1933   7.214   9.241   4.968
  564WAT     H1 1934   7.163   9.260   4.884
  564WAT     H2 1935   7.310   9.267   4.955
  565WAT      O 1936   8.083   6.558   3.006
  565WAT     H1 1937   8.052   6.481   2.950
  565WAT     H2 1938   8.183   6.559   3.010
  566WAT      O 1939   7.191   4.110   3.088
  566WAT     H1 1940   7.166   4.207   3.088
  566WAT     H2 1941   7.109   4.054   3.083
  567WAT      O 1942   2.641   4.009   3.179
  567WAT     H1 1943   2.563   4.057   3.141
  567WAT     H2 1944   2.647   3.917   3.139
  568WAT      O 1945   2.863   8.278   2.483
  568WAT     H1 1946   2.781   8.293   2.428
  568WAT     H2 1947   2.892   8.183   2.474
  569WAT      O 1948   7.094   8.922   5.422
  569WAT     H1 1949   7.114   8.881   5.511
  569WAT     H2 1950   7.168   8.984   5.396
  570WAT      O 1951   5.088   6.356   3.280
  570WAT     H1 1952   5.180   6.325   3.260
  570WAT     H2 1953   5.044   6.292   3.343
  571WAT      O 1954   0.272   6.293   4.901
  571WAT     H1 1955   0.196   6.333   4.952
  571WAT     H2 1956   0.356   6.343   4.924
  572WAT      O 1957   7.976   7.614   6.655
  572WAT     H1 1958   8.000   7.528   6.611
  572WAT     H2 1959   7.888   7.646   6.622
  573WAT      O 1960   3.876   7.869   6.284
  573WAT     H1 1961   3.796   7.893   6.339
  573WAT     H2 1962   3.924   7.792   6.327
  574WAT      O 1963   2.859   0.342   7.157
  574WAT     H1 1964   2.829   0.247   7.150
  574WAT     H2 1965   2.929   0.350   7.228
  575WAT      O 1966   3.681   1.254   1.369
  575WAT     H1 1967   3.605   1.189   1.362
  575WAT     H2 1968   3.672   1.307   1.453
  576WAT      O 1969   9.045   1.964   1.560
  576WAT     H1 1970   9.104   1.907   1.616
  576WAT     H2 1971   8.975   2.007   1.617
  577WAT      O 1972   3.598   7.751   3.144
  577WAT     H1 1973   3.647   7.695   3.078
  577WAT     H2 1974   3.592   7.845   3.111
  578WAT      O 1975   5.639   9.435   7.613
  578WAT     H1 1976   5.653   9.374   7.690
  578WAT     H2 1977   5.541   9.453   7.601
  579WAT      O 1978   7.907   7.661   8.269
  579WAT     H1 1979   7.909   7.714   8.354
  579WAT     H2 1980   8.000   7.642   8.239
  580WAT      O 1981   1.980   5.128   9.050
  580WAT     H1 1982   2.021   5.200   9.106
  580WAT     H2 1983   1.884   5.150   9.033
  581WAT      O 1984   9.618   0.758   6.186
  581WAT     H1 1985   9.673   0.757   6.102
  581WAT     H2 1986   9.539   0.699   6.174
  582WAT      O 1987   5.608   9.584   4.637
  582WAT     H1 1988   5.532   9.597   4.573
  582WAT     H2 1989   5.665   9.509   4.606
  583WAT      O 1990   8.480   3.160   0.220
  583WAT     H1 1991   8.541   3.198   0.289
  583WAT     H2 1992   8.416   3.230   0.189
  584WAT      O 1993   0.441   9.731   7.146
  584WAT     H1 1994   0.484   9.820   7.163
  584WAT     H2 1995   0.443   9.677   7.230
  585WAT      O 1996   7.205   0.617   7.074
  585WAT     H1 1997   7.256   0.676   7.138
  585WAT     H2 1998   7.249   0.528   7.068
  586WAT      O 1999   1.101   3.309   2.988
  586WAT     H1 2000   1.195   3.303   2.953
  586WAT     H2 2001   1.038   3.324   2.912
  587WAT      O 2002   2.408   1.094   0.635
  587WAT     H1 2003   2.347   1.134   0.567
  587WAT     H2 2004   2.405   1.149   0.719
  588WAT      O 2005   3.490   1.759   7.861
  588WAT     H1 2006   3.589   1.770   7.850
  588WAT     H2 2007   3.471   1.696   7.936
  589WAT      O 2008   8.006   2.271   8.013
  589WAT     H1 2009   7.944   2.193   8.008
  589WAT     H2 2010   8.016   2.300   8.108
  590WAT      O 2011   5.756   7.909   0.534
  590WAT     H1 2012   5.846   7.877   0.563
  590WAT     H2 2013   5.702   7.832   0.501
  591WAT      O 2014   9.700   2.265   3.259
  591WAT     H1 2015   9.606   2.231   3.265
  591WAT     H2 2016   9.710   2.320   3.176
  592WAT      O 2017   0.704   0.048   9.028
  592WAT     H1 2018   0.614   0.092   9.024
  592WAT     H2 2019   0.719  -0.006   8.946
  593WAT      O 2020   4.968   0.343   1.052
  593WAT     H1 2021   4.933   0.411   1.115
  593WAT     H2 2022   4.987   0.258   1.102
  594WAT      O 2023   8.441   9.086   5.679
  594WAT     H1 2024   8.435   9.121   5.772
  594WAT     H2 2025   8.466   8.989   5.681
  595WAT      O 2026   6.839   1.442   8.015
  595WAT     H1 2027   6.760   1.415   7.960
  595WAT     H2 2028   6.872   1.532   7.985
  596WAT      O 2029   5.947   5.239   9.450
  596WAT     H1 2030   5.923   5.142   9.456
  596WAT     H2 2031   5.941   5.281   9.541
  597WAT      O 2032   2.730   0.263   6.116
  597WAT     H1 2033   2.760   0.348   6.074
  597WAT     H2 2034   2.632   0.267   6.134
  598WAT      O 2035   5.383   8.544   2.403
  598WAT     H1 2036   5.439   8.489   2.340
  598WAT     H2 2037   5.341   8.484   2.471
  599WAT      O 2038   1.071   0.462   2.771
  599WAT     H1 2039   1.017   0.523   2.713
  599WAT     H2 2040   1.037   0.468   2.865
  600WAT      O 2041   7.334   7.450   1.965
  600WAT     H1 2042   7.400   7.463   1.891
  600WAT     H2 2043   7.379   7.466   2.053
  601WAT      O 2044   0.844   0.896   4.024
  601WAT     H1 2045   0.747   0.892   4.047
  601WAT     H2 2046   0.859   0.965   3.954
  602WAT      O 2047   8.742   4.359   9.198
  602WAT     H1 2048   8.787   4.282   9.155
  602WAT     H2 2049   8.728   4.432   9.130
  603WAT      O 2050   9.456   5.998   2.548
  603WAT     H1 2051   9.449   6.091   2.510
  603WAT     H2 2052   9.396   5.991   2.628
  604WAT      O 2053   8.355   6.809   8.315
  604WAT     H1 2054   8.375   6.731   8.255
  604WAT     H2 2055   8.343   6.776   8.409
  605WAT      O 2056   3.636   2.412   1.473
  605WAT     H1 2057   3.697   2.347   1.518
  605WAT     H2 2058   3.691   2.479   1.421
  606WAT      O 2059   0.285   8.475   5.270
  606WAT     H1 2060   0.189   8.492   5.250
  606WAT     H2 2061   0.308   8.380   5.248
  607WAT      O 2062   5.681   4.014   3.610
  607WAT     H1 2063   5.692   3.932   3.553
  607WAT     H2 2064   5.665   3.987   3.705
  608WAT      O 2065   8.124   0.972   1.943
  608WAT     H1 2066   8.081   1.043   1.886
  608WAT     H2 2067   8.116   0.884   1.897
  609WAT      O 2068   1.591   5.883   1.128
  609WAT     H1 2069   1.677   5.932   1.117
  609WAT     H2 2070   1.608   5.785   1.133
  610WAT      O 2071   4.219   6.859   2.529
  610WAT     H1 2072   4.137   6.803   2.513
  610WAT     H2 2073   4.230   6.923   2.453
  611WAT      O 2074   0.131   3.760   4.299
  611WAT     H1 2075   0.180   3.673   4.302
  611WAT     H2 2076   0.194   3.833   4.272
  612WAT      O 2077   2.721   9.693   5.592
  612WAT     H1 2078   2.623   9.672   5.592
  612WAT     H2 2079   2.742   9.752   5.671
  613WAT      O 2080   9.842   7.156   8.510
  613WAT     H1 2081   9.808   7.216   8.438
  613WAT     H2 2082   9.767   7.097   8.542
  614WAT      O 2083   7.658   1.654   6.313
  614WAT     H1 2084   7.616   1.670   6.224
  614WAT     H2 2085   7.586   1.643   6.382
  615WAT      O 2086   5.021   0.725   9.805
  615WAT     H1 2087   5.050   0.703   9.712
  615WAT     H2 2088   5.057   0.657   9.869
  616WAT      O 2089   0.722   5.022   4.753
  616WAT     H1 2090   0.653   5.024   4.825
  616WAT     H2 2091   0.758   5.114   4.738
  617WAT      O 2092   4.170   0.350   8.779
  617WAT     H1 2093   4.115   0.347   8.695
  617WAT     H2 2094   4.236   0.275   8.778
  618WAT      O 2095   8.937   5.247   8.514
  618WAT     H1 2096   8.946   5.280   8.420
  618WAT     H2 2097   8.960   5.321   8.577
  619WAT      O 2098   1.563   0.077   3.423
  619WAT     H1 2099   1.573  -0.020   3.447
  619WAT     H2 2100   1.468   0.105   3.439
  620WAT      O 2101   7.240   7.821   6.694
  620WAT     H1 2102   7.218   7.859   6.784
  620WAT     H2 2103   7.157   7.821   6.637
  621WAT      O 2104   4.286   0.327   5.660
  621WAT     H1 2105   4.225   0.273   5.718
  621WAT     H2 2106   4.252   0.325   5.566
  622WAT      O 2107   1.964   8.428   4.888
  622WAT     H1 2108   1.975   8.518   4.847
  622WAT     H2 2109   1.938   8.362   4.818
  623WAT      O 2110   5.688   8.163   2.447
  623WAT     H1 2111   5.750   8.089   2.419
  623WAT     H2 2112   5.715   8.197   2.537
  624WAT      O 2113   0.271   9.526   0.209
  624WAT     H1 2114   0.235   9.567   0.293
  624WAT     H2 2115   0.235   9.433   0.200
  625WAT      O 2116   4.651   8.539   3.807
  625WAT     H1 2117   4.642   8.612   3.875
  625WAT     H2 2118   4.637   8.576   3.716
  626WAT      O 2119   1.492   6.758   3.667
  626WAT     H1 2120   1.470   6.843   3.619
  626WAT     H2 2121   1.415   6.694   3.659
  627WAT      O 2122   7.733   0.528   1.594
  627WAT     H1 2123   7.733   0.616   1.642
  627WAT     H2 2124   7.820   0.482   1.608
  628WAT      O 2125   6.006   7.299   8.481
  628WAT     H1 2126   6.084   7.360   8.493
  628WAT     H2 2127   6.023   7.238   8.404
  629WAT      O 2128   7.163   9.173   3.066
  629WAT     H1 2129   7.209   9.259   3.045
  629WAT     H2 2130   7.143   9.124   2.981
  630WAT      O 2131   9.489   1.335   8.693
  630WAT     H1 2132   9.573   1.290   8.724
  630WAT     H2 2133   9.499   1.363   8.598
  631WAT      O 2134   6.011   0.277   3.711
  631WAT     H1 2135   5.925   0.249   3.669
  631WAT     H2 2136   6.027   0.223   3.793
  632WAT      O 2137   3.999   5.614   4.926
  632WAT     H1 2138   4.006   5.644   4.831
  632WAT     H2 2139   4.043   5.681   4.986
  633WAT      O 2140   7.588   5.824   8.074
  633WAT     H1 2141   7.552   5.818   8.167
  633WAT     H2 2142   7.570   5.738   8.026
  634WAT      O 2143   6.898   8.007   2.982
  634WAT     H1 2144   6.802   8.021   2.956
  634WAT     H2 2145   6.941   7.943   2.918
  635WAT      O 2146   0.563   5.821   2.019
  635WAT     H1 2147   0.478   5.864   1.987
  635WAT     H2 2148   0.623   5.890   2.058
  636WAT      O 2149   0.361   1.371   6.383
  636WAT     H1 2150   0.405   1.337   6.300
  636WAT     H2 2151   0.323   1.293   6.434
  637WAT      O 2152   1.225   7.440   4.720
  637WAT     H1 2153   1.231   7.413   4.817
  637WAT     H2 2154   1.296   7.395   4.668
  638WAT      O 2155   9.867   4.673   3.849
  638WAT     H1 2156   9.858   4.759   3.899
  638WAT     H2 2157   9.956   4.669   3.804
  639WAT      O 2158   2.684   8.761   3.473
  639WAT     H1 2159   2.768   8.809   3.498
  639WAT     H2 2160   2.636   8.813   3.402
  640WAT      O 2161   2.572   0.147   4.347
  640WAT     H1 2162   2.660   0.189   4.370
  640WAT     H2 2163   2.588   0.065   4.291
  641WAT      O 2164   0.050   2.541   7.632
  641WAT     H1 2165  -0.038   2.515   7.673
  641WAT     H2 2166   0.060   2.495   7.543
  642WAT      O 2167   8.241   9.170   0.042
  642WAT     H1 2168   8.209   9.086  -0.000
  642WAT     H2 2169   8.275   9.150   0.134
  643WAT      O 2170   2.861   1.646   3.394
  643WAT     H1 2171   2.776   1.664   3.345
  643WAT     H2 2172   2.879   1.547   3.394
  644WAT      O 2173   4.845   0.505   1.239
  644WAT     H1 2174   4.826   0.516   1.336
  644WAT     H2 2175   4.758   0.502   1.189
  645WAT      O 2176   5.509   6.807   9.218
  645WAT     H1 2177   5.554   6.764   9.140
  645WAT     H2 2178   5.514   6.746   9.297
  646WAT      O 2179   6.154   7.660   1.447
  646WAT     H1 2180   6.120   7.701   1.531
  646WAT     H2 2181   6.204   7.728   1.394
  647WAT      O 2182   7.578   6.210   1.325
  647WAT     H1 2183   7.523   6.213   1.241
  647WAT     H2 2184   7.671   6.238   1.304
  648WAT      O 2185   4.517   8.091   0.374
  648WAT     H1 2186   4.538   8.139   0.460
  648WAT     H2 2187   4.477   8.155   0.309
  649WAT      O 2188   5.204   7.456   9.200
  649WAT     H1 2189   5.105   7.451   9.189
  649WAT     H2 2190   5.228   7.544   9.241
  650WAT      O 2191   0.585   1.125   4.710
  650WAT     H1 2192   0.494   1.166   4.712
  650WAT     H2 2193   0.581   1.039   4.660
  651WAT      O 2194   9.607   2.232   9.891
  651WAT     H1 2195   9.621   2.284   9.806
  651WAT     H2 2196   9.677   2.162   9.899
  652WAT      O 2197   8.517   7.236   6.532
  652WAT     H1 2198   8.463   7.236   6.448
  652WAT     H2 2199   8.582   7.311   6.530
  653WAT      O 2200   8.760   8.967   8.125
  653WAT     H1 2201   8.699   8.951   8.048
  653WAT     H2 2202   8.854   8.945   8.099
  654WAT      O 2203   4.336   4.415   7.508
  654WAT     H1 2204   4.430   4.408   7.540
  654WAT     H2 2205   4.323   4.357   7.427
  655WAT      O 2206   8.678   1.211   0.630
  655WAT     H1 2207   8.593   1.256   0.599
  655WAT     H2 2208   8.707   1.251   0.717
  656WAT      O 2209   0.527   9.818   0.775
  656WAT     H1 2210   0.598   9.749   0.786
  656WAT     H2 2211   0.568   9.909   0.775
  657WAT      O 2212   0.739   4.000   9.534
  657WAT     H1 2213   0.714   4.096   9.546
  657WAT     H2 2214   0.726   3.974   9.438
  658WAT      O 2215   0.851   2.889   8.089
  658WAT     H1 2216   0.864   2.855   7.995
  658WAT     H2 2217   0.783   2.832   8.135
  659WAT      O 2218   8.920   8.278   2.353
  659WAT     H1 2219   8.896   8.182   2.338
  659WAT     H2 2220   8.888   8.307   2.443
  660WAT      O 2221   0.822   7.465   7.632
  660WAT     H1 2222   0.899   7.485   7.571
  660WAT     H2 2223   0.739   7.455   7.578
  661WAT      O 2224   6.385   9.165   3.462
  661WAT     H1 2225   6.400   9.130   3.370
  661WAT     H2 2226   6.401   9.263   3.464
  662WAT      O 2227   0.066   2.550   1.368
  662WAT     H1 2228   0.119   2.475   1.327
  662WAT     H2 2229  -0.025   2.553   1.327
  663WAT      O 2230   4.080   1.514   6.733
  663WAT     H1 2231   4.132   1.586   6.779
  663WAT     H2 2232   4.062   1.541   6.639
  664WAT      O 2233   7.189   8.308   2.526
  664WAT     H1 2234   7.245   8.235   2.565
  664WAT     H2 2235   7.221   8.396   2.561
  665WAT      O 2236   7.562   6.629   3.548
  665WAT     H1 2237   7.615   6.686   3.487
  665WAT     H2 2238   7.485   6.589   3.498
  666WAT      O 2239   6.892   6.738   1.361
  666WAT     H1 2240   6.925   6.716   1.268
  666WAT     H2 2241   6.904   6.835   1.378
  667WAT      O 2242   7.706   1.980   9.253
  667WAT     H1 2243   7.743   1.926   9.177
  667WAT     H2 2244   7.647   2.052   9.216
  668WAT      O 2245   9.765   3.817   4.654
  668WAT     H1 2246   9.736   3.906   4.617
  668WAT     H2 2247   9.688   3.753   4.652
  669WAT      O 2248   7.339   8.898   2.020
  669WAT     H1 2249   7.289   8.967   2.073
  669WAT     H2 2250   7.436   8.919   2.021
  670WAT      O 2251   7.952   7.992   3.404
  670WAT     H1 2252   7.910   7.983   3.313
  670WAT     H2 2253   7.946   8.086   3.435
  671WAT      O 2254   8.638   9.240   6.526
  671WAT     H1 2255   8.729   9.200   6.511
  671WAT     H2 2256   8.644   9.340   6.516
  672WAT      O 2257   4.822   7.888   5.769
  672WAT     H1 2258   4.811   7.798   5.813
  672WAT     H2 2259   4.749   7.949   5.798
  673WAT      O 2260   3.380   6.537   6.643
  673WAT     H1 2261   3.310   6.542   6.571
  673WAT     H2 2262   3.468   6.514   6.602
  674WAT      O 2263   1.283   1.941   7.271
  674WAT     H1 2264   1.228   1.976   7.196
  674WAT     H2 2265   1.228   1.940   7.355
  675WAT      O 2266   5.342   3.038   4.090
  675WAT     H1 2267   5.264   3.082   4.135
  675WAT     H2 2268   5.338   2.939   4.106
  676WAT      O 2269   9.447   9.017   6.277
  676WAT     H1 2270   9.488   9.087   6.334
  676WAT     H2 2271   9.347   9.021   6.286
  677WAT      O 2272   5.433   4.394   3.813
  677WAT     H1 2273   5.475   4.382   3.724
  677WAT     H2 2274   5.434   4.308   3.863
  678WAT      O 2275   7.119   5.983   8.019
  678WAT     H1 2276   7.038   6.008   7.967
  678WAT     H2 2277   7.095   5.914   8.087
  679WAT      O 2278   8.564   7.589   7.014
  679WAT     H1 2279   8.645   7.584   7.072
  679WAT     H2 2280   8.539   7.497   6.983
  680WAT      O 2281   2.468   0.649   3.626
  680WAT     H1 2282   2.426   0.568   3.666
  680WAT     H2 2283   2.565   0.631   3.607
  681WAT      O 2284   7.142   1.898   8.625
  681WAT     H1 2285   7.118   1.955   8.547
  681WAT     H2 2286   7.070   1.905   8.695
  682WAT      O 2287   5.496   4.240   1.476
  682WAT     H1 2288   5.518   4.219   1.381
  682WAT     H2 2289   5.486   4.155   1.527
  683WAT      O 2290   9.460   0.280   7.807
  683WAT     H1 2291   9.438   0.223   7.887
  683WAT     H2 2292   9.557   0.267   7.784
  684WAT      O 2293   7.582   6.397   6.225
  684WAT     H1 2294   7.533   6.480   6.253
  684WAT     H2 2295   7.542   6.362   6.140
  685WAT      O 2296   8.130   7.396   0.938
  685WAT     H1 2297   8.186   7.423   1.017
  685WAT     H2 2298   8.177   7.422   0.854
  686WAT      O 2299   6.301   0.830   9.021
  686WAT     H1 2300   6.212   0.810   8.979
  686WAT     H2 2301   6.357   0.882   8.957
  687WAT      O 2302   0.707   4.544   6.238
  687WAT     H1 2303   0.699   4.587   6.328
  687WAT     H2 2304   0.784   4.584   6.188
  688WAT      O 2305   1.635   3.086   6.319
  688WAT     H1 2306   1.645   3.185   6.329
  688WAT     H2 2307   1.643   3.061   6.222
  689WAT      O 2308   1.451   5.823   2.125
  689WAT     H1 2309   1.474   5.764   2.047
  689WAT     H2 2310   1.459   5.919   2.098
  690WAT      O 2311   5.975   4.225   7.323
  690WAT     H1 2312   6.029   4.142   7.333
  690WAT     H2 2313   6.036   4.304   7.316
  691WAT      O 2314   6.035   2.975   5.793
  691WAT     H1 2315   5.978   2.904   5.836
  691WAT     H2 2316   6.107   2.932   5.739
  692WAT      O 2317   6.377   8.795   2.444
  692WAT     H1 2318   6.401   8.892   2.452
  692WAT     H2 2319   6.296   8.786   2.386
  693WAT      O 2320   2.469   3.212   7.816
  693WAT     H1 2321   2.474   3.259   7.904
  693WAT     H2 2322   2.448   3.116   7.830
  694WAT      O 2323   1.130   0.118   6.098
  694WAT     H1 2324   1.230   0.118   6.092
  694WAT     H2 2325   1.092   0.071   6.018
  695WAT      O 2326   4.061   1.167   1.882
  695WAT     H1 2327   4.150   1.211   1.894
  695WAT     H2 2328   4.058   1.082   1.934
  696WAT      O 2329   9.254   7.309   8.566
  696WAT     H1 2330   9.242   7.331   8.662
  696WAT     H2 2331   9.259   7.209   8.555
  697WAT      O 2332   5.213   5.184   5.671
  697WAT     H1 2333   5.165   5.206   5.586
  697WAT     H2 2334   5.267   5.101   5.659
  698WAT      O 2335   8.788   2.056   8.098
  698WAT     H1 2336   8.773   2.131   8.034
  698WAT     H2 2337   8.796   2.092   8.191
  699WAT      O 2338   4.076   4.058   1.035
  699WAT     H1 2339   4.063   4.155   1.013
  699WAT     H2 2340   4.020   4.035   1.115
  700WAT      O 2341   1.693   2.204   8.654
  700WAT     H1 2342   1.654   2.196   8.562
  700WAT     H2 2343   1.657   2.130   8.711
  701WAT      O 2344   3.967   4.354   3.036
  701WAT     H1 2345   3.884   4.377   3.087
  701WAT     H2 2346   3.977   4.255   3.031
  702WAT      O 2347   8.671   8.566   6.013
  702WAT     H1 2348   8.643   8.566   5.917
  702WAT     H2 2349   8.670   8.473   6.049
  703WAT      O 2350   2.742   8.117   6.730
  703WAT     H1 2351   2.722   8.023   6.759
  703WAT     H2 2352   2.771   8.171   6.808
  704WAT      O 2353   0.527   2.052   4.968
  704WAT     H1 2354   0.440   2.037   4.922
  704WAT     H2 2355   0.516   2.043   5.067
  705WAT      O 2356   0.101   1.820   6.662
  705WAT     H1 2357   0.174   1.774   6.610
  705WAT     H2 2358   0.041   1.751   6.703
  706WAT      O 2359   2.769   2.722   9.130
  706WAT     H1 2360   2.795   2.790   9.198
  706WAT     H2 2361   2.823   2.736   9.047
  707WAT      O 2362   4.124   7.879   3.366
  707WAT     H1 2363   4.135   7.921   3.276
  707WAT     H2 2364   4.132   7.949   3.437
  708WAT      O 2365   6.868   8.111   7.122
  708WAT     H1 2366   6.900   8.041   7.058
  708WAT     H2 2367   6.922   8.106   7.206
  709WAT      O 2368   1.359   2.683   0.621
  709WAT     H1 2369   1.450   2.665   0.583
  709WAT     H2 2370   1.293   2.692   0.546
  710WAT      O 2371   5.791   6.123   3.856
  710WAT     H1 2372   5.868   6.100   3.797
  710WAT     H2 2373   5.817   6.107   3.952
  711WAT      O 2374   9.135   2.410   3.158
  711WAT     H1 2375   9.119   2.318   3.122
  711WAT     H2 2376   9.047   2.454   3.175
  712WAT      O 2377   3.042   2.801   4.520
  712WAT     H1 2378   3.089   2.889   4.521
  712WAT     H2 2379   2.973   2.801   4.447
  713WAT      O 2380   9.558   9.619   5.652
  713WAT     H1 2381   9.516   9.640   5.740
  713WAT     H2 2382   9.495   9.566   5.597
  714WAT      O 2383   8.815   6.940   3.803
  714WAT     H1 2384   8.871   7.000   3.746
  714WAT     H2 2385   8.746   6.994   3.851
  715WAT      O 2386   6.966   6.320   7.616
  715WAT     H1 2387   6.999   6.316   7.522
  715WAT     H2 2388   6.903   6.244   7.634
  716WAT      O 2389   1.467   7.845   1.670
  716WAT     H1 2390   1.558   7.865   1.632
  716WAT     H2 2391   1.402   7.831   1.595
  717WAT      O 2392   1.627   7.933   3.906
  717WAT     H1 2393   1.683   7.851   3.892
  717WAT     H2 2394   1.596   7.967   3.818
  718WAT      O 2395   2.115   3.541   7.666
  718WAT     H1 2396   2.035   3.496   7.624
  718WAT     H2 2397   2.194   3.533   7.605
  719WAT      O 2398   8.384   8.876   8.267
  719WAT     H1 2399   8.322   8.945   8.305
  719WAT     H2 2400   8.441   8.838   8.340
  720WAT      O 2401   5.823   3.713   9.672
  720WAT     H1 2402   5.886   3.636   9.685
  720WAT     H2 2403   5.843   3.785   9.739
  721WAT      O 2404   0.754   4.846   5.052
  721WAT     H1 2405   0.763   4.800   5.140
  721WAT     H2 2406   0.677   4.910   5.055
  722WAT      O 2407   9.058   4.121   8.766
  722WAT     H1 2408   9.102   4.146   8.680
  722WAT     H2 2409   9.007   4.199   8.802
  723WAT      O 2410   1.102   1.581   4.164
  723WAT     H1 2411   1.124   1.610   4.071
  723WAT     H2 2412   1.020   1.629   4.195
  724WAT      O 2413   2.567   9.680   0.314
  724WAT     H1 2414   2.569   9.700   0.216
  724WAT     H2 2415   2.478   9.644   0.339
  725WAT      O 2416   4.948   7.176   7.820
  725WAT     H1 2417   4.935   7.077   7.832
  725WAT     H2 2418   4.927   7.201   7.726
  726WAT      O 2419   3.982   9.747   8.041
  726WAT     H1 2420   3.997   9.660   7.994
  726WAT     H2 2421   4.001   9.823   7.979
  727WAT      O 2422   3.765   2.954   8.622
  727WAT     H1 2423   3.671   2.986   8.630
  727WAT     H2 2424   3.772   2.862   8.661
  728WAT      O 2425   1.859   7.070   6.264
  728WAT     H1 2426   1.858   7.000   6.336
  728WAT     H2 2427   1.931   7.137   6.284
  729WAT      O 2428   3.348   2.653   2.989
  729WAT     H1 2429   3.391   2.735   2.952
  729WAT     H2 2430   3.415   2.603   3.044
  730WAT      O 2431   9.237   7.167   6.087
  730WAT     H1 2432   9.302   7.208   6.151
  730WAT     H2 2433   9.281   7.092   6.038
  731WAT      O 2434   3.860   9.693   8.743
  731WAT     H1 2435   3.842   9.726   8.651
  731WAT     H2 2436   3.854   9.769   8.808
  732WAT      O 2437   6.581   8.941   6.901
  732WAT     H1 2438   6.516   8.942   6.825
  732WAT     H2 2439   6.580   9.029   6.947
  733WAT      O 2440   1.665   2.987   3.440
  733WAT     H1 2441   1.617   3.038   3.512
  733WAT     H2 2442   1.636   2.892   3.441
  734WAT      O 2443   6.087   9.745   7.114
  734WAT     H1 2444   6.004   9.797   7.095
  734WAT     H2 2445   6.166   9.805   7.102
  735WAT      O 2446   7.162   3.286   4.370
  735WAT     H1 2447   7.117   3.376   4.375
  735WAT     H2 2448   7.094   3.217   4.345
  736WAT      O 2449   3.627   8.776   6.676
  736WAT     H1 2450   3.696   8.796   6.745
  736WAT     H2 2451   3.637   8.839   6.599
  737WAT      O 2452   1.177   8.569   8.762
  737WAT     H1 2453   1.191   8.545   8.858
  737WAT     H2 2454   1.087   8.536   8.733
  738WAT      O 2455   4.460   0.273   9.122
  738WAT     H1 2456   4.392   0.328   9.170
  738WAT     H2 2457   4.539   0.258   9.181
  739WAT      O 2458   4.096   0.674   2.243
  739WAT     H1 2459   4.167   0.737   2.211
  739WAT     H2 2460   4.058   0.707   2.329
  740WAT      O 2461   0.125   6.085   0.777
  740WAT     H1 2462   0.045   6.142   0.760
  740WAT     H2 2463   0.144   6.083   0.875
  741WAT      O 2464   1.171   8.991   1.972
  741WAT     H1 2465   1.236   8.979   1.896
  741WAT     H2 2466   1.202   8.936   2.050
  742WAT      O 2467   5.931   2.840   8.780
  742WAT     H1 2468   5.927   2.862   8.682
  742WAT     H2 2469   6.006   2.777   8.796
  743WAT      O 2470   3.959   2.816   0.968
  743WAT     H1 2471   3.892   2.746   0.945
  743WAT     H2 2472   4.051   2.777   0.965
  744WAT      O 2473   6.446   1.308   2.583
  744WAT     H1 2474   6.358   1.342   2.547
  744WAT     H2 2475   6.517   1.322   2.514
  745WAT      O 2476   3.613   4.359   7.077
  745WAT     H1 2477   3.679   4.364   7.002
  745WAT     H2 2478   3.564   4.272   7.072
  746WAT      O 2479   7.224   6.525   0.766
  746WAT     H1 2480   7.126   6.544   0.764
  746WAT     H2 2481   7.253   6.508   0.861
  747WAT      O 2482   3.301   9.064   3.489
  747WAT     H1 2483   3.267   9.057   3.583
  747WAT     H2 2484   3.317   8.972   3.453
  748WAT      O 2485   1.183   2.470   1.737
  748WAT     H1 2486   1.209   2.389   1.790
  748WAT     H2 2487   1.208   2.552   1.788
  749WAT      O 2488   4.822   4.784   4.479
  749WAT     H1 2489   4.807   4.698   4.528
  749WAT     H2 2490   4.885   4.768   4.403
  750WAT      O 2491   2.501   0.076   1.188
  750WAT     H1 2492   2.407   0.108   1.201
  750WAT     H2 2493   2.550   0.140   1.129
  751WAT      O 2494   6.974   6.690   2.389
  751WAT     H1 2495   7.071   6.665   2.389
  751WAT     H2 2496   6.962   6.780   2.430
  752WAT      O 2497   5.442   8.826   7.517
  752WAT     H1 2498   5.380   8.798   7.591
  752WAT     H2 2499   5.527   8.774   7.524
  753WAT      O 2500   2.303   5.448   4.031
  753WAT     H1 2501   2.249   5.393   4.095
  753WAT     H2 2502   2.241   5.496   3.968
  754WAT      O 2503   5.045   1.920   7.639
  754WAT     H1 2504   5.122   1.948   7.695
  754WAT     H2 2505   5.034   1.821   7.644
  755WAT      O 2506   5.989   5.621   7.991
  755WAT     H1 2507   5.898   5.620   8.035
  755WAT     H2 2508   5.985   5.569   7.906
  756WAT      O 2509   5.038   2.142   7.994
  756WAT     H1 2510   5.115   2.103   7.942
  756WAT     H2 2511   5.032   2.096   8.082
  757WAT      O 2512   4.250   1.780   7.197
  757WAT     H1 2513   4.263   1.701   7.257
  757WAT     H2 2514   4.220   1.858   7.252
  758WAT      O 2515   5.190   6.676   2.187
  758WAT     H1 2516   5.240   6.737   2.248
  758WAT     H2 2517   5.207   6.701   2.092
  759WAT      O 2518   3.075   5.834   6.835
  759WAT     H1 2519   3.110   5.873   6.920
  759WAT     H2 2520   3.149   5.791   6.784
  760WAT      O 2521   9.241   7.661   3.896
  760WAT     H1 2522   9.301   7.646   3.817
  760WAT     H2 2523   9.208   7.573   3.930
  761WAT      O 2524   4.253   4.661   7.357
  761WAT     H1 2525   4.239   4.567   7.389
  761WAT     H2 2526   4.315   4.708   7.419
  762WAT      O 2527   2.324   0.434   7.368
  762WAT     H1 2528   2.292   0.517   7.413
  762WAT     H2 2529   2.270   0.356   7.400
  763WAT      O 2530   2.900   3.716   3.764
  763WAT     H1 2531   2.847   3.776   3.703
  763WAT     H2 2532   2.943   3.771   3.835
  764WAT      O 2533   5.474   7.313   4.236
  764WAT     H1 2534   5.508   7.313   4.142
  764WAT     H2 2535   5.509   7.393   4.284
  765WAT      O 2536   6.236   4.543   4.795
  765WAT     H1 2537   6.215   4.603   4.871
  765WAT     H2 2538   6.294   4.591   4.729
  766WAT      O 2539   2.036   7.536   9.092
  766WAT     H1 2540   2.042   7.482   9.008
  766WAT     H2 2541   2.036   7.475   9.171
  767WAT      O 2542   8.434   7.234   4.895
  767WAT     H1 2543   8.492   7.250   4.975
  767WAT     H2 2544   8.470   7.157   4.843
  768WAT      O 2545   4.856   7.768   8.725
  768WAT     H1 2546   4.792   7.723   8.663
  768WAT     H2 2547   4.867   7.713   8.808
  769WAT      O 2548   4.812   5.747   0.372
  769WAT     H1 2549   4.785   5.781   0.282
  769WAT     H2 2550   4.911   5.749   0.380
  770WAT      O 2551   3.344   6.110   9.062
  770WAT     H1 2552   3.258   6.136   9.017
  770WAT     H2 2553   3.332   6.114   9.161
  771WAT      O 2554   2.648   5.668   9.517
  771WAT     H1 2555   2.600   5.710   9.441
  771WAT     H2 2556   2.680   5.738   9.580
  772WAT      O 2557   2.608   7.806   0.646
  772WAT     H1 2558   2.564   7.771   0.563
  772WAT     H2 2559   2.593   7.905   0.652
  773WAT      O 2560   9.239   4.621   7.723
  773WAT     H1 2561   9.189   4.534   7.728
  773WAT     H2 2562   9.187   4.687   7.670
  774WAT      O 2563   0.212   7.826   8.370
  774WAT     H1 2564   0.203   7.766   8.290
  774WAT     H2 2565   0.299   7.875   8.366
  775WAT      O 2566   7.350   0.452   7.699
  775WAT     H1 2567   7.304   0.526   7.747
  775WAT     H2 2568   7.294   0.424   7.620
  776WAT      O 2569   0.900   3.389   7.936
  776WAT     H1 2570   0.879   3.389   7.838
  776WAT     H2 2571   0.886   3.481   7.973
  777WAT      O 2572   1.673   2.965   1.804
  777WAT     H1 2573   1.616   2.884   1.823
  777WAT     H2 2574   1.736   2.944   1.728
  778WAT      O 2575   2.133   6.788   7.415
  778WAT     H1 2576   2.114   6.875   7.460
  778WAT     H2 2577   2.145   6.803   7.317
  779WAT      O 2578   9.318   3.064   5.321
  779WAT     H1 2579   9.360   2.976   5.340
  779WAT     H2 2580   9.352   3.099   5.233
  780WAT      O 2581   1.633   0.766   8.385
  780WAT     H1 2582   1.677   0.832   8.326
  780WAT     H2 2583   1.645   0.794   8.481
  781WAT      O 2584   0.157   4.660   2.860
  781WAT     H1 2585   0.250   4.687   2.884
  781WAT     H2 2586   0.134   4.697   2.770
  782WAT      O 2587   8.961   1.318   9.078
  782WAT     H1 2588   8.971   1.384   9.004
  782WAT     H2 2589   9.001   1.231   9.050
  783WAT      O 2590   3.949   8.521   6.528
  783WAT     H1 2591   3.861   8.485   6.498
  783WAT     H2 2592   3.975   8.477   6.614
  784WAT      O 2593   2.205   4.406   3.774
  784WAT     H1 2594   2.123   4.454   3.744
  784WAT     H2 2595   2.206   4.313   3.737
  785WAT      O 2596   6.252   1.980   1.029
  785WAT     H1 2597   6.238   1.898   0.974
  785WAT     H2 2598   6.166   2.003   1.076
  786WAT      O 2599   0.077   9.216   7.030
  786WAT     H1 2600   0.095   9.307   7.067
  786WAT     H2 2601   0.162   9.164   7.025
  787WAT      O 2602   6.812   2.327   1.818
  787WAT     H1 2603   6.884   2.395   1.810
  787WAT     H2 2604   6.723   2.370   1.806
  788WAT      O 2605   5.599   1.828   8.156
  788WAT     H1 2606   5.597   1.927   8.169
  788WAT     H2 2607   5.683   1.802   8.109
  789WAT      O 2608   9.522   3.405   6.561
  789WAT     H1 2609   9.557   3.322   6.605
  789WAT     H2 2610   9.452   3.446   6.620
  790WAT      O 2611   7.991   5.989   2.545
  790WAT     H1 2612   8.030   5.915   2.598
  790WAT     H2 2613   8.000   6.075   2.595
  791WAT      O 2614   0.415   2.699   0.050
  791WAT     H1 2615   0.394   2.790   0.085
  791WAT     H2 2616   0.434   2.704  -0.048
  792WAT      O 2617   8.011   8.731   4.143
  792WAT     H1 2618   8.020   8.799   4.216
  792WAT     H2 2619   7.960   8.651   4.177
  793WAT      O 2620   5.608   4.476   4.821
  793WAT     H1 2621   5.547   4.419   4.877
  793WAT     H2 2622   5.554   4.547   4.776
  794WAT      O 2623   7.986   1.251   5.822
  794WAT     H1 2624   7.980   1.167   5.877
  794WAT     H2 2625   7.938   1.238   5.736
  795WAT      O 2626   0.826   0.935   0.865
  795WAT     H1 2627   0.919   0.968   0.848
  795WAT     H2 2628   0.800   0.870   0.794
  796WAT      O 2629   6.929   0.808   5.660
  796WAT     H1 2630   6.886   0.813   5.750
  796WAT     H2 2631   6.991   0.729   5.657
  797WAT      O 2632   8.011   4.884   4.088
  797WAT     H1 2633   8.010   4.896   3.989
  797WAT     H2 2634   8.084   4.938   4.128
  798WAT      O 2635   6.026   4.513   2.088
  798WAT     H1 2636   6.057   4.460   2.167
  798WAT     H2 2637   5.976   4.594   2.119
  799WAT      O 2638   0.353   3.564   9.180
  799WAT     H1 2639   0.412   3.634   9.141
  799WAT     H2 2640   0.403   3.477   9.185
  800WAT      O 2641   4.007   0.305   1.369
  800WAT     H1 2642   4.082   0.267   1.314
  800WAT     H2 2643   3.920   0.267   1.337
  801WAT      O 2644   8.479   7.625   9.559
  801WAT     H1 2645   8.448   7.713   9.595
  801WAT     H2 2646   8.542   7.640   9.483
  802WAT      O 2647   5.214   9.563   3.146
  802WAT     H1 2648   5.275   9.514   3.208
  802WAT     H2 2649   5.269   9.618   3.082
  803WAT      O 2650   4.992   5.730   6.517
  803WAT     H1 2651   4.982   5.664   6.591
  803WAT     H2 2652   4.905   5.738   6.468
  804WAT      O 2653   5.709   2.068   9.140
  804WAT     H1 2654   5.746   2.014   9.216
  804WAT     H2 2655   5.751   2.159   9.141
  805WAT      O 2656   4.313   2.718   7.882
  805WAT     H1 2657   4.411   2.714   7.900
  805WAT     H2 2658   4.277   2.626   7.871
  806WAT      O 2659   3.565   3.426   7.647
  806WAT     H1 2660   3.488   3.410   7.709
  806WAT     H2 2661   3.636   3.357   7.664
  807WAT      O 2662   1.425   1.852   5.733
  807WAT     H1 2663   1.488   1.774   5.739
  807WAT     H2 2664   1.349   1.829   5.673
  808WAT      O 2665   2.619   8.785   8.855
  808WAT     H1 2666   2.600   8.855   8.786
  808WAT     H2 2667   2.536   8.767   8.908
  809WAT      O 2668   1.358   0.188   5.587
  809WAT     H1 2669   1.302   0.156   5.663
  809WAT     H2 2670   1.454   0.168   5.606
  810WAT      O 2671   3.554   0.094   4.773
  810WAT     H1 2672   3.650   0.115   4.792
  810WAT     H2 2673   3.547   0.002   4.734
  811WAT      O 2674   3.025   6.802   3.731
  811WAT     H1 2675   3.025   6.898   3.704
  811WAT     H2 2676   3.096   6.786   3.799
  812WAT      O 2677   1.697   4.307   5.368
  812WAT     H1 2678   1.740   4.388   5.407
  812WAT     H2 2679   1.643   4.332   5.288
  813WAT      O 2680   1.555   1.823   0.575
  813WAT     H1 2681   1.459   1.795   0.573
  813WAT     H2 2682   1.595   1.798   0.664
  814WAT      O 2683   3.156   6.479   7.874
  814WAT     H1 2684   3.164   6.527   7.961
  814WAT     H2 2685   3.073   6.508   7.827
  815WAT      O 2686   1.763   0.488   5.621
  815WAT     H1 2687   1.820   0.496   5.702
  815WAT     H2 2688   1.761   0.576   5.572
  816WAT      O 2689   5.201   4.642   9.139
  816WAT     H1 2690   5.156   4.553   9.142
  816WAT     H2 2691   5.196   4.679   9.046
  817WAT      O 2692   6.646   1.963   0.728
  817WAT     H1 2693   6.576   1.973   0.799
  817WAT     H2 2694   6.713   2.037   0.736
  818WAT      O 2695   5.046   5.668   8.728
  818WAT     H1 2696   4.958   5.669   8.775
  818WAT     H2 2697   5.056   5.752   8.675
  819WAT      O 2698   2.453   4.132   7.421
  819WAT     H1 2699   2.358   4.114   7.443
  819WAT     H2 2700   2.474   4.228   7.442
  820WAT      O 2701   0.465   6.665   1.245
  820WAT     H1 2702   0.395   6.607   1.204
  820WAT     H2 2703   0.555   6.622   1.235
  821WAT      O 2704   3.908   7.875   3.949
  821WAT     H1 2705   3.968   7.803   3.913
  821WAT     H2 2706   3.957   7.928   4.019
  822WAT      O 2707   8.909   2.487   0.222
  822WAT     H1 2708   8.878   2.522   0.310
  822WAT     H2 2709   8.922   2.564   0.158
  823WAT      O 2710   7.158   5.395   0.750
  823WAT     H1 2711   7.157   5.316   0.689
  823WAT     H2 2712   7.192   5.475   0.699
  824WAT      O 2713   7.563   4.980   4.114
  824WAT     H1 2714   7.657   4.997   4.142
  824WAT     H2 2715   7.514   5.067   4.106
  825WAT      O 2716   6.893   2.266   3.231
  825WAT     H1 2717   6.949   2.281   3.313
  825WAT     H2 2718   6.801   2.303   3.247
  826WAT      O 2719   2.912   4.004   7.534
  826WAT     H1 2720   2.997   3.985   7.484
  826WAT     H2 2721   2.885   4.099   7.518
  827WAT      O 2722   6.393   0.507   5.054
  827WAT     H1 2723   6.306   0.534   5.095
  827WAT     H2 2724   6.466   0.520   5.120
  828WAT      O 2725   0.296   1.700   9.183
  828WAT     H1 2726   0.298   1.711   9.084
  828WAT     H2 2727   0.330   1.609   9.208
  829WAT      O 2728   6.031   1.322   1.802
  829WAT     H1 2729   6.036   1.420   1.822
  829WAT     H2 2730   6.118   1.292   1.763
  830WAT      O 2731   7.064   1.451   8.367
  830WAT     H1 2732   7.132   1.521   8.388
  830WAT     H2 2733   7.106   1.361   8.372
  831WAT      O 2734   3.291   2.646   1.681
  831WAT     H1 2735   3.387   2.634   1.654
  831WAT     H2 2736   3.239   2.680   1.603
  832WAT      O 2737   9.745   4.744   4.378
  832WAT     H1 2738   9.744   4.760   4.279
  832WAT     H2 2739   9.702   4.821   4.425
  833WAT      O 2740   4.786   8.769   8.997
  833WAT     H1 2741   4.811   8.838   8.928
  833WAT     H2 2742   4.807   8.678   8.962
  834WAT      O 2743   6.418   9.352   8.731
  834WAT     H1 2744   6.492   9.334   8.667
  834WAT     H2 2745   6.436   9.437   8.780
  835WAT      O 2746   7.310   5.230   8.743
  835WAT     H1 2747   7.284   5.283   8.823
  835WAT     H2 2748   7.295   5.133   8.761
  836WAT      O 2749   9.399   4.656   8.867
  836WAT     H1 2750   9.495   4.685   8.867
  836WAT     H2 2751   9.343   4.727   8.824
  837WAT      O 2752   6.890   6.460   3.258
  837WAT     H1 2753   6.830   6.463   3.178
  837WAT     H2 2754   6.926   6.368   3.268
  838WAT      O 2755   4.938   1.920   0.670
  838WAT     H1 2756   4.854   1.951   0.626
  838WAT     H2 2757   4.916   1.850   0.737
  839WAT      O 2758   1.424   7.165   2.783
  839WAT     H1 2759   1.420   7.173   2.684
  839WAT     H2 2760   1.503   7.215   2.818
  840WAT      O 2761   5.088   6.651   8.361
  840WAT     H1 2762   5.135   6.655   8.273
  840WAT     H2 2763   5.039   6.564   8.368
  841WAT      O 2764   8.365   5.408   5.377
  841WAT     H1 2765   8.391   5.312   5.370
  841WAT     H2 2766   8.266   5.417   5.366
  842WAT      O 2767   1.700   0.070   3.803
  842WAT     H1 2768   1.625   0.133   3.782
  842WAT     H2 2769   1.687  -0.015   3.751
  843WAT      O 2770   2.749   3.954   1.811
  843WAT     H1 2771   2.807   3.976   1.889
  843WAT     H2 2772   2.659   3.997   1.823
  844WAT      O 2773   8.858   2.829   8.561
  844WAT     H1 2774   8.876   2.927   8.548
  844WAT     H2 2775   8.883   2.779   8.478
  845WAT      O 2776   0.650   1.994   5.311
  845WAT     H1 2777   0.707   2.067   5.349
  845WAT     H2 2778   0.564   2.034   5.277
  846WAT      O 2779   9.621   0.658   4.091
  846WAT     H1 2780   9.708   0.618   4.062
  846WAT     H2 2781   9.637   0.748   4.131
  847WAT      O 2782   6.374   3.211   1.497
  847WAT     H1 2783   6.393   3.306   1.472
  847WAT     H2 2784   6.282   3.186   1.465
  848WAT      O 2785   3.608   5.518   6.013
  848WAT     H1 2786   3.646   5.581   5.947
  848WAT     H2 2787   3.662   5.521   6.098
  849WAT      O 2788   5.249   4.100   9.453
  849WAT     H1 2789   5.269   4.196   9.472
  849WAT     H2 2790   5.200   4.093   9.366
  850WAT      O 2791   6.137   4.279   2.736
  850WAT     H1 2792   6.192   4.330   2.802
  850WAT     H2 2793   6.180   4.191   2.718
  851WAT      O 2794   1.415   9.474   6.097
  851WAT     H1 2795   1.492   9.536   6.080
  851WAT     H2 2796   1.342   9.525   6.143
  852WAT      O 2797   7.853   8.816   6.469
  852WAT     H1 2798   7.832   8.719   6.455
  852WAT     H2 2799   7.888   8.856   6.384
  853WAT      O 2800   2.120   5.624   0.199
  853WAT     H1 2801   2.219   5.616   0.187
  853WAT     H2 2802   2.075   5.548   0.153
  854WAT      O 2803   9.372   3.391   2.294
  854WAT     H1 2804   9.461   3.374   2.338
  854WAT     H2 2805   9.333   3.303   2.265
  855WAT      O 2806   3.116   1.314   6.209
  855WAT     H1 2807   3.100   1.270   6.121
  855WAT     H2 2808   3.155   1.247   6.273
  856WAT      O 2809   5.868   9.681   1.428
  856WAT     H1 2810   5.920   9.747   1.373
  856WAT     H2 2811   5.929   9.606   1.455
  857WAT      O 2812   9.711   0.204   6.573
  857WAT     H1 2813   9.659   0.288   6.553
  857WAT     H2 2814   9.794   0.228   6.622
  858WAT      O 2815   0.640   1.131   0.262
  858WAT     H1 2816   0.690   1.130   0.348
  858WAT     H2 2817   0.689   1.187   0.195
  859WAT      O 2818   9.318   6.752   8.702
  859WAT     H1 2819   9.249   6.690   8.739
  859WAT     H2 2820   9.309   6.756   8.603
  860WAT      O 2821   9.392   5.053   1.014
  860WAT     H1 2822   9.367   5.018   0.924
  860WAT     H2 2823   9.407   5.152   1.008
  861WAT      O 2824   1.679   4.394   4.956
  861WAT     H1 2825   1.732   4.425   5.034
  861WAT     H2 2826   1.644   4.473   4.905
  862WAT      O 2827   3.204   0.678   4.189
  862WAT     H1 2828   3.249   0.722   4.111
  862WAT     H2 2829   3.129   0.621   4.157
  863WAT      O 2830   3.987   1.747   0.568
  863WAT     H1 2831   3.979   1.807   0.488
  863WAT     H2 2832   4.036   1.664   0.542
  864WAT      O 2833   1.924   6.931   8.303
  864WAT     H1 2834   1.932   7.014   8.248
  864WAT     H2 2835   1.831   6.896   8.298
  865WAT      O 2836   6.016   8.372   3.962
  865WAT     H1 2837   5.916   8.377   3.956
  865WAT     H2 2838   6.055   8.464   3.963
  866WAT      O 2839   1.912   7.825   3.664
  866WAT     H1 2840   1.972   7.831   3.584
  866WAT     H2 2841   1.818   7.846   3.637
  867WAT      O 2842   1.592   4.659   0.029
  867WAT     H1 2843   1.578   4.563   0.004
  867WAT     H2 2844   1.595   4.715  -0.054
  868WAT      O 2845   8.052   4.490   0.861
  868WAT     H1 2846   8.077   4.587   0.869
  868WAT     H2 2847   8.018   4.472   0.769
  869WAT      O 2848   8.098   7.801   6.006
  869WAT     H1 2849   8.043   7.757   6.077
  869WAT     H2 2850   8.194   7.777   6.019
  870WAT      O 2851   2.615   5.758   8.825
  870WAT     H1 2852   2.647   5.782   8.733
  870WAT     H2 2853   2.673   5.685   8.862
  871WAT      O 2854   7.495   5.404   6.339
  871WAT     H1 2855   7.452   5.314   6.328
  871WAT     H2 2856   7.593   5.392   6.353
  872WAT      O 2857   7.667   7.101   3.957
  872WAT     H1 2858   7.765   7.115   3.947
  872WAT     H2 2859   7.620   7.189   3.957
  873WAT      O 2860   4.493   8.906   7.807
  873WAT     H1 2861   4.530   8.856   7.729
  873WAT     H2 2862   4.534   8.872   7.891
  874WAT      O 2863   0.313   7.082   2.738
  874WAT     H1 2864   0.255   7.158   2.708
  874WAT     H2 2865   0.326   7.018   2.662
  875WAT      O 2866   2.167   0.666   6.319
  875WAT     H1 2867   2.151   0.712   6.407
  875WAT     H2 2868   2.228   0.588   6.334
  876WAT      O 2869   2.979   9.392   3.567
  876WAT     H1 2870   2.965   9.320   3.635
  876WAT     H2 2871   2.969   9.481   3.610
  877WAT      O 2872   9.296   9.821   7.240
  877WAT     H1 2873   9.310   9.897   7.177
  877WAT     H2 2874   9.384   9.792   7.278
  878WAT      O 2875   8.373   8.822   4.707
  878WAT     H1 2876   8.406   8.820   4.612
  878WAT     H2 2877   8.314   8.902   4.719
  879WAT      O 2878   6.185   9.547   8.003
  879WAT     H1 2879   6.212   9.453   7.984
  879WAT     H2 2880   6.176   9.561   8.101
  880WAT      O 2881   3.171   4.388   7.368
  880WAT     H1 2882   3.214   4.473   7.338
  880WAT     H2 2883   3.132   4.341   7.290
  881WAT      O 2884   0.245   8.204   0.464
  881WAT     H1 2885   0.225   8.107   0.477
  881WAT     H2 2886   0.164   8.250   0.428
  882WAT      O 2887   1.172   5.406   3.595
  882WAT     H1 2888   1.185   5.322   3.647
  882WAT     H2 2889   1.259   5.432   3.551
  883WAT      O 2890   3.774   6.656   0.094
  883WAT     H1 2891   3.685   6.673   0.137
  883WAT     H2 2892   3.761   6.614   0.005
  884WAT      O 2893   9.854   1.532   5.788
  884WAT     H1 2894   9.875   1.440   5.757
  884WAT     H2 2895   9.769   1.564   5.745
  885WAT      O 2896   9.603   3.299   4.335
  885WAT     H1 2897   9.507   3.300   4.362
  885WAT     H2 2898   9.656   3.352   4.401
  886WAT      O 2899   1.940   0.687   8.963
  886WAT     H1 2900   2.003   0.674   9.040
  886WAT     H2 2901   1.966   0.625   8.888
  887WAT      O 2902   7.149   4.078   6.742
  887WAT     H1 2903   7.176   4.153   6.681
  887WAT     H2 2904   7.075   4.109   6.801
  888WAT      O 2905   3.234   1.568   6.461
  888WAT     H1 2906   3.259   1.622   6.541
  888WAT     H2 2907   3.169   1.497   6.487
  889WAT      O 2908   6.228   5.628   8.880
  889WAT     H1 2909   6.146   5.631   8.937
  889WAT     H2 2910   6.217   5.557   8.810
  890WAT      O 2911   4.045   6.346   7.283
  890WAT     H1 2912   4.006   6.438   7.282
  890WAT     H2 2913   4.135   6.348   7.326
  891WAT      O 2914   4.042   3.914   7.046
  891WAT     H1 2915   3.998   3.825   7.059
  891WAT     H2 2916   4.074   3.948   7.134
  892WAT      O 2917   7.148   4.467   9.666
  892WAT     H1 2918   7.243   4.457   9.638
  892WAT     H2 2919   7.138   4.552   9.719
  893WAT      O 2920   4.505   1.811   9.497
  893WAT     H1 2921   4.475   1.725   9.455
  893WAT     H2 2922   4.575   1.792   9.566
  894WAT      O 2923   5.496   8.100   8.292
  894WAT     H1 2924   5.453   8.009   8.284
  894WAT     H2 2925   5.584   8.098   8.246
  895WAT      O 2926   2.800   6.994   7.711
  895WAT     H1 2927   2.701   6.985   7.696
  895WAT     H2 2928   2.848   6.974   7.625
  896WAT      O 2929   6.426   3.359   9.328
  896WAT     H1 2930   6.418   3.453   9.362
  896WAT     H2 2931   6.522   3.338   9.309
  897WAT      O 2932   0.031   1.891   8.843
  897WAT     H1 2933   0.051   1.945   8.761
  897WAT     H2 2934  -0.051   1.837   8.828
  898WAT      O 2935   5.708   0.969   1.381
  898WAT     H1 2936   5.641   0.942   1.312
  898WAT     H2 2937   5.681   1.055   1.423
  899WAT      O 2938   0.763   6.270   3.679
  899WAT     H1 2939   0.847   6.298   3.724
  899WAT     H2 2940   0.784   6.236   3.587
  900WAT      O 2941   2.872   8.377   8.992
  900WAT     H1 2942   2.901   8.350   9.084
  900WAT     H2 2943   2.906   8.311   8.925
  901WAT      O 2944   6.750   8.311   7.472
  901WAT     H1 2945   6.764   8.330   7.570
  901WAT     H2 2946   6.654   8.292   7.455
  902WAT      O 2947   8.860   1.169   5.578
  902WAT     H1 2948   8.924   1.106   5.622
  902WAT     H2 2949   8.899   1.202   5.492
  903WAT      O 2950   6.503   8.553   2.453
  903WAT     H1 2951   6.590   8.543   2.502
  903WAT     H2 2952   6.479   8.650   2.448
  904WAT      O 2953   1.674   4.723   3.609
  904WAT     H1 2954   1.615   4.657   3.561
  904WAT     H2 2955   1.619   4.801   3.638
  905WAT      O 2956   2.264   8.177   4.695
  905WAT     H1 2957   2.362   8.170   4.674
  905WAT     H2 2958   2.218   8.093   4.665
  906WAT      O 2959   7.306   3.473   8.499
  906WAT     H1 2960   7.230   3.432   8.449
  906WAT     H2 2961   7.371   3.512   8.434
  907WAT      O 2962   3.050   7.606   5.018
  907WAT     H1 2963   2.971   7.658   4.986
  907WAT     H2 2964   3.115   7.669   5.062
  908WAT      O 2965   0.043   7.631   5.885
  908WAT     H1 2966   0.017   7.686   5.965
  908WAT     H2 2967   0.126   7.670   5.844
  909WAT      O 2968   9.787   8.637   9.168
  909WAT     H1 2969   9.711   8.583   9.133
  909WAT     H2 2970   9.754   8.728   9.192
  910WAT      O 2971   6.166   4.339   4.398
  910WAT     H1 2972   6.190   4.304   4.488
  910WAT     H2 2973   6.215   4.287   4.327
  911WAT      O 2974   1.898   2.700   4.399
  911WAT     H1 2975   1.807   2.735   4.422
  911WAT     H2 2976   1.890   2.606   4.366
  912WAT      O 2977   0.537   7.898   2.757
  912WAT     H1 2978   0.635   7.885   2.773
  912WAT     H2 2979   0.485   7.841   2.821
  913WAT      O 2980   7.882   4.335   0.324
  913WAT     H1 2981   7.840   4.247   0.302
  913WAT     H2 2982   7.934   4.327   0.409
  914WAT      O 2983   0.232   8.235   5.530
  914WAT     H1 2984   0.229   8.295   5.610
  914WAT     H2 2985   0.144   8.187   5.521
  915WAT      O 2986   6.311   1.064   5.244
  915WAT     H1 2987   6.305   0.993   5.315
  915WAT     H2 2988   6.333   1.021   5.156
  916WAT      O 2989   7.230   1.924   9.198
  916WAT     H1 2990   7.322   1.893   9.221
  916WAT     H2 2991   7.164   1.854   9.224
  917WAT      O 2992   0.593   5.579   0.562
  917WAT     H1 2993   0.671   5.578   0.500
  917WAT     H2 2994   0.616   5.529   0.646
  918WAT      O 2995   0.091   4.265   1.150
  918WAT     H1 2996   0.083   4.364   1.145
  918WAT     H2 2997   0.056   4.233   1.238
  919WAT      O 2998   7.313   6.005   6.179
  919WAT     H1 2999   7.268   5.937   6.237
  919WAT     H2 3000   7.358   6.073   6.237
  920WAT      O 3001   9.614   4.164   5.450
  920WAT     H1 3002   9.671   4.229   5.501
  920WAT     H2 3003   9.540   4.132   5.509
  921WAT      O 3004   5.796   2.113   6.046
  921WAT     H1 3005   5.805   2.033   6.106
  921WAT     H2 3006   5.743   2.184   6.093
  922WAT      O 3007   5.509   5.715   7.959
  922WAT     H1 3008   5.425   5.714   8.014
  922WAT     H2 3009   5.495   5.772   7.878
  923WAT      O 3010   9.665   7.589   2.116
  923WAT     H1 3011   9.622   7.635   2.038
  923WAT     H2 3012   9.748   7.639   2.142
  924WAT      O 3013   2.824   1.355   9.542
  924WAT     H1 3014   2.813   1.454   9.540
  924WAT     H2 3015   2.909   1.332   9.590
  925WAT      O 3016   9.428   4.841   1.855
  925WAT     H1 3017   9.381   4.929   1.848
  925WAT     H2 3018   9.360   4.767   1.854
  926WAT      O 3019   9.212   7.992   5.179
  926WAT     H1 3020   9.170   7.911   5.138
  926WAT     H2 3021   9.281   7.963   5.246
  927WAT      O 3022   2.046   9.088   7.649
  927WAT     H1 3023   1.980   9.023   7.689
  927WAT     H2 3024   2.111   9.116   7.719
  928WAT      O 3025   9.790   6.894   5.145
  928WAT     H1 3026   9.801   6.963   5.072
  928WAT     H2 3027   9.834   6.927   5.228
  929WAT      O 3028   3.587   2.698   7.402
  929WAT     H1 3029   3.520   2.767   7.430
  929WAT     H2 3030   3.575   2.616   7.458
  930WAT      O 3031   8.730   2.675   0.912
  930WAT     H1 3032   8.778   2.752   0.953
  930WAT     H2 3033   8.665   2.708   0.843
  931WAT      O 3034   9.172   2.403   1.812
  931WAT     H1 3035   9.072   2.414   1.811
  931WAT     H2 3036   9.195   2.317   1.857
  932WAT      O 3037   3.225   8.294   3.262
  932WAT     H1 3038   3.212   8.315   3.359
  932WAT     H2 3039   3.254   8.199   3.252
  933WAT      O 3040   2.448   6.507   7.543
  933WAT     H1 3041   2.491   6.417   7.538
  933WAT     H2 3042   2.349   6.495   7.550
  934WAT      O 3043   1.868   2.964   9.127
  934WAT     H1 3044   1.827   3.030   9.063
  934WAT     H2 3045   1.958   2.937   9.092
  935WAT      O 3046   5.730   8.665   6.725
  935WAT     H1 3047   5.724   8.761   6.755
  935WAT     H2 3048   5.825   8.637   6.720
  936WAT      O 3049   5.607   6.565   7.349
  936WAT     H1 3050   5.664   6.507   7.408
  936WAT     H2 3051   5.665   6.631   7.302
  937WAT      O 3052   4.448   6.108   0.058
  937WAT     H1 3053   4.397   6.031   0.020
  937WAT     H2 3054   4.491   6.160  -0.017
  938WAT      O 3055   0.173   6.207   1.781
  938WAT     H1 3056   0.141   6.295   1.816
  938WAT     H2 3057   0.105   6.136   1.801
  939WAT      O 3058   1.364   9.667   1.503
  939WAT     H1 3059   1.420   9.734   1.551
  939WAT     H2 3060   1.339   9.593   1.566
  940WAT      O 3061   8.093   7.591   5.684
  940WAT     H1 3062   8.072   7.679   5.727
  940WAT     H2 3063   8.033   7.577   5.606
  941WAT      O 3064   4.253   6.595   7.274
  941WAT     H1 3065   4.292   6.684   7.247
  941WAT     H2 3066   4.153   6.601   7.272
  942WAT      O 3067   5.712   6.460   6.802
  942WAT     H1 3068   5.648   6.507   6.862
  942WAT     H2 3069   5.697   6.489   6.708
  943WAT      O 3070   7.624   2.832   7.224
  943WAT     H1 3071   7.555   2.763   7.245
  943WAT     H2 3072   7.622   2.903   7.294
  944WAT      O 3073   9.582   5.651   4.051
  944WAT     H1 3074   9.515   5.725   4.064
  944WAT     H2 3075   9.573   5.584   4.124
  945WAT      O 3076   3.788   7.305   1.098
  945WAT     H1 3077   3.801   7.233   1.030
  945WAT     H2 3078   3.762   7.264   1.185
  946WAT      O 3079   5.038   7.606   7.716
  946WAT     H1 3080   5.014   7.544   7.790
  946WAT     H2 3081   5.103   7.674   7.749
  947WAT      O 3082   8.703   1.721   5.163
  947WAT     H1 3083   8.790   1.673   5.178
  947WAT     H2 3084   8.682   1.776   5.244
  948WAT      O 3085   7.200   3.326   6.564
  948WAT     H1 3086   7.294   3.295   6.579
  948WAT     H2 3087   7.164   3.284   6.481
  949WAT      O 3088   4.797   2.359   1.806
  949WAT     H1 3089   4.787   2.330   1.711
  949WAT     H2 3090   4.829   2.454   1.808
  950WAT      O 3091   0.418   5.819   6.609
  950WAT     H1 3092   0.468   5.741   6.646
  950WAT     H2 3093   0.477   5.899   6.608
  951WAT      O 3094   6.289   5.459   7.118
  951WAT     H1 3095   6.212   5.484   7.059
  951WAT     H2 3096   6.350   5.537   7.128
  952WAT      O 3097   8.752   9.344   6.797
  952WAT     H1 3098   8.783   9.439   6.807
  952WAT     H2 3099   8.793   9.288   6.869
  953WAT      O 3100   3.802   3.868   5.422
  953WAT     H1 3101   3.857   3.951   5.423
  953WAT     H2 3102   3.707   3.891   5.441
  954WAT      O 3103   8.769   8.928   3.727
  954WAT     H1 3104   8.704   8.852   3.723
  954WAT     H2 3105   8.780   8.957   3.823
  955WAT      O 3106   0.632   3.049   1.181
  955WAT     H1 3107   0.554   2.996   1.147
  955WAT     H2 3108   0.600   3.118   1.245
  956WAT      O 3109   0.356   6.213   9.580
  956WAT     H1 3110   0.369   6.235   9.677
  956WAT     H2 3111   0.308   6.289   9.536
  957WAT      O 3112   5.516   9.553   8.894
  957WAT     H1 3113   5.535   9.639   8.941
  957WAT     H2 3114   5.603   9.507   8.873
  958WAT      O 3115   9.354   6.190   7.518
  958WAT     H1 3116   9.364   6.252   7.441
  958WAT     H2 3117   9.321   6.101   7.485
  959WAT      O 3118   2.384   7.146   3.281
  959WAT     H1 3119   2.345   7.136   3.190
  959WAT     H2 3120   2.317   7.117   3.350
  960WAT      O 3121   6.136   3.794   0.364
  960WAT     H1 3122   6.090   3.881   0.347
  960WAT     H2 3123   6.123   3.733   0.286
  961WAT      O 3124   7.751   8.113   8.066
  961WAT     H1 3125   7.753   8.128   8.165
  961WAT     H2 3126   7.774   8.018   8.047
  962WAT      O 3127   5.444   8.041   9.876
  962WAT     H1 3128   5.447   8.072   9.972
  962WAT     H2 3129   5.462   8.118   9.816
  963WAT      O 3130   4.820   3.097   9.107
  963WAT     H1 3131   4.846   3.001   9.096
  963WAT     H2 3132   4.889   3.144   9.162
  964WAT      O 3133   6.696   7.302   1.043
  964WAT     H1 3134   6.633   7.225   1.056
  964WAT     H2 3135   6.676   7.373   1.110
  965WAT      O 3136   8.838   2.475   3.178
  965WAT     H1 3137   8.818   2.383   3.211
  965WAT     H2 3138   8.867   2.532   3.255
  966WAT      O 3139   5.424   4.152   0.781
  966WAT     H1 3140   5.361   4.215   0.826
  966WAT     H2 3141   5.482   4.203   0.717
  967WAT      O 3142   9.810   0.707   3.409
  967WAT     H1 3143   9.799   0.785   3.470
  967WAT     H2 3144   9.907   0.691   3.393
  968WAT      O 3145   0.335   9.437   7.770
  968WAT     H1 3146   0.246   9.412   7.731
  968WAT     H2 3147   0.404   9.371   7.740
  969WAT      O 3148   0.108   0.617   8.480
  969WAT     H1 3149   0.174   0.646   8.549
  969WAT     H2 3150   0.145   0.638   8.389
  970WAT      O 3151   2.585   4.443   9.203
  970WAT     H1 3152   2.564   4.532   9.162
  970WAT     H2 3153   2.653   4.396   9.147
  971WAT      O 3154   1.549   1.567   4.496
  971WAT     H1 3155   1.491   1.640   4.459
  971WAT     H2 3156   1.542   1.487   4.436
  972WAT      O 3157   7.206   0.511   1.089
  972WAT     H1 3158   7.237   0.550   1.003
  972WAT     H2 3159   7.162   0.423   1.072
  973WAT      O 3160   8.645   2.071   1.230
  973WAT     H1 3161   8.713   2.145   1.232
  973WAT     H2 3162   8.566   2.098   1.284
  974WAT      O 3163   4.645   4.844   2.701
  974WAT     H1 3164   4.723   4.817   2.757
  974WAT     H2 3165   4.568   4.782   2.718
  975WAT      O 3166   1.315   5.188   2.041
  975WAT     H1 3167   1.384   5.120   2.016
  975WAT     H2 3168   1.322   5.210   2.138
  976WAT      O 3169   6.549   6.194   5.227
  976WAT     H1 3170   6.456   6.212   5.259
  976WAT     H2 3171   6.599   6.142   5.297
  977WAT      O 3172   2.703   4.944   3.710
  977WAT     H1 3173   2.722   4.920   3.805
  977WAT     H2 3174   2.768   5.013   3.679
  978WAT      O 3175   0.132   3.471   4.156
  978WAT     H1 3176   0.050   3.424   4.124
  978WAT     H2 3177   0.146   3.450   4.253
  979WAT      O 3178   7.306   9.745   9.367
  979WAT     H1 3179   7.253   9.815   9.320
  979WAT     H2 3180   7.371   9.789   9.429
  980WAT      O 3181   9.635   9.651   2.893
  980WAT     H1 3182   9.698   9.705   2.949
  980WAT     H2 3183   9.591   9.581   2.951
  981WAT      O 3184   8.542   2.553   7.681
  981WAT     H1 3185   8.514   2.462   7.714
  981WAT     H2 3186   8.598   2.542   7.598
  982WAT      O 3187   0.827   3.377   6.063
  982WAT     H1 3188   0.733   3.357   6.035
  982WAT     H2 3189   0.827   3.433   6.145
  983WAT      O 3190   2.851   2.290   7.720
  983WAT     H1 3191   2.811   2.282   7.628
  983WAT     H2 3192   2.915   2.215   7.736
  984WAT      O 3193   8.506   8.512   0.915
  984WAT     H1 3194   8.585   8.558   0.875
  984WAT     H2 3195   8.512   8.413   0.897
  985WAT      O 3196   4.059   5.866   7.464
  985WAT     H1 3197   3.989   5.887   7.396
  985WAT     H2 3198   4.081   5.769   7.460
  986WAT      O 3199   8.776   1.592   4.556
  986WAT     H1 3200   8.786   1.529   4.479
  986WAT     H2 3201   8.713   1.554   4.623
  987WAT      O 3202   8.051   2.088   5.348
  987WAT     H1 3203   8.066   2.183   5.319
  987WAT     H2 3204   8.017   2.035   5.270
  988WAT      O 3205   4.257   5.160   0.492
  988WAT     H1 3206   4.291   5.126   0.580
  988WAT     H2 3207   4.292   5.252   0.476
  989WAT      O 3208   2.621   6.610   6.860
  989WAT     H1 3209   2.607   6.605   6.959
  989WAT     H2 3210   2.718   6.602   6.839
  990WAT      O 3211   5.696   0.629   5.911
  990WAT     H1 3212   5.785   0.634   5.865
  990WAT     H2 3213   5.674   0.718   5.951
  991WAT      O 3214   7.689   1.381   8.032
  991WAT     H1 3215   7.772   1.350   7.986
  991WAT     H2 3216   7.702   1.474   8.066
  992WAT      O 3217   3.303   1.949   8.224
  992WAT     H1 3218   3.376   1.971   8.161
  992WAT     H2 3219   3.253   1.869   8.190
  993WAT      O 3220   1.039   1.743   4.538
  993WAT     H1 3221   0.973   1.735   4.612
  993WAT     H2 3222   0.991   1.753   4.451
  994WAT      O 3223   8.758   9.331   7.598
  994WAT     H1 3224   8.714   9.414   7.567
  994WAT     H2 3225   8.841   9.314   7.544
  995WAT      O 3226   1.984   2.227   5.819
  995WAT     H1 3227   1.931   2.307   5.847
  995WAT     H2 3228   2.065   2.257   5.768
  996WAT      O 3229   6.314   0.780   1.943
  996WAT     H1 3230   6.408   0.815   1.943
  996WAT     H2 3231   6.297   0.726   2.025
  997WAT      O 3232   0.959   3.716   4.006
  997WAT     H1 3233   0.988   3.629   4.047
  997WAT     H2 3234   0.875   3.701   3.954
  998WAT      O 3235   3.394   3.504   1.915
  998WAT     H1 3236   3.455   3.444   1.863
  998WAT     H2 3237   3.323   3.540   1.854
  999WAT      O 3238   4.458   3.377   7.094
  999WAT     H1 3239   4.417   3.319   7.165
  999WAT     H2 3240   4.543   3.336   7.063
 1000WAT      O 3241   8.275   7.220   7.373
 1000WAT     H1 3242   8.336   7.183   7.303
 1000WAT     H2 3243   8.222   7.295   7.334
 1001WAT      O 3244   5.532   8.523   6.862
 1001WAT     H1 3245   5.604   8.573   6.814
 1001WAT     H2 3246   5.468   8.484   6.796
 1002WAT      O 3247   2.110   7.779   5.953
 1002WAT     H1 3248   2.172   7.844   5.909
 1002WAT     H2 3249   2.048   7.740   5.885
 1003WAT      O 3250   2.847   4.389   0.853
 1003WAT     H1 3251   2.852   4.289   0.853
 1003WAT     H2 3252   2.803   4.420   0.769
 1004WAT      O 3253   2.760   4.442   7.245
 1004WAT     H1 3254   2.812   4.525   7.265
 1004WAT     H2 3255   2.720   4.450   7.154
 1005WAT      O 3256   9.096   2.338   8.247
 1005WAT     H1 3257   8.998   2.355   8.250
 1005WAT     H2 3258   9.115   2.244   8.278
 1006WAT      O 3259   1.792   9.552   8.820
 1006WAT     H1 3260   1.757   9.550   8.726
 1006WAT     H2 3261   1.877   9.500   8.824
 1007WAT      O 3262   4.736   5.792   0.621
 1007WAT     H1 3263   4.750   5.809   0.523
 1007WAT     H2 3264   4.637   5.786   0.640
 1008WAT      O 3265   4.584   9.658   8.092
 1008WAT     H1 3266   4.654   9.723   8.121
 1008WAT     H2 3267   4.555   9.604   8.171
 1009WAT      O 3268   0.937   6.681   0.535
 1009WAT     H1 3269   0.975   6.596   0.497
 1009WAT     H2 3270   0.966   6.759   0.479
 1010WAT      O 3271   8.164   7.774   6.541
 1010WAT     H1 3272   8.154   7.873   6.544
 1010WAT     H2 3273   8.086   7.731   6.587
 1011WAT      O 3274   6.647   3.111   6.712
 1011WAT     H1 3275   6.666   3.019   6.678
 1011WAT     H2 3276   6.716   3.174   6.678
 1012WAT      O 3277   5.561   0.476   3.710
 1012WAT     H1 3278   5.506   0.559   3.707
 1012WAT     H2 3279   5.500   0.396   3.714
 1013WAT      O 3280   4.800   9.828   8.153
 1013WAT     H1 3281   4.807   9.913   8.206
 1013WAT     H2 3282   4.866   9.762   8.187
 1014WAT      O 3283   4.654   2.523   5.056
 1014WAT     H1 3284   4.678   2.595   4.991
 1014WAT     H2 3285   4.570   2.548   5.104
 1015WAT      O 3286   6.295   6.360   7.753
 1015WAT     H1 3287   6.326   6.347   7.659
 1015WAT     H2 3288   6.307   6.456   7.778
 1016WAT      O 3289   8.589   4.942   2.156
 1016WAT     H1 3290   8.543   4.906   2.237
 1016WAT     H2 3291   8.679   4.977   2.182
 1017WAT      O 3292   8.278   3.246   9.869
 1017WAT     H1 3293   8.198   3.193   9.896
 1017WAT     H2 3294   8.262   3.343   9.890
 1018WAT      O 3295   4.421   9.097   1.256
 1018WAT     H1 3296   4.473   9.020   1.220
 1018WAT     H2 3297   4.483   9.174   1.273
 1019WAT      O 3298   9.818   8.250   0.570
 1019WAT     H1 3299   9.751   8.178   0.553
 1019WAT     H2 3300   9.857   8.281   0.483
 1020WAT      O 3301   0.859   2.276   2.338
 1020WAT     H1 3302   0.901   2.202   2.285
 1020WAT     H2 3303   0.922   2.308   2.408
 1021WAT      O 3304   3.218   0.198   8.253
 1021WAT     H1 3305   3.121   0.203   8.230
 1021WAT     H2 3306   3.258   0.289   8.249
 1022WAT      O 3307   6.246   3.987   7.502
 1022WAT     H1 3308   6.324   4.049   7.510
 1022WAT     H2 3309   6.215   3.959   7.593
 1023WAT      O 3310   3.732   6.445   6.911
 1023WAT     H1 3311   3.770   6.361   6.873
 1023WAT     H2 3312   3.714   6.432   7.008
 1024WAT      O 3313   6.838   3.002   8.499
 1024WAT     H1 3314   6.825   3.059   8.580
 1024WAT     H2 3315   6.786   2.917   8.509
 1025WAT      O 3316   2.935   7.537   7.887
 1025WAT     H1 3317   3.022   7.532   7.936
 1025WAT     H2 3318   2.951   7.535   7.789
 1026WAT      O 3319   1.744   2.632   3.618
 1026WAT     H1 3320   1.763   2.580   3.534
 1026WAT     H2 3321   1.791   2.721   3.612
 1027WAT      O 3322   8.685   2.497   4.337
 1027WAT     H1 3323   8.704   2.542   4.249
 1027WAT     H2 3324   8.655   2.566   4.403
 1028WAT      O 3325   4.497   8.850   1.976
 1028WAT     H1 3326   4.584   8.853   2.026
 1028WAT     H2 3327   4.483   8.759   1.939
 1029WAT      O 3328   3.562   6.014   4.968
 1029WAT     H1 3329   3.565   5.923   5.010
 1029WAT     H2 3330   3.542   6.006   4.871
 1030WAT      O 3331   4.760   5.640   7.975
 1030WAT     H1 3332   4.785   5.588   7.894
 1030WAT     H2 3333   4.814   5.607   8.053
 1031WAT      O 3334   4.285   2.099   5.327
 1031WAT     H1 3335   4.380   2.100   5.356
 1031WAT     H2 3336   4.234   2.170   5.375
 1032WAT      O 3337   2.668   0.157   9.781
 1032WAT     H1 3338   2.617   0.096   9.720
 1032WAT     H2 3339   2.754   0.113   9.809
 1033WAT      O 3340   1.748   2.671   9.362
 1033WAT     H1 3341   1.826   2.640   9.308
 1033WAT     H2 3342   1.726   2.765   9.338
 1034WAT      O 3343   1.793   0.243   7.334
 1034WAT     H1 3344   1.774   0.171   7.401
 1034WAT     H2 3345   1.879   0.224   7.287
 1035WAT      O 3346   1.137   0.172   3.864
 1035WAT     H1 3347   1.176   0.159   3.773
 1035WAT     H2 3348   1.067   0.102   3.880
 1036WAT      O 3349   9.049   8.423   8.084
 1036WAT     H1 3350   9.005   8.496   8.136
 1036WAT     H2 3351   9.147   8.423   8.102
 1037WAT      O 3352   6.912   3.805   1.318
 1037WAT     H1 3353   6.841   3.763   1.262
 1037WAT     H2 3354   6.893   3.903   1.329
 1038WAT      O 3355   2.590   9.349   9.206
 1038WAT     H1 3356   2.606   9.359   9.304
 1038WAT     H2 3357   2.493   9.363   9.186
 1039WAT      O 3358   1.346   6.882   3.423
 1039WAT     H1 3359   1.285   6.894   3.502
 1039WAT     H2 3360   1.305   6.817   3.359
 1040WAT      O 3361   3.226   7.648   0.014
 1040WAT     H1 3362   3.214   7.555   0.048
 1040WAT     H2 3363   3.207   7.713   0.088
 1041WAT      O 3364   8.750   9.796   3.258
 1041WAT     H1 3365   8.826   9.788   3.194
 1041WAT     H2 3366   8.721   9.892   3.264
 1042WAT      O 3367   4.996   1.297   5.870
 1042WAT     H1 3368   4.961   1.270   5.780
 1042WAT     H2 3369   4.986   1.396   5.882
 1043WAT      O 3370   2.817   2.874   7.016
 1043WAT     H1 3371   2.729   2.902   7.056
 1043WAT     H2 3372   2.844   2.939   6.945
 1044WAT      O 3373   1.346   3.985   8.483
 1044WAT     H1 3374   1.345   3.964   8.581
 1044WAT     H2 3375   1.298   3.913   8.433
 1045WAT      O 3376   7.891   6.908   0.923
 1045WAT     H1 3377   7.849   6.998   0.926
 1045WAT     H2 3378   7.983   6.915   0.885
 1046WAT      O 3379   4.220   3.777   9.585
 1046WAT     H1 3380   4.244   3.827   9.668
 1046WAT     H2 3381   4.303   3.744   9.540
 1047WAT      O 3382   3.319   7.870   1.094
 1047WAT     H1 3383   3.335   7.825   1.006
 1047WAT     H2 3384   3.279   7.960   1.078
 1048WAT      O 3385   4.429   0.521   8.026
 1048WAT     H1 3386   4.489   0.532   7.946
 1048WAT     H2 3387   4.377   0.605   8.039
 1049WAT      O 3388   7.168   8.710   0.003
 1049WAT     H1 3389   7.117   8.778  -0.050
 1049WAT     H2 3390   7.115   8.683   0.083
 1050WAT      O 3391   9.331   7.999   0.709
 1050WAT     H1 3392   9.297   7.954   0.791
 1050WAT     H2 3393   9.374   8.086   0.733
 1051WAT      O 3394   8.823   9.162   0.362
 1051WAT     H1 3395   8.740   9.216   0.350
 1051WAT     H2 3396   8.901   9.211   0.323
 1052WAT      O 3397   7.467   7.149   1.199
 1052WAT     H1 3398   7.442   7.163   1.103
 1052WAT     H2 3399   7.442   7.230   1.252
 1053WAT      O 3400   3.432   1.480   9.332
 1053WAT     H1 3401   3.340   1.474   9.371
 1053WAT     H2 3402   3.461   1.389   9.301
 1054WAT      O 3403   5.392   4.581   9.565
 1054WAT     H1 3404   5.380   4.621   9.656
 1054WAT     H2 3405   5.339   4.634   9.498
 1055WAT      O 3406   2.483   0.519   5.153
 1055WAT     H1 3407   2.457   0.531   5.249
 1055WAT     H2 3408   2.403   0.488   5.101
 1056WAT      O 3409   4.499   3.505   2.731
 1056WAT     H1 3410   4.485   3.604   2.735
 1056WAT     H2 3411   4.541   3.473   2.816
 1057WAT      O 3412   4.062   6.453   1.419
 1057WAT     H1 3413   4.066   6.553   1.428
 1057WAT     H2 3414   4.101   6.426   1.331
 1058WAT      O 3415   9.600   2.085   6.578
 1058WAT     H1 3416   9.530   2.155   6.592
 1058WAT     H2 3417   9.665   2.087   6.654
 1059WAT      O 3418   3.463   3.782   5.130
 1059WAT     H1 3419   3.491   3.795   5.225
 1059WAT     H2 3420   3.378   3.832   5.114
 1060WAT      O 3421   5.404   4.349   0.205
 1060WAT     H1 3422   5.317   4.348   0.253
 1060WAT     H2 3423   5.389   4.371   0.108
 1061WAT      O 3424   2.395   1.095   9.765
 1061WAT     H1 3425   2.300   1.120   9.747
 1061WAT     H2 3426   2.455   1.167   9.730
 1062WAT      O 3427   4.690   3.820   1.067
 1062WAT     H1 3428   4.743   3.757   1.010
 1062WAT     H2 3429   4.665   3.901   1.014
 1063WAT      O 3430   6.551   1.670   3.971
 1063WAT     H1 3431   6.615   1.618   4.028
 1063WAT     H2 3432   6.542   1.763   4.006
 1064WAT      O 3433   7.820   4.190   0.690
 1064WAT     H1 3434   7.908   4.164   0.651
 1064WAT     H2 3435   7.812   4.289   0.692
 1065WAT      O 3436   5.880   9.199   8.194
 1065WAT     H1 3437   5.843   9.257   8.121
 1065WAT     H2 3438   5.839   9.109   8.189
 1066WAT      O 3439   4.832   5.465   7.768
 1066WAT     H1 3440   4.862   5.370   7.769
 1066WAT     H2 3441   4.803   5.489   7.675
 1067WAT      O 3442   8.347   7.440   1.550
 1067WAT     H1 3443   8.343   7.444   1.650
 1067WAT     H2 3444   8.427   7.388   1.521
 1068WAT      O 3445   6.236   1.992   6.598
 1068WAT     H1 3446   6.244   1.927   6.522
 1068WAT     H2 3447   6.147   1.979   6.643
 1069WAT      O 3448   4.663   3.101   7.987
 1069WAT     H1 3449   4.684   3.070   8.079
 1069WAT     H2 3450   4.653   3.022   7.926
 1070WAT      O 3451   6.699   7.026   4.290
 1070WAT     H1 3452   6.611   7.041   4.247
 1070WAT     H2 3453   6.699   6.939   4.339
 1071WAT      O 3454   9.218   0.642   8.008
 1071WAT     H1 3455   9.224   0.551   7.969
 1071WAT     H2 3456   9.128   0.681   7.989
 1072WAT      O 3457   4.311   2.464   5.346
 1072WAT     H1 3458   4.232   2.512   5.309
 1072WAT     H2 3459   4.281   2.396   5.413
 1073WAT      O 3460   8.946   6.647   9.569
 1073WAT     H1 3461   8.901   6.734   9.550
 1073WAT     H2 3462   8.962   6.598   9.483
 1074WAT      O 3463   3.095   5.695   0.342
 1074WAT     H1 3464   3.017   5.756   0.358
 1074WAT     H2 3465   3.109   5.638   0.423
 1075WAT      O 3466   2.892   8.894   3.827
 1075WAT     H1 3467   2.979   8.845   3.834
 1075WAT     H2 3468   2.854   8.880   3.736
 1076WAT      O 3469   7.321   9.396   5.336
 1076WAT     H1 3470   7.251   9.404   5.266
 1076WAT     H2 3471   7.287   9.434   5.422
 1077WAT      O 3472   2.631   4.439   7.859
 1077WAT     H1 3473   2.566   4.363   7.863
 1077WAT     H2 3474   2.696   4.424   7.785
 1078WAT      O 3475   8.030   6.296   8.944
 1078WAT     H1 3476   7.982   6.265   9.025
 1078WAT     H2 3477   8.019   6.230   8.870
 1079WAT      O 3478   7.794   9.151   7.452
 1079WAT     H1 3479   7.730   9.090   7.406
 1079WAT     H2 3480   7.842   9.207   7.384
 1080WAT      O 3481   2.782   5.414   2.873
 1080WAT     H1 3482   2.799   5.325   2.916
 1080WAT     H2 3483   2.728   5.471   2.935
 1081WAT      O 3484   8.002   0.204   5.608
 1081WAT     H1 3485   7.923   0.233   5.555
 1081WAT     H2 3486   8.001   0.104   5.618
 1082WAT      O 3487   8.034   2.456   6.672
 1082WAT     H1 3488   8.110   2.421   6.618
 1082WAT     H2 3489   8.032   2.555   6.667
 1083WAT      O 3490   2.906   4.318   3.770
 1083WAT     H1 3491   2.909   4.355   3.677
 1083WAT     H2 3492   2.811   4.317   3.802
 1084WAT      O 3493   0.167   9.057   2.290
 1084WAT     H1 3494   0.253   9.013   2.264
 1084WAT     H2 3495   0.140   9.123   2.220
 1085WAT      O 3496   4.943   6.956   2.107
 1085WAT     H1 3497   4.959   7.053   2.092
 1085WAT     H2 3498   4.992   6.903   2.037
 1086WAT      O 3499   6.993   5.812   2.484
 1086WAT     H1 3500   7.083   5.847   2.512
 1086WAT     H2 3501   6.996   5.712   2.481
 1087WAT      O 3502   2.122   0.680   9.843
 1087WAT     H1 3503   2.182   0.743   9.892
 1087WAT     H2 3504   2.131   0.695   9.744
 1088WAT      O 3505   1.465   8.310   5.384
 1088WAT     H1 3506   1.450   8.329   5.481
 1088WAT     H2 3507   1.405   8.236   5.355
 1089WAT      O 3508   1.842   5.601   2.685
 1089WAT     H1 3509   1.778   5.663   2.731
 1089WAT     H2 3510   1.794   5.553   2.612
 1090WAT      O 3511   6.037   4.641   0.974
 1090WAT     H1 3512   6.069   4.669   1.065
 1090WAT     H2 3513   5.991   4.718   0.929
 1091WAT      O 3514   6.108   8.156   4.864
 1091WAT     H1 3515   6.106   8.128   4.768
 1091WAT     H2 3516   6.041   8.229   4.880
 1092WAT      O 3517   6.374   7.077   8.520
 1092WAT     H1 3518   6.442   7.120   8.462
 1092WAT     H2 3519   6.349   6.988   8.482
 1093WAT      O 3520   0.074   1.902   8.091
 1093WAT     H1 3521   0.072   1.940   7.999
 1093WAT     H2 3522   0.150   1.942   8.142
 1094WAT      O 3523   2.309   8.271   5.975
 1094WAT     H1 3524   2.395   8.309   5.939
 1094WAT     H2 3525   2.265   8.216   5.904
 1095WAT      O 3526   2.988   6.235   6.260
 1095WAT     H1 3527   3.012   6.223   6.356
 1095WAT     H2 3528   2.982   6.145   6.216
 1096WAT      O 3529   5.540   3.369   8.038
 1096WAT     H1 3530   5.458   3.415   8.004
 1096WAT     H2 3531   5.525   3.341   8.133
 1097WAT      O 3532   4.954   0.586   5.849
 1097WAT     H1 3533   4.982   0.677   5.881
 1097WAT     H2 3534   4.988   0.517   5.913
 1098WAT      O 3535   1.383   1.924   4.738
 1098WAT     H1 3536   1.474   1.928   4.697
 1098WAT     H2 3537   1.363   1.830   4.767
 1099WAT      O 3538   4.938   6.579   6.437
 1099WAT     H1 3539   4.845   6.611   6.456
 1099WAT     H2 3540   4.991   6.577   6.521
 1100WAT      O 3541   0.723   5.562   5.476
 1100WAT     H1 3542   0.742   5.526   5.384
 1100WAT     H2 3543   0.651   5.631   5.470
 1101WAT      O 3544   7.024   5.534   7.940
 1101WAT     H1 3545   7.045   5.468   7.868
 1101WAT     H2 3546   6.997   5.486   8.023
 1102WAT      O 3547   4.798   0.197   8.335
 1102WAT     H1 3548   4.773   0.170   8.428
 1102WAT     H2 3549   4.885   0.244   8.336
 1103WAT      O 3550   6.320   8.776   3.613
 1103WAT     H1 3551   6.242   8.743   3.559
 1103WAT     H2 3552   6.307   8.873   3.634
 1104WAT      O 3553   7.470   0.729   8.188
 1104WAT     H1 3554   7.465   0.778   8.101
 1104WAT     H2 3555   7.456   0.631   8.171
 1105WAT      O 3556   7.013   1.621   0.951
 1105WAT     H1 3557   6.972   1.711   0.966
 1105WAT     H2 3558   6.988   1.587   0.861
 1106WAT      O 3559   5.174   7.899   1.980
 1106WAT     H1 3560   5.120   7.871   2.059
 1106WAT     H2 3561   5.271   7.894   2.003
 1107WAT      O 3562   5.840   2.253   2.763
 1107WAT     H1 3563   5.929   2.209   2.772
 1107WAT     H2 3564   5.768   2.184   2.770
 1108WAT      O 3565   8.312   7.282   5.876
 1108WAT     H1 3566   8.402   7.249   5.849
 1108WAT     H2 3567   8.273   7.219   5.944
 1109WAT      O 3568   7.280   3.848   4.952
 1109WAT     H1 3569   7.278   3.851   5.052
 1109WAT     H2 3570   7.221   3.920   4.915
 1110WAT      O 3571   0.901   6.444   5.283
 1110WAT     H1 3572   0.987   6.457   5.232
 1110WAT     H2 3573   0.876   6.531   5.326
 1111WAT      O 3574   1.413   7.599   0.513
 1111WAT     H1 3575   1.376   7.676   0.462
 1111WAT     H2 3576   1.447   7.631   0.601
 1112WAT      O 3577   8.255   4.987   4.329
 1112WAT     H1 3578   8.305   4.901   4.320
 1112WAT     H2 3579   8.241   5.007   4.426
 1113WAT      O 3580   3.588   7.692   5.143
 1113WAT     H1 3581   3.556   7.629   5.213
 1113WAT     H2 3582   3.594   7.784   5.182
 1114WAT      O 3583   6.987   0.820   1.688
 1114WAT     H1 3584   6.976   0.788   1.594
 1114WAT     H2 3585   7.084   0.822   1.712
 1115WAT      O 3586   8.916   2.650   8.385
 1115WAT     H1 3587   8.879   2.558   8.395
 1115WAT     H2 3588   9.012   2.645   8.355
 1116WAT      O 3589   0.727   4.312   8.107
 1116WAT     H1 3590   0.662   4.310   8.031
 1116WAT     H2 3591   0.723   4.226   8.158
 1117WAT      O 3592   2.531   6.640   4.628
 1117WAT     H1 3593   2.476   6.714   4.666
 1117WAT     H2 3594   2.493   6.610   4.540
 1118WAT      O 3595   5.296   1.192   8.878
 1118WAT     H1 3596   5.236   1.202   8.957
 1118WAT     H2 3597   5.388   1.170   8.909
 1119WAT      O 3598   5.301   7.519   0.633
 1119WAT     H1 3599   5.262   7.435   0.597
 1119WAT     H2 3600   5.366   7.496   0.706
 1120WAT      O 3601   8.584   8.837   7.932
 1120WAT     H1 3602   8.524   8.778   7.986
 1120WAT     H2 3603   8.531   8.881   7.859
 1121WAT      O 3604   8.310   3.440   9.136
 1121WAT     H1 3605   8.408   3.433   9.119
 1121WAT     H2 3606   8.294   3.493   9.220
 1122WAT      O 3607   2.212   8.064   6.686
 1122WAT     H1 3608   2.238   8.160   6.676
 1122WAT     H2 3609   2.122   8.049   6.646
 1123WAT      O 3610   7.551   3.521   3.619
 1123WAT     H1 3611   7.593   3.435   3.649
 1123WAT     H2 3612   7.558   3.528   3.519
 1124WAT      O 3613   3.383   5.866   8.490
 1124WAT     H1 3614   3.435   5.936   8.539
 1124WAT     H2 3615   3.285   5.887   8.496
 1125WAT      O 3616   8.855   8.152   6.967
 1125WAT     H1 3617   8.842   8.172   7.064
 1125WAT     H2 3618   8.934   8.092   6.955
 1126WAT      O 3619   9.735   7.125   5.439
 1126WAT     H1 3620   9.677   7.123   5.358
 1126WAT     H2 3621   9.817   7.071   5.422
 1127WAT      O 3622   7.984   3.226   1.526
 1127WAT     H1 3623   8.032   3.311   1.505
 1127WAT     H2 3624   7.918   3.242   1.599
 1128WAT      O 3625   1.526   1.104   9.409
 1128WAT     H1 3626   1.473   1.039   9.354
 1128WAT     H2 3627   1.621   1.074   9.413
 1129WAT      O 3628   7.628   7.102   6.494
 1129WAT     H1 3629   7.708   7.127   6.438
 1129WAT     H2 3630   7.559   7.059   6.436
 1130WAT      O 3631   6.726   4.161   5.336
 1130WAT     H1 3632   6.669   4.243   5.338
 1130WAT     H2 3633   6.809   4.178   5.390
 1131WAT      O 3634   0.973   7.918   4.946
 1131WAT     H1 3635   0.960   7.834   4.998
 1131WAT     H2 3636   0.896   7.980   4.962
 1132WAT      O 3637   0.108   4.297   4.069
 1132WAT     H1 3638   0.052   4.233   4.016
 1132WAT     H2 3639   0.203   4.268   4.065
 1133WAT      O 3640   1.601   8.887   1.302
 1133WAT     H1 3641   1.619   8.874   1.399
 1133WAT     H2 3642   1.565   8.803   1.263
 1134WAT      O 3643   3.626   2.625   5.462
 1134WAT     H1 3644   3.675   2.553   5.412
 1134WAT     H2 3645   3.529   2.622   5.438
 1135WAT      O 3646   1.988   6.752   2.145
 1135WAT     H1 3647   2.025   6.684   2.081
 1135WAT     H2 3648   1.999   6.843   2.106
 1136WAT      O 3649   5.136   5.041   2.211
 1136WAT     H1 3650   5.179   5.002   2.130
 1136WAT     H2 3651   5.147   5.141   2.209
 1137WAT      O 3652   5.099   9.605   5.730
 1137WAT     H1 3653   5.188   9.605   5.683
 1137WAT     H2 3654   5.026   9.591   5.663
 1138WAT      O 3655   9.692   4.582   2.357
 1138WAT     H1 3656   9.645   4.611   2.441
 1138WAT     H2 3657   9.626   4.547   2.292
 1139WAT      O 3658   7.709   5.381   2.670
 1139WAT     H1 3659   7.777   5.390   2.743
 1139WAT     H2 3660   7.640   5.453   2.680
 1140WAT      O 3661   1.843   4.166   2.015
 1140WAT     H1 3662   1.771   4.131   2.075
 1140WAT     H2 3663   1.873   4.256   2.048
 1141WAT      O 3664   7.623   8.994   9.143
 1141WAT     H1 3665   7.600   8.913   9.196
 1141WAT     H2 3666   7.543   9.053   9.135
 1142WAT      O 3667   8.795   7.735   9.140
 1142WAT     H1 3668   8.834   7.827   9.128
 1142WAT     H2 3669   8.763   7.701   9.052
 1143WAT      O 3670   0.885   0.471   7.031
 1143WAT     H1 3671   0.915   0.496   7.124
 1143WAT     H2 3672   0.812   0.533   7.002
 1144WAT      O 3673   8.978   6.980   9.819
 1144WAT     H1 3674   8.980   6.970   9.719
 1144WAT     H2 3675   9.061   7.026   9.849
 1145WAT      O 3676   3.937   3.903   0.855
 1145WAT     H1 3677   3.981   3.819   0.822
 1145WAT     H2 3678   3.998   3.951   0.918
 1146WAT      O 3679   4.571   9.179   6.702
 1146WAT     H1 3680   4.502   9.251   6.712
 1146WAT     H2 3681   4.661   9.217   6.722
 1147WAT      O 3682   5.992   7.787   7.204
 1147WAT     H1 3683   6.074   7.733   7.217
 1147WAT     H2 3684   5.982   7.851   7.281
 1148WAT      O 3685   6.200   7.371   1.720
 1148WAT     H1 3686   6.103   7.381   1.741
 1148WAT     H2 3687   6.214   7.286   1.668
 1149WAT      O 3688   6.247   1.722   7.477
 1149WAT     H1 3689   6.261   1.678   7.388
 1149WAT     H2 3690   6.307   1.802   7.484
 1150WAT      O 3691   9.844   3.326   7.620
 1150WAT     H1 3692   9.912   3.301   7.688
 1150WAT     H2 3693   9.878   3.304   7.528
 1151WAT      O 3694   4.698   7.699   4.595
 1151WAT     H1 3695   4.757   7.672   4.672
 1151WAT     H2 3696   4.713   7.636   4.518
 1152WAT      O 3697   4.696   2.978   0.797
 1152WAT     H1 3698   4.754   2.919   0.741
 1152WAT     H2 3699   4.739   3.068   0.806
 1153WAT      O 3700   4.572   5.072   3.512
 1153WAT     H1 3701   4.612   5.149   3.462
 1153WAT     H2 3702   4.631   4.992   3.503
 1154WAT      O 3703   2.474   4.176   2.236
 1154WAT     H1 3704   2.574   4.181   2.228
 1154WAT     H2 3705   2.442   4.090   2.197
 1155WAT      O 3706   8.555   9.739   4.541
 1155WAT     H1 3707   8.592   9.829   4.522
 1155WAT     H2 3708   8.607   9.670   4.491
 1156WAT      O 3709   9.704   8.919   4.682
 1156WAT     H1 3710   9.682   9.017   4.683
 1156WAT     H2 3711   9.801   8.907   4.662
 1157WAT      O 3712   3.843   4.058   6.783
 1157WAT     H1 3713   3.907   4.127   6.818
 1157WAT     H2 3714   3.774   4.039   6.853
 1158WAT      O 3715   8.137   7.632   8.632
 1158WAT     H1 3716   8.212   7.573   8.604
 1158WAT     H2 3717   8.098   7.599   8.718
 1159WAT      O 3718   7.729   8.161   9.289
 1159WAT     H1 3719   7.718   8.145   9.388
 1159WAT     H2 3720   7.643   8.143   9.243
 1160WAT      O 3721   5.184   0.007   7.173
 1160WAT     H1 3722   5.157   0.073   7.242
 1160WAT     H2 3723   5.199   0.053   7.086
 1161WAT      O 3724   3.106   5.265   3.493
 1161WAT     H1 3725   3.157   5.328   3.552
 1161WAT     H2 3726   3.120   5.290   3.397
 1162WAT      O 3727   6.807   3.355   2.097
 1162WAT     H1 3728   6.732   3.420   2.081
 1162WAT     H2 3729   6.793   3.310   2.185
 1163WAT      O 3730   9.568   1.170   0.819
 1163WAT     H1 3731   9.509   1.089   0.820
 1163WAT     H2 3732   9.644   1.158   0.883
 1164WAT      O 3733   4.327   3.188   4.512
 1164WAT     H1 3734   4.261   3.263   4.509
 1164WAT     H2 3735   4.413   3.217   4.469
 1165WAT      O 3736   8.552   1.379   5.185
 1165WAT     H1 3737   8.488   1.407   5.256
 1165WAT     H2 3738   8.636   1.345   5.227
 1166WAT      O 3739   4.179   1.953   0.282
 1166WAT     H1 3740   4.258   1.897   0.256
 1166WAT     H2 3741   4.155   2.014   0.207
 1167WAT      O 3742   9.004   2.900   0.162
 1167WAT     H1 3743   9.026   2.988   0.202
 1167WAT     H2 3744   8.905   2.886   0.164
 1168WAT      O 3745   8.175   5.977   6.299
 1168WAT     H1 3746   8.087   6.009   6.264
 1168WAT     H2 3747   8.169   5.880   6.320
 1169WAT      O 3748   0.191   9.714   7.012
 1169WAT     H1 3749   0.197   9.731   6.914
 1169WAT     H2 3750   0.283   9.708   7.050
 1170WAT      O 3751   0.941   7.558   0.026
 1170WAT     H1 3752   0.933   7.654   0.000
 1170WAT     H2 3753   1.037   7.531   0.022
 1171WAT      O 3754   5.538   9.404   0.439
 1171WAT     H1 3755   5.538   9.350   0.354
 1171WAT     H2 3756   5.629   9.441   0.455
 1172WAT      O 3757   7.381   8.107   9.481
 1172WAT     H1 3758   7.344   8.091   9.390
 1172WAT     H2 3759   7.321   8.065   9.549
 1173WAT      O 3760   6.570   3.663   3.245
 1173WAT     H1 3761   6.620   3.578   3.264
 1173WAT     H2 3762   6.542   3.705   3.332
 1174WAT      O 3763   4.520   6.633   3.090
 1174WAT     H1 3764   4.553   6.664   3.001
 1174WAT     H2 3765   4.425   6.605   3.083
 1175WAT      O 3766   5.949   5.419   7.786
 1175WAT     H1 3767   5.862   5.440   7.742
 1175WAT     H2 3768   5.982   5.330   7.755
 1176WAT      O 3769   0.588   9.202   6.565
 1176WAT     H1 3770   0.630   9.128   6.617
 1176WAT     H2 3771   0.613   9.195   6.469
 1177WAT      O 3772   5.401   0.782   8.003
 1177WAT     H1 3773   5.301   0.787   7.999
 1177WAT     H2 3774   5.438   0.778   7.910
 1178WAT      O 3775   4.182   1.232   2.658
 1178WAT     H1 3776   4.277   1.246   2.686
 1178WAT     H2 3777   4.131   1.189   2.733
 1179WAT      O 3778   3.223   0.672   3.643
 1179WAT     H1 3779   3.291   0.742   3.665
 1179WAT     H2 3780   3.141   0.685   3.699
 1180WAT      O 3781   0.314   4.384   6.345
 1180WAT     H1 3782   0.378   4.388   6.269
 1180WAT     H2 3783   0.363   4.364   6.430
 1181WAT      O 3784   9.484   9.075   2.793
 1181WAT     H1 3785   9.583   9.084   2.786
 1181WAT     H2 3786   9.450   9.137   2.864
 1182WAT      O 3787   5.418   4.801   3.349
 1182WAT     H1 3788   5.461   4.731   3.405
 1182WAT     H2 3789   5.423   4.775   3.253
 1183WAT      O 3790   5.698   7.012   2.149
 1183WAT     H1 3791   5.653   7.075   2.212
 1183WAT     H2 3792   5.714   6.925   2.194
 1184WAT      O 3793   1.280   0.160   0.860
 1184WAT     H1 3794   1.227   0.229   0.811
 1184WAT     H2 3795   1.378   0.180   0.850
 1185WAT      O 3796   1.030   5.150   3.294
 1185WAT     H1 3797   1.089   5.126   3.217
 1185WAT     H2 3798   0.935   5.158   3.263
 1186WAT      O 3799   8.840   9.531   1.882
 1186WAT     H1 3800   8.758   9.504   1.832
 1186WAT     H2 3801   8.846   9.631   1.883
 1187WAT      O 3802   7.545   8.752   3.173
 1187WAT     H1 3803   7.528   8.843   3.211
 1187WAT     H2 3804   7.473   8.729   3.107
 1188WAT      O 3805   6.202   3.665   3.797
 1188WAT     H1 3806   6.127   3.710   3.748
 1188WAT     H2 3807   6.240   3.729   3.864
 1189WAT      O 3808   4.104   3.366   5.831
 1189WAT     H1 3809   4.135   3.300   5.763
 1189WAT     H2 3810   4.042   3.321   5.895
 1190WAT      O 3811   4.026   8.763   0.506
 1190WAT     H1 3812   4.088   8.716   0.568
 1190WAT     H2 3813   4.066   8.850   0.479
 1191WAT      O 3814   1.220   9.099   0.444
 1191WAT     H1 3815   1.170   9.160   0.506
 1191WAT     H2 3816   1.185   9.111   0.351
 1192WAT      O 3817   4.239   1.313   0.536
 1192WAT     H1 3818   4.219   1.284   0.443
 1192WAT     H2 3819   4.237   1.234   0.597
 1193WAT      O 3820   1.277   4.748   6.593
 1193WAT     H1 3821   1.232   4.790   6.514
 1193WAT     H2 3822   1.361   4.799   6.614
 1194WAT      O 3823   0.811   5.354   9.498
 1194WAT     H1 3824   0.885   5.366   9.432
 1194WAT     H2 3825   0.737   5.418   9.478
 1195WAT      O 3826   6.588   1.386   3.420
 1195WAT     H1 3827   6.573   1.298   3.375
 1195WAT     H2 3828   6.657   1.438   3.370
 1196WAT      O 3829   6.987   0.274   5.657
 1196WAT     H1 3830   7.085   0.272   5.675
 1196WAT     H2 3831   6.971   0.288   5.559
 1197WAT      O 3832   8.693   3.487   5.898
 1197WAT     H1 3833   8.643   3.448   5.820
 1197WAT     H2 3834   8.662   3.581   5.914
 1198WAT      O 3835   8.563   8.219   4.765
 1198WAT     H1 3836   8.514   8.259   4.687
 1198WAT     H2 3837   8.630   8.284   4.800
 1199WAT      O 3838   4.690   6.578   8.778
 1199WAT     H1 3839   4.646   6.531   8.702
 1199WAT     H2 3840   4.643   6.554   8.863
 1200WAT      O 3841   9.604   1.651   6.516
 1200WAT     H1 3842   9.647   1.736   6.486
 1200WAT     H2 3843   9.666   1.600   6.576
 1201WAT      O 3844   2.865   9.603   8.485
 1201WAT     H1 3845   2.889   9.513   8.449
 1201WAT     H2 3846   2.899   9.613   8.578
 1202WAT      O 3847   7.614   9.091   9.499
 1202WAT     H1 3848   7.701   9.109   9.454
 1202WAT     H2 3849   7.583   8.999   9.475
 1203WAT      O 3850   3.709   9.708   7.076
 1203WAT     H1 3851   3.616   9.681   7.053
 1203WAT     H2 3852   3.731   9.795   7.032
 1204WAT      O 3853   7.353   7.369   4.915
 1204WAT     H1 3854   7.368   7.372   5.014
 1204WAT     H2 3855   7.307   7.453   4.886
 1205WAT      O 3856   1.711   5.565   5.647
 1205WAT     H1 3857   1.733   5.547   5.551
 1205WAT     H2 3858   1.790   5.608   5.691
 1206WAT      O 3859   8.201   2.376   0.621
 1206WAT     H1 3860   8.287   2.422   0.642
 1206WAT     H2 3861   8.214   2.315   0.543
 1207WAT      O 3862   7.080   1.286   8.024
 1207WAT     H1 3863   7.081   1.217   8.096
 1207WAT     H2 3864   6.999   1.345   8.034
 1208WAT      O 3865   0.645   4.589   7.384
 1208WAT     H1 3866   0.597   4.543   7.458
 1208WAT     H2 3867   0.622   4.546   7.297
 1209WAT      O 3868   0.554   7.021   9.338
 1209WAT     H1 3869   0.561   7.121   9.341
 1209WAT     H2 3870   0.465   6.996   9.299
 1210WAT      O 3871   2.285   4.362   8.792
 1210WAT     H1 3872   2.187   4.377   8.789
 1210WAT     H2 3873   2.330   4.438   8.839
 1211WAT      O 3874   4.964   0.980   1.536
 1211WAT     H1 3875   5.013   1.048   1.481
 1211WAT     H2 3876   5.013   0.966   1.622
 1212WAT      O 3877   4.749   7.257   3.342
 1212WAT     H1 3878   4.742   7.212   3.253
 1212WAT     H2 3879   4.695   7.341   3.341
 1213WAT      O 3880   0.314   8.691   3.569
 1213WAT     H1 3881   0.298   8.786   3.544
 1213WAT     H2 3882   0.382   8.687   3.643
 1214WAT      O 3883   0.904   0.224   9.062
 1214WAT     H1 3884   0.859   0.289   9.001
 1214WAT     H2 3885   0.853   0.137   9.062
 1215WAT      O 3886   9.748   1.257   4.992
 1215WAT     H1 3887   9.801   1.337   4.965
 1215WAT     H2 3888   9.687   1.231   4.917
 1216WAT      O 3889   7.880   1.093   6.105
 1216WAT     H1 3890   7.956   1.045   6.060
 1216WAT     H2 3891   7.895   1.093   6.204
 1217WAT      O 3892   4.545   4.331   1.382
 1217WAT     H1 3893   4.570   4.245   1.337
 1217WAT     H2 3894   4.452   4.324   1.418
 1218WAT      O 3895   5.652   9.100   4.617
 1218WAT     H1 3896   5.583   9.035   4.648
 1218WAT     H2 3897   5.740   9.053   4.609
 1219WAT      O 3898   5.545   6.810   5.441
 1219WAT     H1 3899   5.604   6.891   5.431
 1219WAT     H2 3900   5.591   6.730   5.402
 1220WAT      O 3901   3.290   0.523   7.950
 1220WAT     H1 3902   3.389   0.536   7.952
 1220WAT     H2 3903   3.269   0.429   7.925
 1221WAT      O 3904   4.750   1.279   0.150
 1221WAT     H1 3905   4.810   1.212   0.106
 1221WAT     H2 3906   4.769   1.281   0.249
 1222WAT      O 3907   1.922   2.406   2.051
 1222WAT     H1 3908   1.829   2.372   2.035
 1222WAT     H2 3909   1.983   2.371   1.979
 1223WAT      O 3910   1.406   3.965   3.117
 1223WAT     H1 3911   1.353   3.880   3.109
 1223WAT     H2 3912   1.424   4.001   3.026
 1224WAT      O 3913   8.928   0.413   6.488
 1224WAT     H1 3914   8.858   0.438   6.554
 1224WAT     H2 3915   9.014   0.397   6.536
 1225WAT      O 3916   8.970   9.840   5.208
 1225WAT     H1 3917   9.034   9.827   5.283
 1225WAT     H2 3918   8.997   9.918   5.152
 1226WAT      O 3919   9.180   1.909   5.678
 1226WAT     H1 3920   9.200   2.007   5.673
 1226WAT     H2 3921   9.262   1.860   5.707
 1227WAT      O 3922   0.682   6.443   2.435
 1227WAT     H1 3923   0.625   6.504   2.380
 1227WAT     H2 3924   0.725   6.495   2.508
 1228WAT      O 3925   7.915   8.186   0.665
 1228WAT     H1 3926   7.940   8.092   0.688
 1228WAT     H2 3927   7.824   8.206   0.700
 1229WAT      O 3928   5.646   9.391   5.040
 1229WAT     H1 3929   5.686   9.403   5.131
 1229WAT     H2 3930   5.646   9.478   4.991
 1230WAT      O 3931   7.423   8.188   7.526
 1230WAT     H1 3932   7.467   8.253   7.464
 1230WAT     H2 3933   7.474   8.185   7.612
 1231WAT      O 3934   8.715   9.154   9.786
 1231WAT     H1 3935   8.672   9.067   9.812
 1231WAT     H2 3936   8.644   9.219   9.758
 1232WAT      O 3937   5.285   2.957   7.600
 1232WAT     H1 3938   5.271   2.860   7.581
 1232WAT     H2 3939   5.361   2.968   7.664
 1233WAT      O 3940   3.874   2.998   8.953
 1233WAT     H1 3941   3.776   2.984   8.939
 1233WAT     H2 3942   3.903   3.079   8.902
 1234WAT      O 3943   3.245   3.571   3.301
 1234WAT     H1 3944   3.240   3.480   3.260
 1234WAT     H2 3945   3.219   3.565   3.398
 1235WAT      O 3946   2.864   0.588   2.471
 1235WAT     H1 3947   2.963   0.585   2.463
 1235WAT     H2 3948   2.833   0.518   2.534
 1236WAT      O 3949   7.946   2.961   9.188
 1236WAT     H1 3950   7.904   3.030   9.246
 1236WAT     H2 3951   7.998   3.006   9.115
 1237WAT      O 3952   4.875   6.605   0.090
 1237WAT     H1 3953   4.918   6.581   0.002
 1237WAT     H2 3954   4.861   6.522   0.143
 1238WAT      O 3955   3.189   1.522   8.822
 1238WAT     H1 3956   3.248   1.601   8.807
 1238WAT     H2 3957   3.245   1.445   8.855
 1239WAT      O 3958   7.327   5.037   0.221
 1239WAT     H1 3959   7.385   4.958   0.239
 1239WAT     H2 3960   7.339   5.105   0.293
 1240WAT      O 3961   0.980   9.833   3.940
 1240WAT     H1 3962   0.996   9.814   4.037
 1240WAT     H2 3963   0.887   9.868   3.928
 1241WAT      O 3964   9.754   6.653   8.315
 1241WAT     H1 3965   9.782   6.748   8.302
 1241WAT     H2 3966   9.788   6.597   8.239
 1242WAT      O 3967   6.182   0.243   4.144
 1242WAT     H1 3968   6.163   0.302   4.223
 1242WAT     H2 3969   6.246   0.171   4.172
 1243WAT      O 3970   4.825   2.552   3.613
 1243WAT     H1 3971   4.868   2.611   3.544
 1243WAT     H2 3972   4.838   2.593   3.703
 1244WAT      O 3973   1.774   9.202   9.848
 1244WAT     H1 3974   1.746   9.159   9.934
 1244WAT     H2 3975   1.709   9.274   9.825
 1245WAT      O 3976   5.293   3.363   2.981
 1245WAT     H1 3977   5.228   3.430   2.944
 1245WAT     H2 3978   5.318   3.389   3.074
 1246WAT      O 3979   0.763   4.163   6.463
 1246WAT     H1 3980   0.689   4.156   6.530
 1246WAT     H2 3981   0.842   4.111   6.496
 1247WAT      O 3982   2.454   4.810   6.279
 1247WAT     H1 3983   2.417   4.878   6.343
 1247WAT     H2 3984   2.381   4.749   6.250
 1248WAT      O 3985   3.104   8.731   4.548
 1248WAT     H1 3986   3.132   8.668   4.475
 1248WAT     H2 3987   3.007   8.753   4.538
 1249WAT      O 3988   7.047   6.801   3.680
 1249WAT     H1 3989   6.986   6.841   3.611
 1249WAT     H2 3990   7.052   6.862   3.759
 1250WAT      O 3991   0.720   7.765   4.298
 1250WAT     H1 3992   0.813   7.785   4.326
 1250WAT     H2 3993   0.704   7.667   4.302
 1251WAT      O 3994   1.580   6.956   7.750
 1251WAT     H1 3995   1.580   6.895   7.672
 1251WAT     H2 3996   1.632   7.039   7.728
 1252WAT      O 3997   1.264   6.939   7.693
 1252WAT     H1 3998   1.322   6.889   7.758
 1252WAT     H2 3999   1.168   6.931   7.721
 1253WAT      O 4000   5.455   9.169   5.469
 1253WAT     H1 4001   5.493   9.106   5.401
 1253WAT     H2 4002   5.356   9.161   5.471
 1254WAT      O 4003   3.992   8.759   9.858
 1254WAT     H1 4004   4.040   8.800   9.936
 1254WAT     H2 4005   3.923   8.823   9.824
 1255WAT      O 4006   1.733   5.292   4.282
 1255WAT     H1 4007   1.808   5.340   4.237
 1255WAT     H2 4008   1.645   5.330   4.251
 1256WAT      O 4009   9.725   5.220   2.882
 1256WAT     H1 4010   9.805   5.278   2.895
 1256WAT     H2 4011   9.731   5.140   2.942
 1257WAT      O 4012   9.825   6.321   5.540
 1257WAT     H1 4013   9.847   6.285   5.631
 1257WAT     H2 4014   9.749   6.385   5.547
 1258WAT      O 4015   1.272   0.553   1.871
 1258WAT     H1 4016   1.231   0.634   1.913
 1258WAT     H2 4017   1.201   0.495   1.832
 1259WAT      O 4018   3.496   2.904   5.820
 1259WAT     H1 4019   3.559   2.838   5.777
 1259WAT     H2 4020   3.404   2.866   5.822
 1260WAT      O 4021   5.222   1.192   4.241
 1260WAT     H1 4022   5.272   1.151   4.165
 1260WAT     H2 4023   5.130   1.154   4.244
 1261WAT      O 4024   4.428   6.009   1.791
 1261WAT     H1 4025   4.458   6.102   1.813
 1261WAT     H2 4026   4.384   5.969   1.870
 1262WAT      O 4027   5.017   6.186   1.101
 1262WAT     H1 4028   5.095   6.124   1.108
 1262WAT     H2 4029   4.960   6.160   1.023
 1263WAT      O 4030   8.704   3.085   2.693
 1263WAT     H1 4031   8.790   3.036   2.676
 1263WAT     H2 4032   8.715   3.146   2.771
 1264WAT      O 4033   7.583   1.482   7.199
 1264WAT     H1 4034   7.596   1.512   7.105
 1264WAT     H2 4035   7.526   1.400   7.201
 1265WAT      O 4036   9.305   2.402   3.767
 1265WAT     H1 4037   9.235   2.443   3.708
 1265WAT     H2 4038   9.269   2.394   3.860
 1266WAT      O 4039   6.310   7.182   3.374
 1266WAT     H1 4040   6.364   7.146   3.450
 1266WAT     H2 4041   6.257   7.107   3.333
 1267WAT      O 4042   4.265   2.162   9.765
 1267WAT     H1 4043   4.202   2.138   9.839
 1267WAT     H2 4044   4.317   2.081   9.738
 1268WAT      O 4045   7.825   1.500   2.496
 1268WAT     H1 4046   7.791   1.586   2.458
 1268WAT     H2 4047   7.884   1.456   2.428
 1269WAT      O 4048   7.624   5.679   1.760
 1269WAT     H1 4049   7.583   5.613   1.822
 1269WAT     H2 4050   7.555   5.745   1.731
 1270WAT      O 4051   3.557   2.463   8.798
 1270WAT     H1 4052   3.486   2.532   8.787
 1270WAT     H2 4053   3.534   2.403   8.875
 1271WAT      O 4054   4.692   0.123   2.986
 1271WAT     H1 4055   4.748   0.178   2.924
 1271WAT     H2 4056   4.605   0.101   2.942
 1272WAT      O 4057   6.707   9.038   8.786
 1272WAT     H1 4058   6.682   9.085   8.870
 1272WAT     H2 4059   6.628   8.989   8.750
 1273WAT      O 4060   1.391   9.272   4.111
 1273WAT     H1 4061   1.351   9.224   4.188
 1273WAT     H2 4062   1.369   9.224   4.026
 1274WAT      O 4063   8.900   8.289   6.713
 1274WAT     H1 4064   8.984   8.263   6.664
 1274WAT     H2 4065   8.895   8.238   6.799
 1275WAT      O 4066   8.413   0.008   3.236
 1275WAT     H1 4067   8.483   0.025   3.305
 1275WAT     H2 4068   8.382  -0.087   3.242
 1276WAT      O 4069   1.768   8.982   0.430
 1276WAT     H1 4070   1.676   8.943   0.425
 1276WAT     H2 4071   1.836   8.910   0.413
 1277WAT      O 4072   7.749   2.273   7.828
 1277WAT     H1 4073   7.672   2.296   7.889
 1277WAT     H2 4074   7.802   2.356   7.810
 1278WAT      O 4075   1.025   4.797   4.473
 1278WAT     H1 4076   1.118   4.803   4.510
 1278WAT     H2 4077   1.023   4.836   4.381
 1279WAT      O 4078   6.844   1.305   0.557
 1279WAT     H1 4079   6.795   1.377   0.508
 1279WAT     H2 4080   6.850   1.224   0.498
 1280WAT      O 4081   4.747   5.741   4.870
 1280WAT     H1 4082   4.667   5.792   4.837
 1280WAT     H2 4083   4.816   5.804   4.904
 1281WAT      O 4084   5.040   1.080   4.537
 1281WAT     H1 4085   5.006   1.120   4.452
 1281WAT     H2 4086   5.128   1.121   4.561
 1282WAT      O 4087   9.411   9.715   7.592
 1282WAT     H1 4088   9.411   9.655   7.512
 1282WAT     H2 4089   9.330   9.696   7.648
 1283WAT      O 4090   5.834   8.894   9.730
 1283WAT     H1 4091   5.933   8.907   9.726
 1283WAT     H2 4092   5.812   8.827   9.800
 1284WAT      O 4093   3.867   2.395   8.533
 1284WAT     H1 4094   3.830   2.488   8.528
 1284WAT     H2 4095   3.960   2.398   8.568
 1285WAT      O 4096   3.100   2.422   8.941
 1285WAT     H1 4097   3.046   2.432   9.025
 1285WAT     H2 4098   3.139   2.330   8.937
 1286WAT      O 4099   5.139   7.773   5.645
 1286WAT     H1 4100   5.123   7.866   5.614
 1286WAT     H2 4101   5.188   7.722   5.574
 1287WAT      O 4102   6.730   4.306   5.733
 1287WAT     H1 4103   6.690   4.387   5.690
 1287WAT     H2 4104   6.828   4.322   5.749
 1288WAT      O 4105   8.371   2.811   5.781
 1288WAT     H1 4106   8.387   2.717   5.809
 1288WAT     H2 4107   8.319   2.812   5.696
 1289WAT      O 4108   6.950   1.095   8.796
 1289WAT     H1 4109   6.876   1.143   8.844
 1289WAT     H2 4110   6.943   0.997   8.814
 1290WAT      O 4111   1.173   1.284   8.207
 1290WAT     H1 4112   1.182   1.184   8.214
 1290WAT     H2 4113   1.256   1.327   8.241
 1291WAT      O 4114   5.841   7.663   0.369
 1291WAT     H1 4115   5.907   7.707   0.430
 1291WAT     H2 4116   5.879   7.576   0.337
 1292WAT      O 4117   1.277   1.181   4.739
 1292WAT     H1 4118   1.291   1.096   4.689
 1292WAT     H2 4119   1.306   1.168   4.834
 1293WAT      O 4120   1.340   2.771   1.358
 1293WAT     H1 4121   1.375   2.828   1.284
 1293WAT     H2 4122   1.391   2.685   1.362
 1294WAT      O 4123   6.797   8.657   0.529
 1294WAT     H1 4124   6.871   8.601   0.490
 1294WAT     H2 4125   6.768   8.618   0.616
 1295WAT      O 4126   8.898   8.007   2.279
 1295WAT     H1 4127   8.801   7.991   2.258
 1295WAT     H2 4128   8.948   8.023   2.194
 1296WAT      O 4129   9.601   5.744   3.681
 1296WAT     H1 4130   9.575   5.821   3.739
 1296WAT     H2 4131   9.675   5.692   3.725
 1297WAT      O 4132   8.941   0.041   4.798
 1297WAT     H1 4133   8.924   0.099   4.878
 1297WAT     H2 4134   8.882  -0.039   4.802
 1298WAT      O 4135   9.408   2.078   1.270
 1298WAT     H1 4136   9.374   2.091   1.177
 1298WAT     H2 4137   9.501   2.044   1.267
 1299WAT      O 4138   0.787   4.984   2.009
 1299WAT     H1 4139   0.884   5.010   2.008
 1299WAT     H2 4140   0.730   5.066   2.006
 1300WAT      O 4141   0.408   0.432   8.249
 1300WAT     H1 4142   0.432   0.529   8.255
 1300WAT     H2 4143   0.467   0.387   8.182
 1301WAT      O 4144   2.870   7.766   2.241
 1301WAT     H1 4145   2.827   7.790   2.154
 1301WAT     H2 4146   2.942   7.699   2.225
 1302WAT      O 4147   0.851   0.750   0.026
 1302WAT     H1 4148   0.818   0.674  -0.030
 1302WAT     H2 4149   0.780   0.820   0.033
 1303WAT      O 4150   6.259   1.780   3.015
 1303WAT     H1 4151   6.294   1.687   3.003
 1303WAT     H2 4152   6.284   1.836   2.936
 1304WAT      O 4153   8.014   7.376   6.546
 1304WAT     H1 4154   8.093   7.315   6.551
 1304WAT     H2 4155   7.948   7.340   6.480
 1305WAT      O 4156   1.026   0.812   5.042
 1305WAT     H1 4157   0.992   0.723   5.070
 1305WAT     H2 4158   0.964   0.853   4.974
 1306WAT      O 4159   1.544   1.166   5.997
 1306WAT     H1 4160   1.527   1.071   5.970
 1306WAT     H2 4161   1.598   1.169   6.081
 1307WAT      O 4162   1.870   0.340   3.852
 1307WAT     H1 4163   1.963   0.349   3.814
 1307WAT     H2 4164   1.825   0.262   3.809
 1308WAT      O 4165   3.498   9.399   2.549
 1308WAT     H1 4166   3.520   9.326   2.614
 1308WAT     H2 4167   3.401   9.422   2.557
 1309WAT      O 4168   9.097   8.520   5.313
 1309WAT     H1 4169   9.174   8.458   5.326
 1309WAT     H2 4170   9.029   8.504   5.385
 1310WAT      O 4171   6.294   8.923   6.338
 1310WAT     H1 4172   6.285   8.997   6.404
 1310WAT     H2 4173   6.227   8.852   6.359
 1311WAT      O 4174   0.476   9.232   7.429
 1311WAT     H1 4175   0.513   9.304   7.372
 1311WAT     H2 4176   0.387   9.203   7.393
 1312WAT      O 4177   1.945   4.954   4.925
 1312WAT     H1 4178   1.957   5.027   4.992
 1312WAT     H2 4179   2.005   4.970   4.847
 1313WAT      O 4180   7.552   4.996   7.309
 1313WAT     H1 4181   7.600   4.908   7.316
 1313WAT     H2 4182   7.504   5.001   7.222
 1314WAT      O 4183   5.515   4.081   0.392
 1314WAT     H1 4184   5.432   4.077   0.448
 1314WAT     H2 4185   5.595   4.094   0.451
 1315WAT      O 4186   8.338   0.067   1.616
 1315WAT     H1 4187   8.402   0.129   1.570
 1315WAT     H2 4188   8.271   0.034   1.550
 1316WAT      O 4189   0.758   1.013   5.676
 1316WAT     H1 4190   0.827   0.977   5.612
 1316WAT     H2 4191   0.756   1.113   5.670
 1317WAT      O 4192   6.916   2.386   9.677
 1317WAT     H1 4193   6.841   2.332   9.715
 1317WAT     H2 4194   6.996   2.327   9.666
 1318WAT      O 4195   8.575   4.800   9.437
 1318WAT     H1 4196   8.638   4.869   9.473
 1318WAT     H2 4197   8.596   4.711   9.478
 1319WAT      O 4198   8.455   3.603   4.296
 1319WAT     H1 4199   8.390   3.527   4.295
 1319WAT     H2 4200   8.505   3.603   4.382
 1320WAT      O 4201   3.229   5.123   6.680
 1320WAT     H1 4202   3.323   5.144   6.705
 1320WAT     H2 4203   3.210   5.158   6.588
 1321WAT      O 4204   1.667   9.416   4.143
 1321WAT     H1 4205   1.584   9.374   4.106
 1321WAT     H2 4206   1.649   9.451   4.235
 1322WAT      O 4207   9.353   6.096   3.385
 1322WAT     H1 4208   9.386   6.055   3.469
 1322WAT     H2 4209   9.330   6.024   3.319
 1323WAT      O 4210   6.376   5.197   7.137
 1323WAT     H1 4211   6.362   5.293   7.114
 1323WAT     H2 4212   6.462   5.166   7.098
 1324WAT      O 4213   0.743   4.775   9.539
 1324WAT     H1 4214   0.767   4.872   9.544
 1324WAT     H2 4215   0.827   4.720   9.537
 1325WAT      O 4216   7.041   0.391   4.449
 1325WAT     H1 4217   7.128   0.365   4.491
 1325WAT     H2 4218   6.968   0.385   4.517
 1326WAT      O 4219   1.289   4.008   5.385
 1326WAT     H1 4220   1.387   4.009   5.364
 1326WAT     H2 4221   1.265   3.922   5.430
 1327WAT      O 4222   2.364   5.675   6.363
 1327WAT     H1 4223   2.437   5.681   6.430
 1327WAT     H2 4224   2.281   5.718   6.400
 1328WAT      O 4225   2.903   5.011   7.708
 1328WAT     H1 4226   2.834   4.951   7.668
 1328WAT     H2 4227   2.988   5.003   7.656
 1329WAT      O 4228   4.271   5.528   9.540
 1329WAT     H1 4229   4.201   5.537   9.469
 1329WAT     H2 4230   4.287   5.431   9.559
 1330WAT      O 4231   0.893   0.660   1.766
 1330WAT     H1 4232   0.925   0.700   1.680
 1330WAT     H2 4233   0.804   0.617   1.751
 1331WAT      O 4234   4.647   2.377   4.197
 1331WAT     H1 4235   4.660   2.279   4.208
 1331WAT     H2 4236   4.646   2.422   4.286
 1332WAT      O 4237   8.224   5.691   6.814
 1332WAT     H1 4238   8.286   5.707   6.738
 1332WAT     H2 4239   8.276   5.675   6.898
 1333WAT      O 4240   8.797   2.703   0.074
 1333WAT     H1 4241   8.849   2.686  -0.009
 1333WAT     H2 4242   8.724   2.635   0.082
 1334WAT      O 4243   5.629   5.077   8.232
 1334WAT     H1 4244   5.674   5.014   8.168
 1334WAT     H2 4245   5.641   5.171   8.200
 1335WAT      O 4246   4.859   0.185   9.458
 1335WAT     H1 4247   4.926   0.171   9.386
 1335WAT     H2 4248   4.902   0.234   9.534
 1336WAT      O 4249   3.728   4.273   8.062
 1336WAT     H1 4250   3.802   4.209   8.081
 1336WAT     H2 4251   3.662   4.230   8.000
 1337WAT      O 4252   3.636   9.173   3.449
 1337WAT     H1 4253   3.563   9.225   3.405
 1337WAT     H2 4254   3.637   9.079   3.412
 1338WAT      O 4255   4.679   2.671   6.310
 1338WAT     H1 4256   4.648   2.684   6.217
 1338WAT     H2 4257   4.616   2.611   6.359
 1339WAT      O 4258   8.252   1.864   4.341
 1339WAT     H1 4259   8.258   1.765   4.330
 1339WAT     H2 4260   8.314   1.908   4.276
 1340WAT      O 4261   2.843   9.216   1.859
 1340WAT     H1 4262   2.807   9.239   1.768
 1340WAT     H2 4263   2.834   9.295   1.919
 1341WAT      O 4264   1.669   0.223   8.149
 1341WAT     H1 4265   1.671   0.315   8.186
 1341WAT     H2 4266   1.761   0.183   8.152
 1342WAT      O 4267   5.504   2.837   2.554
 1342WAT     H1 4268   5.477   2.787   2.471
 1342WAT     H2 4269   5.461   2.795   2.634
 1343WAT      O 4270   4.377   8.552   5.078
 1343WAT     H1 4271   4.326   8.517   4.999
 1343WAT     H2 4272   4.424   8.477   5.123
 1344WAT      O 4273   2.163   3.720   8.112
 1344WAT     H1 4274   2.100   3.655   8.071
 1344WAT     H2 4275   2.193   3.685   8.201
 1345WAT      O 4276   5.462   9.787   2.143
 1345WAT     H1 4277   5.511   9.851   2.083
 1345WAT     H2 4278   5.525   9.749   2.210
 1346WAT      O 4279   1.794   0.073   2.474
 1346WAT     H1 4280   1.783   0.042   2.569
 1346WAT     H2 4281   1.836   0.164   2.473
 1347WAT      O 4282   1.909   9.405   1.207
 1347WAT     H1 4283   1.828   9.454   1.238
 1347WAT     H2 4284   1.900   9.308   1.231
 1348WAT      O 4285   7.115   3.642   2.900
 1348WAT     H1 4286   7.124   3.610   2.806
 1348WAT     H2 4287   7.028   3.610   2.938
 1349WAT      O 4288   4.620   1.525   2.728
 1349WAT     H1 4289   4.567   1.474   2.660
 1349WAT     H2 4290   4.598   1.623   2.720
 1350WAT      O 4291   3.312   6.118   3.519
 1350WAT     H1 4292   3.227   6.103   3.570
 1350WAT     H2 4293   3.378   6.165   3.578
 1351WAT      O 4294   2.021   2.255   4.571
 1351WAT     H1 4295   1.946   2.320   4.558
 1351WAT     H2 4296   2.071   2.244   4.485
 1352WAT      O 4297   1.159   7.814   5.736
 1352WAT     H1 4298   1.072   7.860   5.717
 1352WAT     H2 4299   1.151   7.760   5.820
 1353WAT      O 4300   5.424   6.797   0.612
 1353WAT     H1 4301   5.394   6.837   0.525
 1353WAT     H2 4302   5.439   6.870   0.679
 1354WAT      O 4303   1.416   3.937   1.402
 1354WAT     H1 4304   1.425   3.843   1.436
 1354WAT     H2 4305   1.488   3.994   1.440
 1355WAT      O 4306   0.656   6.054   7.091
 1355WAT     H1 4307   0.557   6.052   7.104
 1355WAT     H2 4308   0.696   5.970   7.128
 1356WAT      O 4309   7.396   5.179   0.455
 1356WAT     H1 4310   7.429   5.266   0.420
 1356WAT     H2 4311   7.325   5.196   0.524
 1357WAT      O 4312   9.513   4.043   3.055
 1357WAT     H1 4313   9.522   4.135   3.018
 1357WAT     H2 4314   9.581   4.029   3.128
 1358WAT      O 4315   4.428   1.741   5.264
 1358WAT     H1 4316   4.329   1.733   5.272
 1358WAT     H2 4317   4.453   1.744   5.167
 1359WAT      O 4318   0.831   5.864   7.220
 1359WAT     H1 4319   0.874   5.777   7.243
 1359WAT     H2 4320   0.898   5.925   7.178
 1360WAT      O 4321   5.465   8.204   5.451
 1360WAT     H1 4322   5.530   8.254   5.508
 1360WAT     H2 4323   5.496   8.206   5.356
 1361WAT      O 4324   2.254   8.182   0.421
 1361WAT     H1 4325   2.337   8.185   0.365
 1361WAT     H2 4326   2.255   8.259   0.485
 1362WAT      O 4327   9.764   0.522   4.868
 1362WAT     H1 4328   9.675   0.483   4.847
 1362WAT     H2 4329   9.773   0.611   4.823
 1363WAT      O 4330   1.255   9.268   9.538
 1363WAT     H1 4331   1.275   9.333   9.464
 1363WAT     H2 4332   1.338   9.251   9.590
 1364WAT      O 4333   9.703   1.172   6.617
 1364WAT     H1 4334   9.747   1.261   6.606
 1364WAT     H2 4335   9.604   1.181   6.600
 1365WAT      O 4336   0.783   9.178   8.411
 1365WAT     H1 4337   0.759   9.094   8.360
 1365WAT     H2 4338   0.745   9.257   8.363
 1366WAT      O 4339   2.538   6.863   6.884
 1366WAT     H1 4340   2.585   6.781   6.851
 1366WAT     H2 4341   2.444   6.840   6.910
 1367WAT      O 4342   9.430   2.267   4.811
 1367WAT     H1 4343   9.447   2.261   4.909
 1367WAT     H2 4344   9.364   2.196   4.784
 1368WAT      O 4345   9.085   6.636   3.460
 1368WAT     H1 4346   9.098   6.611   3.364
 1368WAT     H2 4347   9.011   6.582   3.499
 1369WAT      O 4348   2.883   5.396   7.870
 1369WAT     H1 4349   2.852   5.356   7.956
 1369WAT     H2 4350   2.806   5.435   7.821
 1370WAT      O 4351   9.567   6.723   0.934
 1370WAT     H1 4352   9.589   6.777   1.015
 1370WAT     H2 4353   9.561   6.783   0.854
 1371WAT      O 4354   2.227   6.299   3.418
 1371WAT     H1 4355   2.185   6.350   3.494
 1371WAT     H2 4356   2.322   6.327   3.407
 1372WAT      O 4357   3.616   3.393   2.140
 1372WAT     H1 4358   3.631   3.481   2.094
 1372WAT     H2 4359   3.699   3.338   2.133
 1373WAT      O 4360   3.746   0.026   6.588
 1373WAT     H1 4361   3.655   0.002   6.622
 1373WAT     H2 4362   3.772  -0.036   6.515
 1374WAT      O 4363   4.539   1.325   4.062
 1374WAT     H1 4364   4.632   1.338   4.028
 1374WAT     H2 4365   4.474   1.347   3.989
 1375WAT      O 4366   5.658   8.172   4.000
 1375WAT     H1 4367   5.667   8.266   3.966
 1375WAT     H2 4368   5.561   8.149   4.009
 1376WAT      O 4369   6.241   6.383   2.971
 1376WAT     H1 4370   6.164   6.434   2.932
 1376WAT     H2 4371   6.293   6.443   3.032
 1377WAT      O 4372   7.475   8.195   4.539
 1377WAT     H1 4373   7.574   8.201   4.526
 1377WAT     H2 4374   7.429   8.231   4.458
 1378WAT      O 4375   1.411   2.873   2.262
 1378WAT     H1 4376   1.325   2.847   2.217
 1378WAT     H2 4377   1.454   2.948   2.212
 1379WAT      O 4378   2.325   3.753   6.230
 1379WAT     H1 4379   2.238   3.706   6.240
 1379WAT     H2 4380   2.378   3.710   6.157
 1380WAT      O 4381   5.865   0.816   3.745
 1380WAT     H1 4382   5.921   0.750   3.795
 1380WAT     H2 4383   5.924   0.879   3.694
 1381WAT      O 4384   5.092   8.579   0.958
 1381WAT     H1 4385   5.112   8.676   0.951
 1381WAT     H2 4386   5.168   8.531   1.002
 1382WAT      O 4387   6.090   0.064   5.998
 1382WAT     H1 4388   6.187   0.077   6.021
 1382WAT     H2 4389   6.071  -0.034   5.995
 1383WAT      O 4390   0.127   1.775   1.587
 1383WAT     H1 4391   0.109   1.679   1.608
 1383WAT     H2 4392   0.178   1.817   1.662
 1384WAT      O 4393   7.323   7.137   9.788
 1384WAT     H1 4394   7.373   7.056   9.817
 1384WAT     H2 4395   7.230   7.112   9.761
 1385WAT      O 4396   8.617   0.735   3.994
 1385WAT     H1 4397   8.696   0.705   4.047
 1385WAT     H2 4398   8.554   0.786   4.053
 1386WAT      O 4399   8.191   8.159   7.031
 1386WAT     H1 4400   8.231   8.249   7.016
 1386WAT     H2 4401   8.195   8.106   6.946
 1387WAT      O 4402   7.167   1.193   5.886
 1387WAT     H1 4403   7.194   1.275   5.837
 1387WAT     H2 4404   7.129   1.127   5.822
 1388WAT      O 4405   3.963   6.612   7.264
 1388WAT     H1 4406   3.973   6.666   7.180
 1388WAT     H2 4407   3.869   6.616   7.296
 1389WAT      O 4408   1.850   1.329   8.296
 1389WAT     H1 4409   1.817   1.258   8.234
 1389WAT     H2 4410   1.936   1.299   8.338
 1390WAT      O 4411   6.701   0.346   8.780
 1390WAT     H1 4412   6.784   0.308   8.739
 1390WAT     H2 4413   6.698   0.323   8.877
 1391WAT      O 4414   9.247   3.525   1.340
 1391WAT     H1 4415   9.320   3.573   1.389
 1391WAT     H2 4416   9.169   3.512   1.400
 1392WAT      O 4417   5.569   2.652   1.063
 1392WAT     H1 4418   5.487   2.654   1.007
 1392WAT     H2 4419   5.595   2.557   1.082
 1393WAT      O 4420   9.628   8.400   0.305
 1393WAT     H1 4421   9.713   8.347   0.311
 1393WAT     H2 4422   9.644   8.482   0.250
 1394WAT      O 4423   7.105   7.719   5.331
 1394WAT     H1 4424   7.032   7.653   5.315
 1394WAT     H2 4425   7.145   7.746   5.243
 1395WAT      O 4426   0.523   3.953   0.752
 1395WAT     H1 4427   0.552   3.878   0.692
 1395WAT     H2 4428   0.536   4.040   0.705
 1396WAT      O 4429   6.543   0.946   1.238
 1396WAT     H1 4430   6.532   1.034   1.285
 1396WAT     H2 4431   6.454   0.917   1.201
 1397WAT      O 4432   3.369   1.951   0.330
 1397WAT     H1 4433   3.286   2.005   0.314
 1397WAT     H2 4434   3.346   1.854   0.332
 1398WAT      O 4435   6.698   0.341   7.048
 1398WAT     H1 4436   6.727   0.436   7.056
 1398WAT     H2 4437   6.643   0.316   7.128
 1399WAT      O 4438   1.896   5.853   3.802
 1399WAT     H1 4439   1.893   5.796   3.720
 1399WAT     H2 4440   1.888   5.950   3.776
 1400WAT      O 4441   9.810   4.494   6.793
 1400WAT     H1 4442   9.736   4.552   6.761
 1400WAT     H2 4443   9.868   4.468   6.715
 1401WAT      O 4444   8.499   4.012   4.171
 1401WAT     H1 4445   8.566   4.043   4.104
 1401WAT     H2 4446   8.472   3.918   4.151
 1402WAT      O 4447   1.663   8.183   4.745
 1402WAT     H1 4448   1.759   8.210   4.743
 1402WAT     H2 4449   1.606   8.264   4.758
 1403WAT      O 4450   8.982   1.808   1.365
 1403WAT     H1 4451   8.976   1.872   1.288
 1403WAT     H2 4452   9.020   1.855   1.444
 1404WAT      O 4453   8.851   1.402   5.778
 1404WAT     H1 4454   8.846   1.340   5.699
 1404WAT     H2 4455   8.937   1.453   5.775
 1405WAT      O 4456   5.375   2.194   5.961
 1405WAT     H1 4457   5.341   2.227   6.050
 1405WAT     H2 4458   5.297   2.170   5.903
 1406WAT      O 4459   0.931   1.519   1.963
 1406WAT     H1 4460   0.858   1.477   2.016
 1406WAT     H2 4461   1.017   1.472   1.981
 1407WAT      O 4462   9.021   7.554   0.257
 1407WAT     H1 4463   8.997   7.458   0.246
 1407WAT     H2 4464   9.084   7.565   0.333
 1408WAT      O 4465   2.846   3.131   2.194
 1408WAT     H1 4466   2.882   3.211   2.242
 1408WAT     H2 4467   2.918   3.064   2.181
 1409WAT      O 4468   9.738   8.746   7.614
 1409WAT     H1 4469   9.781   8.819   7.561
 1409WAT     H2 4470   9.638   8.754   7.609
 1410WAT      O 4471   1.354   7.075   8.749
 1410WAT     H1 4472   1.401   7.121   8.673
 1410WAT     H2 4473   1.256   7.095   8.743
 1411WAT      O 4474   7.569   2.766   4.531
 1411WAT     H1 4475   7.592   2.706   4.454
 1411WAT     H2 4476   7.479   2.739   4.568
 1412WAT      O 4477   0.834   5.159   0.892
 1412WAT     H1 4478   0.824   5.218   0.812
 1412WAT     H2 4479   0.755   5.170   0.952
 1413WAT      O 4480   0.474   7.080   7.762
 1413WAT     H1 4481   0.504   7.119   7.675
 1413WAT     H2 4482   0.388   7.030   7.748
 1414WAT      O 4483   9.525   9.755   8.925
 1414WAT     H1 4484   9.476   9.840   8.904
 1414WAT     H2 4485   9.570   9.722   8.842
 1415WAT      O 4486   3.827   2.514   2.506
 1415WAT     H1 4487   3.824   2.445   2.433
 1415WAT     H2 4488   3.909   2.500   2.561
 1416WAT      O 4489   2.181   7.234   4.163
 1416WAT     H1 4490   2.232   7.257   4.246
 1416WAT     H2 4491   2.146   7.141   4.170
 1417WAT      O 4492   0.974   7.146   3.297
 1417WAT     H1 4493   1.054   7.086   3.297
 1417WAT     H2 4494   0.998   7.235   3.260
 1418WAT      O 4495   5.935   1.594   7.252
 1418WAT     H1 4496   5.911   1.647   7.171
 1418WAT     H2 4497   5.888   1.506   7.250
 1419WAT      O 4498   3.353   6.215   9.873
 1419WAT     H1 4499   3.394   6.165   9.796
 1419WAT     H2 4500   3.382   6.173   9.959
 1420WAT      O 4501   9.634   4.801   7.834
 1420WAT     H1 4502   9.594   4.887   7.867
 1420WAT     H2 4503   9.678   4.817   7.745
 1421WAT      O 4504   8.535   5.150   8.746
 1421WAT     H1 4505   8.573   5.239   8.772
 1421WAT     H2 4506   8.601   5.102   8.688
 1422WAT      O 4507   8.023   7.179   8.928
 1422WAT     H1 4508   8.026   7.097   8.985
 1422WAT     H2 4509   8.116   7.210   8.908
 1423WAT      O 4510   2.148   4.463   0.277
 1423WAT     H1 4511   2.089   4.505   0.346
 1423WAT     H2 4512   2.240   4.452   0.315
 1424WAT      O 4513   1.806   9.548   9.830
 1424WAT     H1 4514   1.862   9.606   9.771
 1424WAT     H2 4515   1.863   9.508   9.902
 1425WAT      O 4516   8.400   9.396   8.788
 1425WAT     H1 4517   8.417   9.461   8.714
 1425WAT     H2 4518   8.487   9.373   8.833
 1426WAT      O 4519   0.924   5.671   5.630
 1426WAT     H1 4520   0.835   5.645   5.592
 1426WAT     H2 4521   0.993   5.669   5.559
 1427WAT      O 4522   9.460   0.127   6.740
 1427WAT     H1 4523   9.453   0.105   6.642
 1427WAT     H2 4524   9.510   0.213   6.751
 1428WAT      O 4525   2.606   0.130   8.528
 1428WAT     H1 4526   2.649   0.080   8.603
 1428WAT     H2 4527   2.625   0.228   8.538
 1429WAT      O 4528   4.126   7.157   5.859
 1429WAT     H1 4529   4.179   7.170   5.943
 1429WAT     H2 4530   4.188   7.154   5.781
 1430WAT      O 4531   0.282   8.414   3.684
 1430WAT     H1 4532   0.366   8.411   3.631
 1430WAT     H2 4533   0.264   8.325   3.724
 1431WAT      O 4534   3.040   6.123   3.921
 1431WAT     H1 4535   2.947   6.088   3.905
 1431WAT     H2 4536   3.065   6.109   4.017
 1432WAT      O 4537   5.040   4.952   4.932
 1432WAT     H1 4538   4.998   4.863   4.946
 1432WAT     H2 4539   4.992   5.000   4.859
 1433WAT      O 4540   5.286   0.861   3.140
 1433WAT     H1 4541   5.355   0.921   3.100
 1433WAT     H2 4542   5.279   0.777   3.085
 1434WAT      O 4543   7.719   1.475   4.508
 1434WAT     H1 4544   7.644   1.437   4.561
 1434WAT     H2 4545   7.806   1.442   4.544
 1435WAT      O 4546   1.682   9.825   9.156
 1435WAT     H1 4547   1.718   9.918   9.152
 1435WAT     H2 4548   1.674   9.797   9.252
 1436WAT      O 4549   6.366   8.456   6.189
 1436WAT     H1 4550   6.417   8.476   6.106
 1436WAT     H2 4551   6.391   8.521   6.261
 1437WAT      O 4552   9.172   9.058   1.439
 1437WAT     H1 4553   9.082   9.061   1.481
 1437WAT     H2 4554   9.229   8.991   1.486
 1438WAT      O 4555   9.833   2.323   8.621
 1438WAT     H1 4556   9.922   2.367   8.635
 1438WAT     H2 4557   9.841   2.253   8.550
 1439WAT      O 4558   5.690   0.017   1.552
 1439WAT     H1 4559   5.655  -0.076   1.560
 1439WAT     H2 4560   5.789   0.017   1.571
 1440WAT      O 4561   6.273   0.672   6.121
 1440WAT     H1 4562   6.225   0.743   6.173
 1440WAT     H2 4563   6.261   0.689   6.023
 1441WAT      O 4564   9.475   4.220   2.668
 1441WAT     H1 4565   9.454   4.123   2.660
 1441WAT     H2 4566   9.395   4.270   2.702
 1442WAT      O 4567   4.072   0.179   4.867
 1442WAT     H1 4568   4.113   0.264   4.832
 1442WAT     H2 4569   4.107   0.102   4.813
 1443WAT      O 4570   0.518   4.290   7.917
 1443WAT     H1 4571   0.543   4.280   7.821
 1443WAT     H2 4572   0.452   4.364   7.928
 1444WAT      O 4573   0.535   7.404   2.431
 1444WAT     H1 4574   0.633   7.390   2.440
 1444WAT     H2 4575   0.487   7.317   2.444
 1445WAT      O 4576   5.118   2.876   3.388
 1445WAT     H1 4577   5.211   2.843   3.407
 1445WAT     H2 4578   5.112   2.973   3.410
 1446WAT      O 4579   7.623   0.391   7.035
 1446WAT     H1 4580   7.641   0.392   6.936
 1446WAT     H2 4581   7.704   0.356   7.083
 1447WAT      O 4582   8.445   2.158   5.464
 1447WAT     H1 4583   8.489   2.134   5.551
 1447WAT     H2 4584   8.406   2.250   5.471
 1448WAT      O 4585   5.859   0.855   0.971
 1448WAT     H1 4586   5.822   0.796   0.900
 1448WAT     H2 4587   5.864   0.949   0.937
 1449WAT      O 4588   4.696   7.651   9.237
 1449WAT     H1 4589   4.634   7.645   9.314
 1449WAT     H2 4590   4.698   7.745   9.204
 1450WAT      O 4591   9.103   7.473   2.565
 1450WAT     H1 4592   9.134   7.558   2.522
 1450WAT     H2 4593   9.004   7.477   2.579
 1451WAT      O 4594   8.035   5.781   5.093
 1451WAT     H1 4595   8.077   5.698   5.056
 1451WAT     H2 4596   8.090   5.860   5.067
 1452WAT      O 4597   7.641   1.244   6.035
 1452WAT     H1 4598   7.571   1.183   5.998
 1452WAT     H2 4599   7.729   1.196   6.037
 1453WAT      O 4600   9.683   3.495   3.337
 1453WAT     H1 4601   9.632   3.540   3.410
 1453WAT     H2 4602   9.673   3.547   3.252
 1454WAT      O 4603   7.609   5.640   7.326
 1454WAT     H1 4604   7.667   5.707   7.373
 1454WAT     H2 4605   7.524   5.684   7.299
 1455WAT      O 4606   3.199   1.842   6.952
 1455WAT     H1 4607   3.167   1.774   7.018
 1455WAT     H2 4608   3.257   1.909   6.998
 1456WAT      O 4609   3.741   1.127   9.292
 1456WAT     H1 4610   3.789   1.180   9.221
 1456WAT     H2 4611   3.755   1.029   9.275
 1457WAT      O 4612   6.900   3.630   8.614
 1457WAT     H1 4613   6.879   3.681   8.530
 1457WAT     H2 4614   6.993   3.653   8.644
 1458WAT      O 4615   3.213   6.635   7.238
 1458WAT     H1 4616   3.248   6.729   7.232
 1458WAT     H2 4617   3.288   6.570   7.229
 1459WAT      O 4618   2.152   7.122   0.203
 1459WAT     H1 4619   2.191   7.214   0.193
 1459WAT     H2 4620   2.223   7.059   0.234
 1460WAT      O 4621   8.625   6.471   9.390
 1460WAT     H1 4622   8.724   6.458   9.391
 1460WAT     H2 4623   8.589   6.443   9.301
 1461WAT      O 4624   8.871   8.724   7.988
 1461WAT     H1 4625   8.774   8.732   7.965
 1461WAT     H2 4626   8.882   8.657   8.062
 1462WAT      O 4627   9.015   8.300   6.302
 1462WAT     H1 4628   9.018   8.326   6.398
 1462WAT     H2 4629   9.060   8.211   6.290
 1463WAT      O 4630   4.327   1.765   5.605
 1463WAT     H1 4631   4.417   1.794   5.572
 1463WAT     H2 4632   4.322   1.778   5.704
 1464WAT      O 4633   4.809   1.386   4.034
 1464WAT     H1 4634   4.854   1.419   4.117
 1464WAT     H2 4635   4.776   1.464   3.981
 1465WAT      O 4636   0.091   8.113   4.703
 1465WAT     H1 4637   0.018   8.134   4.769
 1465WAT     H2 4638   0.137   8.029   4.730
 1466WAT      O 4639   3.528   1.010   3.213
 1466WAT     H1 4640   3.592   1.066   3.160
 1466WAT     H2 4641   3.565   0.917   3.224
 1467WAT      O 4642   3.318   6.651   1.472
 1467WAT     H1 4643   3.241   6.680   1.415
 1467WAT     H2 4644   3.318   6.705   1.557
 1468WAT      O 4645   9.620   1.780   8.187
 1468WAT     H1 4646   9.521   1.789   8.201
 1468WAT     H2 4647   9.645   1.827   8.102
 1469WAT      O 4648   5.305   3.667   6.740
 1469WAT     H1 4649   5.403   3.680   6.759
 1469WAT     H2 4650   5.287   3.685   6.643
 1470WAT      O 4651   2.381   6.874   7.521
 1470WAT     H1 4652   2.297   6.842   7.476
 1470WAT     H2 4653   2.457   6.815   7.496
 1471WAT      O 4654   4.122   2.281   3.532
 1471WAT     H1 4655   4.196   2.233   3.579
 1471WAT     H2 4656   4.040   2.224   3.531
 1472WAT      O 4657   8.952   6.225   8.844
 1472WAT     H1 4658   9.001   6.259   8.925
 1472WAT     H2 4659   8.961   6.290   8.769
 1473WAT      O 4660   7.750   5.273   6.311
 1473WAT     H1 4661   7.742   5.228   6.221
 1473WAT     H2 4662   7.759   5.203   6.382
 1474WAT      O 4663   0.241   2.082   4.563
 1474WAT     H1 4664   0.146   2.103   4.542
 1474WAT     H2 4665   0.299   2.112   4.487
 1475WAT      O 4666   0.637   8.805   5.441
 1475WAT     H1 4667   0.549   8.766   5.413
 1475WAT     H2 4668   0.707   8.733   5.440
 1476WAT      O 4669   0.956   9.281   5.796
 1476WAT     H1 4670   0.899   9.347   5.746
 1476WAT     H2 4671   0.899   9.206   5.830
 1477WAT      O 4672   5.419   5.846   4.309
 1477WAT     H1 4673   5.444   5.930   4.356
 1477WAT     H2 4674   5.436   5.768   4.369
 1478WAT      O 4675   9.119   1.088   9.281
 1478WAT     H1 4676   9.062   1.048   9.209
 1478WAT     H2 4677   9.099   1.185   9.289
 1479WAT      O 4678   7.407   2.891   8.862
 1479WAT     H1 4679   7.359   2.844   8.936
 1479WAT     H2 4680   7.348   2.896   8.782
 1480WAT      O 4681   9.850   3.473   2.758
 1480WAT     H1 4682   9.793   3.456   2.678
 1480WAT     H2 4683   9.905   3.391   2.778
 1481WAT      O 4684   1.554   7.737   6.299
 1481WAT     H1 4685   1.517   7.823   6.334
 1481WAT     H2 4686   1.499   7.706   6.221
 1482WAT      O 4687   5.725   9.037   7.844
 1482WAT     H1 4688   5.823   9.028   7.857
 1482WAT     H2 4689   5.688   8.951   7.809
 1483WAT      O 4690   8.851   6.176   8.468
 1483WAT     H1 4691   8.857   6.169   8.368
 1483WAT     H2 4692   8.883   6.091   8.509
 1484WAT      O 4693   7.522   0.869   6.633
 1484WAT     H1 4694   7.503   0.830   6.543
 1484WAT     H2 4695   7.576   0.805   6.687
 1485WAT      O 4696   4.246   0.052   7.575
 1485WAT     H1 4697   4.307   0.086   7.504
 1485WAT     H2 4698   4.296   0.044   7.661
 1486WAT      O 4699   0.667   8.300   4.682
 1486WAT     H1 4700   0.579   8.314   4.638
 1486WAT     H2 4701   0.728   8.377   4.660
 1487WAT      O 4702   3.459   5.688   1.334
 1487WAT     H1 4703   3.521   5.764   1.351
 1487WAT     H2 4704   3.366   5.713   1.361
 1488WAT      O 4705   9.249   5.288   3.855
 1488WAT     H1 4706   9.265   5.321   3.762
 1488WAT     H2 4707   9.154   5.305   3.881
 1489WAT      O 4708   9.428   9.276   1.649
 1489WAT     H1 4709   9.339   9.256   1.607
 1489WAT     H2 4710   9.489   9.315   1.580
 1490WAT      O 4711   9.318   8.755   9.872
 1490WAT     H1 4712   9.243   8.704   9.914
 1490WAT     H2 4713   9.351   8.825   9.935
 1491WAT      O 4714   0.097   9.190   3.542
 1491WAT     H1 4715   0.155   9.271   3.549
 1491WAT     H2 4716   0.022   9.197   3.608
 1492WAT      O 4717   3.572   6.273   2.867
 1492WAT     H1 4718   3.583   6.208   2.792
 1492WAT     H2 4719   3.491   6.249   2.921
 1493WAT      O 4720   9.415   8.827   5.121
 1493WAT     H1 4721   9.389   8.869   5.035
 1493WAT     H2 4722   9.467   8.892   5.176
 1494WAT      O 4723   8.886   0.928   7.664
 1494WAT     H1 4724   8.924   0.873   7.589
 1494WAT     H2 4725   8.815   0.988   7.629
 1495WAT      O 4726   1.174   4.795   9.391
 1495WAT     H1 4727   1.128   4.747   9.315
 1495WAT     H2 4728   1.179   4.734   9.470
 1496WAT      O 4729   1.852   7.985   4.141
 1496WAT     H1 4730   1.903   7.899   4.131
 1496WAT     H2 4731   1.789   7.996   4.064
 1497WAT      O 4732   0.746   2.449   1.054
 1497WAT     H1 4733   0.686   2.444   1.134
 1497WAT     H2 4734   0.715   2.383   0.985
 1498WAT      O 4735   0.803   2.761   3.105
 1498WAT     H1 4736   0.715   2.805   3.125
 1498WAT     H2 4737   0.795   2.662   3.119
 1499WAT      O 4738   6.000   3.765   3.645
 1499WAT     H1 4739   6.018   3.847   3.591
 1499WAT     H2 4740   5.908   3.771   3.685
 1500WAT      O 4741   5.887   8.669   8.203
 1500WAT     H1 4742   5.807   8.727   8.194
 1500WAT     H2 4743   5.887   8.626   8.293
 1501WAT      O 4744   3.117   7.156   8.530
 1501WAT     H1 4745   3.170   7.151   8.615
 1501WAT     H2 4746   3.036   7.213   8.545
 1502WAT      O 4747   3.906   9.262   2.455
 1502WAT     H1 4748   3.859   9.186   2.408
 1502WAT     H2 4749   4.005   9.251   2.445
 1503WAT      O 4750   8.027   2.833   5.664
 1503WAT     H1 4751   7.930   2.811   5.675
 1503WAT     H2 4752   8.082   2.772   5.721
 1504WAT      O 4753   6.012   1.415   8.975
 1504WAT     H1 4754   6.018   1.501   9.025
 1504WAT     H2 4755   6.086   1.410   8.908
 1505WAT      O 4756   6.380   8.820   7.872
 1505WAT     H1 4757   6.361   8.902   7.819
 1505WAT     H2 4758   6.295   8.786   7.912
 1506WAT      O 4759   0.035   1.114   4.648
 1506WAT     H1 4760   0.096   1.095   4.724
 1506WAT     H2 4761   0.045   1.209   4.619
 1507WAT      O 4762   0.623   7.717   0.448
 1507WAT     H1 4763   0.630   7.670   0.536
 1507WAT     H2 4764   0.639   7.652   0.374
 1508WAT      O 4765   0.051   6.287   0.256
 1508WAT     H1 4766   0.021   6.323   0.167
 1508WAT     H2 4767   0.143   6.321   0.276
 1509WAT      O 4768   3.206   2.407   1.155
 1509WAT     H1 4769   3.295   2.396   1.201
 1509WAT     H2 4770   3.139   2.346   1.197
 1510WAT      O 4771   9.409   7.225   6.543
 1510WAT     H1 4772   9.493   7.201   6.494
 1510WAT     H2 4773   9.397   7.162   6.620
 1511WAT      O 4774   5.009   0.323   6.105
 1511WAT     H1 4775   5.086   0.376   6.068
 1511WAT     H2 4776   5.029   0.225   6.097
 1512WAT      O 4777   8.268   1.463   0.651
 1512WAT     H1 4778   8.355   1.512   0.650
 1512WAT     H2 4779   8.226   1.468   0.561
 1513WAT      O 4780   1.629   8.349   2.531
 1513WAT     H1 4781   1.570   8.402   2.471
 1513WAT     H2 4782   1.717   8.395   2.540
 1514WAT      O 4783   4.407   5.914   8.664
 1514WAT     H1 4784   4.323   5.961   8.691
 1514WAT     H2 4785   4.473   5.917   8.738
 1515WAT      O 4786   3.322   7.443   5.350
 1515WAT     H1 4787   3.294   7.383   5.274
 1515WAT     H2 4788   3.285   7.535   5.335
 1516WAT      O 4789   8.092   4.466   6.014
 1516WAT     H1 4790   8.078   4.546   5.955
 1516WAT     H2 4791   8.045   4.480   6.101
 1517WAT      O 4792   3.488   6.514   8.920
 1517WAT     H1 4793   3.554   6.578   8.959
 1517WAT     H2 4794   3.408   6.564   8.888
 1518WAT      O 4795   1.791   9.004   5.857
 1518WAT     H1 4796   1.715   8.939   5.852
 1518WAT     H2 4797   1.767   9.087   5.806
 1519WAT      O 4798   2.487   2.778   6.128
 1519WAT     H1 4799   2.521   2.816   6.214
 1519WAT     H2 4800   2.489   2.848   6.057
 1520WAT      O 4801   1.954   6.543   1.938
 1520WAT     H1 4802   1.972   6.607   1.864
 1520WAT     H2 4803   1.964   6.449   1.904
 1521WAT      O 4804   6.696   8.472   4.959
 1521WAT     H1 4805   6.603   8.460   4.994
 1521WAT     H2 4806   6.755   8.505   5.033
 1522WAT      O 4807   3.040   7.264   9.610
 1522WAT     H1 4808   2.961   7.238   9.665
 1522WAT     H2 4809   3.075   7.352   9.642
 1523WAT      O 4810   3.787   4.298   0.500
 1523WAT     H1 4811   3.760   4.228   0.567
 1523WAT     H2 4812   3.720   4.300   0.426
 1524WAT      O 4813   9.089   5.090   0.813
 1524WAT     H1 4814   9.094   5.190   0.819
 1524WAT     H2 4815   9.172   5.055   0.771
 1525WAT      O 4816   5.155   5.761   5.183
 1525WAT     H1 4817   5.189   5.848   5.219
 1525WAT     H2 4818   5.225   5.691   5.192
 1526WAT      O 4819   7.255   1.514   3.051
 1526WAT     H1 4820   7.186   1.581   3.023
 1526WAT     H2 4821   7.338   1.527   2.997
 1527WAT      O 4822   0.648   0.598   7.013
 1527WAT     H1 4823   0.681   0.575   7.105
 1527WAT     H2 4824   0.641   0.697   7.004
 1528WAT      O 4825   8.375   8.563   7.727
 1528WAT     H1 4826   8.326   8.603   7.804
 1528WAT     H2 4827   8.331   8.589   7.641
 1529WAT      O 4828   5.225   7.339   6.508
 1529WAT     H1 4829   5.174   7.417   6.543
 1529WAT     H2 4830   5.302   7.371   6.453
 1530WAT      O 4831   0.595   2.963   2.140
 1530WAT     H1 4832   0.683   2.963   2.093
 1530WAT     H2 4833   0.575   2.871   2.174
 1531WAT      O 4834   3.919   8.665   5.771
 1531WAT     H1 4835   3.918   8.586   5.710
 1531WAT     H2 4836   3.918   8.634   5.866
 1532WAT      O 4837   6.078   8.538   9.252
 1532WAT     H1 4838   6.075   8.470   9.178
 1532WAT     H2 4839   5.989   8.583   9.259
 1533WAT      O 4840   8.138   9.132   9.315
 1533WAT     H1 4841   8.237   9.119   9.328
 1533WAT     H2 4842   8.095   9.043   9.297
 1534WAT      O 4843   2.150   3.986   6.539
 1534WAT     H1 4844   2.132   4.013   6.634
 1534WAT     H2 4845   2.206   3.904   6.537
 1535WAT      O 4846   6.730   7.696   8.871
 1535WAT     H1 4847   6.824   7.661   8.876
 1535WAT     H2 4848   6.721   7.777   8.929
 1536WAT      O 4849   8.087   1.839   0.332
 1536WAT     H1 4850   8.043   1.827   0.421
 1536WAT     H2 4851   8.166   1.899   0.341
 1537WAT      O 4852   6.702   2.570   0.076
 1537WAT     H1 4853   6.680   2.484   0.030
 1537WAT     H2 4854   6.795   2.599   0.051
 1538WAT      O 4855   6.153   7.089   1.030
 1538WAT     H1 4856   6.153   7.003   1.082
 1538WAT     H2 4857   6.155   7.166   1.094
 1539WAT      O 4858   7.399   3.969   1.778
 1539WAT     H1 4859   7.324   3.904   1.780
 1539WAT     H2 4860   7.481   3.924   1.742
 1540WAT      O 4861   6.836   1.029   1.356
 1540WAT     H1 4862   6.747   1.036   1.402
 1540WAT     H2 4863   6.821   1.021   1.257
 1541WAT      O 4864   9.230   8.759   5.338
 1541WAT     H1 4865   9.179   8.673   5.336
 1541WAT     H2 4866   9.308   8.753   5.276
 1542WAT      O 4867   5.899   4.366   1.471
 1542WAT     H1 4868   5.898   4.412   1.381
 1542WAT     H2 4869   5.916   4.269   1.458
 1543WAT      O 4870   2.379   2.006   1.349
 1543WAT     H1 4871   2.453   1.942   1.370
 1543WAT     H2 4872   2.378   2.025   1.251
 1544WAT      O 4873   8.304   6.160   0.925
 1544WAT     H1 4874   8.313   6.093   0.999
 1544WAT     H2 4875   8.360   6.131   0.847
 1545WAT      O 4876   8.892   6.408   7.491
 1545WAT     H1 4877   8.921   6.382   7.399
 1545WAT     H2 4878   8.972   6.440   7.543
 1546WAT      O 4879   7.459   3.238   2.159
 1546WAT     H1 4880   7.362   3.211   2.155
 1546WAT     H2 4881   7.502   3.221   2.071
 1547WAT      O 4882   8.372   2.040   6.721
 1547WAT     H1 4883   8.361   2.120   6.781
 1547WAT     H2 4884   8.451   1.986   6.752
 1548WAT      O 4885   4.256   0.425   7.675
 1548WAT     H1 4886   4.290   0.513   7.708
 1548WAT     H2 4887   4.333   0.362   7.666
 1549WAT      O 4888   7.986   9.784   3.282
 1549WAT     H1 4889   8.044   9.865   3.276
 1549WAT     H2 4890   7.944   9.767   3.193
 1550WAT      O 4891   3.101   3.373   3.889
 1550WAT     H1 4892   3.141   3.298   3.838
 1550WAT     H2 4893   3.017   3.403   3.844
 1551WAT      O 4894   1.563   0.578   5.938
 1551WAT     H1 4895   1.531   0.532   5.855
 1551WAT     H2 4896   1.587   0.672   5.916
 1552WAT      O 4897   1.794   7.743   8.196
 1552WAT     H1 4898   1.845   7.809   8.142
 1552WAT     H2 4899   1.730   7.693   8.137
 1553WAT      O 4900   1.693   9.651   3.453
 1553WAT     H1 4901   1.615   9.624   3.510
 1553WAT     H2 4902   1.775   9.603   3.485
 1554WAT      O 4903   5.182   6.485   7.685
 1554WAT     H1 4904   5.206   6.577   7.718
 1554WAT     H2 4905   5.084   6.482   7.665
 1555WAT      O 4906   1.940   4.534   7.957
 1555WAT     H1 4907   2.009   4.562   8.024
 1555WAT     H2 4908   1.969   4.449   7.913
 1556WAT      O 4909   8.122   0.328   1.906
 1556WAT     H1 4910   8.177   0.387   1.847
 1556WAT     H2 4911   8.182   0.264   1.955
 1557WAT      O 4912   5.123   0.712   1.371
 1557WAT     H1 4913   5.159   0.622   1.347
 1557WAT     H2 4914   5.064   0.705   1.451
 1558WAT      O 4915   4.514   6.883   6.577
 1558WAT     H1 4916   4.420   6.851   6.561
 1558WAT     H2 4917   4.531   6.965   6.523
 1559WAT      O 4918   0.814   8.730   0.230
 1559WAT     H1 4919   0.760   8.709   0.148
 1559WAT     H2 4920   0.901   8.771   0.202
 1560WAT      O 4921   5.712   3.477   0.711
 1560WAT     H1 4922   5.612   3.472   0.704
 1560WAT     H2 4923   5.748   3.387   0.735
 1561WAT      O 4924   6.892   7.975   2.536
 1561WAT     H1 4925   6.877   8.073   2.528
 1561WAT     H2 4926   6.804   7.927   2.536
 1562WAT      O 4927   1.546   4.589   2.204
 1562WAT     H1 4928   1.501   4.665   2.250
 1562WAT     H2 4929   1.478   4.524   2.171
 1563WAT      O 4930   4.397   5.829   1.057
 1563WAT     H1 4931   4.445   5.871   1.135
 1563WAT     H2 4932   4.421   5.879   0.974
 1564WAT      O 4933   0.773   0.224   4.686
 1564WAT     H1 4934   0.760   0.173   4.601
 1564WAT     H2 4935   0.856   0.193   4.731
 1565WAT      O 4936   0.423   7.646   1.873
 1565WAT     H1 4937   0.405   7.743   1.857
 1565WAT     H2 4938   0.340   7.602   1.908
 1566WAT      O 4939   9.585   6.653   9.239
 1566WAT     H1 4940   9.625   6.594   9.169
 1566WAT     H2 4941   9.582   6.604   9.326
 1567WAT      O 4942   3.507   9.791   0.799
 1567WAT     H1 4943   3.498   9.891   0.804
 1567WAT     H2 4944   3.531   9.755   0.890
 1568WAT      O 4945   1.910   8.007   4.411
 1568WAT     H1 4946   1.847   7.944   4.456
 1568WAT     H2 4947   1.897   8.003   4.312
 1569WAT      O 4948   7.767   3.792   7.197
 1569WAT     H1 4949   7.755   3.812   7.100
 1569WAT     H2 4950   7.718   3.707   7.220
 1570WAT      O 4951   6.120   2.513   6.718
 1570WAT     H1 4952   6.203   2.559   6.685
 1570WAT     H2 4953   6.088   2.557   6.802
 1571WAT      O 4954   8.185   3.423   1.500
 1571WAT     H1 4955   8.173   3.520   1.481
 1571WAT     H2 4956   8.217   3.411   1.594
 1572WAT      O 4957   8.537   3.875   5.233
 1572WAT     H1 4958   8.488   3.868   5.146
 1572WAT     H2 4959   8.533   3.969   5.267
 1573WAT      O 4960   4.560   5.034   5.182
 1573WAT     H1 4961   4.498   5.017   5.105
 1573WAT     H2 4962   4.539   4.971   5.256
 1574WAT      O 4963   6.084   1.252   3.370
 1574WAT     H1 4964   6.070   1.154   3.360
 1574WAT     H2 4965   6.070   1.279   3.465
 1575WAT      O 4966   3.026   9.413   0.606
 1575WAT     H1 4967   3.109   9.374   0.646
 1575WAT     H2 4968   2.984   9.476   0.671
 1576WAT      O 4969   8.286   0.481   2.971
 1576WAT     H1 4970   8.357   0.448   2.908
 1576WAT     H2 4971   8.327   0.545   3.037
 1577WAT      O 4972   1.612   2.866   1.379
 1577WAT     H1 4973   1.665   2.862   1.294
 1577WAT     H2 4974   1.530   2.921   1.365
 1578WAT      O 4975   1.507   8.980   9.082
 1578WAT     H1 4976   1.540   9.071   9.106
 1578WAT     H2 4977   1.446   8.987   9.002
 1579WAT      O 4978   9.072   5.503   9.868
 1579WAT     H1 4979   9.168   5.476   9.871
 1579WAT     H2 4980   9.062   5.580   9.805
 1580WAT      O 4981   9.275   9.063   6.986
 1580WAT     H1 4982   9.343   9.028   7.050
 1580WAT     H2 4983   9.220   8.988   6.950
 1581WAT      O 4984   7.948   3.120   1.836
 1581WAT     H1 4985   8.043   3.117   1.866
 1581WAT     H2 4986   7.915   3.026   1.824
 1582WAT      O 4987   6.442   3.324   0.995
 1582WAT     H1 4988   6.409   3.253   1.058
 1582WAT     H2 4989   6.405   3.308   0.904
 1583WAT      O 4990   6.897   6.325   5.972
 1583WAT     H1 4991   6.845   6.281   6.045
 1583WAT     H2 4992   6.841   6.327   5.889
 1584WAT      O 4993   3.202   4.571   7.892
 1584WAT     H1 4994   3.158   4.482   7.878
 1584WAT     H2 4995   3.297   4.567   7.862
 1585WAT      O 4996   8.865   1.409   1.531
 1585WAT     H1 4997   8.954   1.452   1.517
 1585WAT     H2 4998   8.860   1.325   1.477
 1586WAT      O 4999   2.091   2.281   1.854
 1586WAT     H1 5000   2.162   2.314   1.792
 1586WAT     H2 5001   2.047   2.200   1.814
 1587WAT      O 5002   1.984   2.666   1.876
 1587WAT     H1 5003   1.923   2.630   1.806
 1587WAT     H2 5004   2.070   2.696   1.833
 1588WAT      O 5005   2.940   7.048   1.676
 1588WAT     H1 5006   2.885   7.094   1.745
 1588WAT     H2 5007   2.993   6.975   1.719
 1589WAT      O 5008   3.929   3.590   5.743
 1589WAT     H1 5009   3.980   3.513   5.782
 1589WAT     H2 5010   3.990   3.668   5.731
 1590WAT      O 5011   7.646   4.270   2.886
 1590WAT     H1 5012   7.573   4.208   2.913
 1590WAT     H2 5013   7.606   4.356   2.855
 1591WAT      O 5014   2.620   4.831   1.527
 1591WAT     H1 5015   2.718   4.812   1.532
 1591WAT     H2 5016   2.603   4.925   1.555
 1592WAT      O 5017   3.947   1.377   3.227
 1592WAT     H1 5018   4.002   1.448   3.271
 1592WAT     H2 5019   3.989   1.288   3.245
 1593WAT      O 5020   7.670   9.355   7.296
 1593WAT     H1 5021   7.696   9.268   7.253
 1593WAT     H2 5022   7.653   9.423   7.225
 1594WAT      O 5023   9.625   6.611   4.491
 1594WAT     H1 5024   9.698   6.571   4.547
 1594WAT     H2 5025   9.554   6.649   4.549
 1595WAT      O 5026   5.122   6.815   0.338
 1595WAT     H1 5027   5.214   6.853   0.345
 1595WAT     H2 5028   5.089   6.826   0.244
 1596WAT      O 5029   9.140   3.820   8.199
 1596WAT     H1 5030   9.118   3.875   8.280
 1596WAT     H2 5031   9.063   3.823   8.135
 1597WAT      O 5032   8.453   5.226   9.531
 1597WAT     H1 5033   8.533   5.254   9.583
 1597WAT     H2 5034   8.402   5.308   9.503
 1598WAT      O 5035   4.418   8.036   1.136
 1598WAT     H1 5036   4.411   8.024   1.235
 1598WAT     H2 5037   4.458   7.953   1.096
 1599WAT      O 5038   6.650   3.829   9.302
 1599WAT     H1 5039   6.651   3.748   9.362
 1599WAT     H2 5040   6.630   3.910   9.357
 1600WAT      O 5041   0.969   9.176   1.112
 1600WAT     H1 5042   0.900   9.187   1.041
 1600WAT     H2 5043   1.018   9.262   1.125
 1601WAT      O 5044   8.301   5.597   4.757
 1601WAT     H1 5045   8.325   5.600   4.660
 1601WAT     H2 5046   8.262   5.685   4.786
 1602WAT      O 5047   4.891   8.556   3.249
 1602WAT     H1 5048   4.840   8.507   3.320
 1602WAT     H2 5049   4.893   8.501   3.165
 1603WAT      O 5050   9.167   3.222   8.566
 1603WAT     H1 5051   9.236   3.211   8.638
 1603WAT     H2 5052   9.208   3.200   8.478
 1604WAT      O 5053   2.579   7.608   5.147
 1604WAT     H1 5054   2.566   7.681   5.080
 1604WAT     H2 5055   2.671   7.570   5.138
 1605WAT      O 5056   8.219   0.463   5.240
 1605WAT     H1 5057   8.187   0.508   5.323
 1605WAT     H2 5058   8.310   0.425   5.255
 1606WAT      O 5059   6.397   7.629   2.281
 1606WAT     H1 5060   6.341   7.664   2.206
 1606WAT     H2 5061   6.373   7.677   2.366
 1607WAT      O 5062   4.931   0.106   6.778
 1607WAT     H1 5063   4.910   0.069   6.688
 1607WAT     H2 5064   5.012   0.060   6.815
 1608WAT      O 5065   6.605   4.420   0.462
 1608WAT     H1 5066   6.512   4.423   0.499
 1608WAT     H2 5067   6.651   4.507   0.481
 1609WAT      O 5068   3.577   5.509   9.110
 1609WAT     H1 5069   3.608   5.468   9.196
 1609WAT     H2 5070   3.650   5.563   9.071
 1610WAT      O 5071   3.078   5.961   1.513
 1610WAT     H1 5072   3.122   5.965   1.603
 1610WAT     H2 5073   2.992   5.910   1.520
 1611WAT      O 5074   3.751   6.256   2.447
 1611WAT     H1 5075   3.717   6.321   2.515
 1611WAT     H2 5076   3.848   6.275   2.429
 1612WAT      O 5077   9.328   2.251   8.551
 1612WAT     H1 5078   9.350   2.348   8.563
 1612WAT     H2 5079   9.242   2.231   8.597
 1613WAT      O 5080   8.162   7.784   9.383
 1613WAT     H1 5081   8.253   7.799   9.344
 1613WAT     H2 5082   8.129   7.693   9.356
 1614WAT      O 5083   6.183   5.440   4.513
 1614WAT     H1 5084   6.201   5.433   4.415
 1614WAT     H2 5085   6.259   5.487   4.558
 1615WAT      O 5086   2.321   0.419   0.684
 1615WAT     H1 5087   2.330   0.454   0.590
 1615WAT     H2 5088   2.321   0.319   0.682
 1616WAT      O 5089   0.480   4.970   8.409
 1616WAT     H1 5090   0.471   4.921   8.322
 1616WAT     H2 5091   0.576   4.989   8.427
 1617WAT      O 5092   1.517   7.390   9.495
 1617WAT     H1 5093   1.479   7.351   9.411
 1617WAT     H2 5094   1.515   7.490   9.489
 1618WAT      O 5095   5.355   4.342   2.278
 1618WAT     H1 5096   5.415   4.269   2.310
 1618WAT     H2 5097   5.342   4.409   2.352
 1619WAT      O 5098   1.057   2.695   5.413
 1619WAT     H1 5099   1.024   2.619   5.469
 1619WAT     H2 5100   1.102   2.659   5.331
 1620WAT      O 5101   4.585   4.181   2.450
 1620WAT     H1 5102   4.622   4.136   2.369
 1620WAT     H2 5103   4.649   4.172   2.526
 1621WAT      O 5104   7.016   3.547   9.822
 1621WAT     H1 5105   6.993   3.470   9.882
 1621WAT     H2 5106   6.978   3.631   9.860
 1622WAT      O 5107   1.676   6.561   9.849
 1622WAT     H1 5108   1.734   6.601   9.778
 1622WAT     H2 5109   1.637   6.475   9.815
 1623WAT      O 5110   3.653   4.669   5.640
 1623WAT     H1 5111   3.612   4.745   5.590
 1623WAT     H2 5112   3.693   4.603   5.576
 1624WAT      O 5113   2.543   3.905   3.895
 1624WAT     H1 5114   2.529   3.978   3.962
 1624WAT     H2 5115   2.468   3.907   3.828
 1625WAT      O 5116   4.548   3.762   7.463
 1625WAT     H1 5117   4.591   3.735   7.550
 1625WAT     H2 5118   4.529   3.681   7.409
 1626WAT      O 5119   2.139   4.735   3.789
 1626WAT     H1 5120   2.099   4.820   3.823
 1626WAT     H2 5121   2.073   4.688   3.730
 1627WAT      O 5122   7.114   9.008   6.449
 1627WAT     H1 5123   7.065   8.958   6.521
 1627WAT     H2 5124   7.143   8.944   6.378
 1628WAT      O 5125   0.722   5.064   8.472
 1628WAT     H1 5126   0.759   5.131   8.407
 1628WAT     H2 5127   0.791   4.994   8.490
 1629WAT      O 5128   7.690   1.281   9.706
 1629WAT     H1 5129   7.670   1.199   9.654
 1629WAT     H2 5130   7.725   1.256   9.796
 1630WAT      O 5131   4.912   7.452   9.782
 1630WAT     H1 5132   5.011   7.453   9.790
 1630WAT     H2 5133   4.884   7.503   9.701
 1631WAT      O 5134   6.977   1.321   3.171
 1631WAT     H1 5135   7.067   1.285   3.197
 1631WAT     H2 5136   6.972   1.328   3.071
 1632WAT      O 5137   7.216   3.272   4.801
 1632WAT     H1 5138   7.222   3.176   4.826
 1632WAT     H2 5139   7.121   3.296   4.781
 1633WAT      O 5140   4.071   4.604   6.477
 1633WAT     H1 5141   4.091   4.568   6.386
 1633WAT     H2 5142   3.976   4.585   6.500
 1634WAT      O 5143   4.885   4.940   1.056
 1634WAT     H1 5144   4.896   4.872   1.128
 1634WAT     H2 5145   4.806   4.997   1.076
 1635WAT      O 5146   8.287   5.551   8.692
 1635WAT     H1 5147   8.350   5.628   8.680
 1635WAT     H2 5148   8.256   5.548   8.787
 1636WAT      O 5149   3.212   7.618   4.599
 1636WAT     H1 5150   3.243   7.712   4.589
 1636WAT     H2 5151   3.291   7.559   4.620
 1637WAT      O 5152   3.461   8.497   7.136
 1637WAT     H1 5153   3.505   8.475   7.048
 1637WAT     H2 5154   3.373   8.539   7.118
 1638WAT      O 5155   3.698   5.731   6.982
 1638WAT     H1 5156   3.629   5.726   6.910
 1638WAT     H2 5157   3.765   5.802   6.958
 1639WAT      O 5158   3.958   0.817   6.816
 1639WAT     H1 5159   3.886   0.752   6.790
 1639WAT     H2 5160   3.998   0.857   6.733
 1640WAT      O 5161   9.531   1.242   3.815
 1640WAT     H1 5162   9.452   1.197   3.858
 1640WAT     H2 5163   9.546   1.203   3.724
 1641WAT      O 5164   7.426   2.564   7.951
 1641WAT     H1 5165   7.477   2.483   7.979
 1641WAT     H2 5166   7.335   2.537   7.921
 1642WAT      O 5167   1.509   4.876   5.859
 1642WAT     H1 5168   1.591   4.827   5.890
 1642WAT     H2 5169   1.524   4.975   5.867
 1643WAT      O 5170   8.513   5.241   4.923
 1643WAT     H1 5171   8.551   5.291   5.001
 1643WAT     H2 5172   8.587   5.204   4.868
 1644WAT      O 5173   1.065   2.566   1.522
 1644WAT     H1 5174   1.113   2.503   1.582
 1644WAT     H2 5175   1.131   2.610   1.460
 1645WAT      O 5176   6.758   1.526   0.032
 1645WAT     H1 5177   6.663   1.498   0.050
 1645WAT     H2 5178   6.796   1.568   0.115
 1646WAT      O 5179   1.217   3.452   4.446
 1646WAT     H1 5180   1.256   3.525   4.503
 1646WAT     H2 5181   1.259   3.454   4.356
 1647WAT      O 5182   7.641   4.251   9.046
 1647WAT     H1 5183   7.643   4.209   9.137
 1647WAT     H2 5184   7.546   4.265   9.018
 1648WAT      O 5185   9.314   3.552   3.814
 1648WAT     H1 5186   9.280   3.460   3.831
 1648WAT     H2 5187   9.400   3.566   3.863
 1649WAT      O 5188   1.176   7.091   0.224
 1649WAT     H1 5189   1.184   7.137   0.135
 1649WAT     H2 5190   1.211   6.997   0.216
 1650WAT      O 5191   5.616   3.492   1.888
 1650WAT     H1 5192   5.554   3.483   1.966
 1650WAT     H2 5193   5.566   3.475   1.804
 1651WAT      O 5194   3.228   7.034   5.372
 1651WAT     H1 5195   3.229   6.952   5.429
 1651WAT     H2 5196   3.283   7.106   5.416
 1652WAT      O 5197   1.772   3.732   0.780
 1652WAT     H1 5198   1.853   3.780   0.814
 1652WAT     H2 5199   1.793   3.687   0.694
 1653WAT      O 5200   2.891   6.896   3.089
 1653WAT     H1 5201   2.820   6.966   3.098
 1653WAT     H2 5202   2.941   6.887   3.175
 1654WAT      O 5203   7.721   1.044   6.506
 1654WAT     H1 5204   7.674   0.983   6.570
 1654WAT     H2 5205   7.819   1.025   6.508
 1655WAT      O 5206   8.747   3.634   2.782
 1655WAT     H1 5207   8.825   3.692   2.759
 1655WAT     H2 5208   8.766   3.540   2.754
 1656WAT      O 5209   2.348   1.229   3.802
 1656WAT     H1 5210   2.346   1.304   3.868
 1656WAT     H2 5211   2.435   1.231   3.752
 1657WAT      O 5212   8.906   0.556   0.657
 1657WAT     H1 5213   8.898   0.465   0.616
 1657WAT     H2 5214   8.837   0.568   0.727
 1658WAT      O 5215   8.412   0.647   8.939
 1658WAT     H1 5216   8.414   0.645   9.039
 1658WAT     H2 5217   8.336   0.591   8.906
 1659WAT      O 5218   1.569   0.582   0.798
 1659WAT     H1 5219   1.585   0.577   0.896
 1659WAT     H2 5220   1.550   0.677   0.772
 1660WAT      O 5221   7.460   2.464   8.702
 1660WAT     H1 5222   7.424   2.474   8.794
 1660WAT     H2 5223   7.542   2.520   8.692
 1661WAT      O 5224   0.997   3.934   3.384
 1661WAT     H1 5225   0.967   3.856   3.329
 1661WAT     H2 5226   1.093   3.952   3.365
 1662WAT      O 5227   2.652   9.558   5.950
 1662WAT     H1 5228   2.554   9.567   5.929
 1662WAT     H2 5229   2.671   9.606   6.036
 1663WAT      O 5230   6.897   2.249   4.768
 1663WAT     H1 5231   6.803   2.216   4.780
 1663WAT     H2 5232   6.941   2.256   4.857
 1664WAT      O 5233   4.592   2.186   1.896
 1664WAT     H1 5234   4.624   2.165   1.988
 1664WAT     H2 5235   4.643   2.263   1.859
 1665WAT      O 5236   0.900   2.076   8.560
 1665WAT     H1 5237   0.973   2.108   8.499
 1665WAT     H2 5238   0.884   1.979   8.544
 1666WAT      O 5239   3.382   4.012   2.683
 1666WAT     H1 5240   3.317   3.948   2.725
 1666WAT     H2 5241   3.472   3.969   2.679
 1667WAT      O 5242   7.543   8.649   0.499
 1667WAT     H1 5243   7.611   8.710   0.457
 1667WAT     H2 5244   7.462   8.702   0.524
 1668WAT      O 5245   2.953   5.167   2.413
 1668WAT     H1 5246   2.993   5.252   2.446
 1668WAT     H2 5247   3.005   5.134   2.334
 1669WAT      O 5248   7.161   0.369   3.805
 1669WAT     H1 5249   7.077   0.421   3.789
 1669WAT     H2 5250   7.141   0.271   3.800
 1670WAT      O 5251   7.056   4.047   0.606
 1670WAT     H1 5252   7.033   4.063   0.510
 1670WAT     H2 5253   7.032   4.128   0.659
 1671WAT      O 5254   0.071   1.846   4.833
 1671WAT     H1 5255   0.015   1.822   4.912
 1671WAT     H2 5256   0.012   1.883   4.761
 1672WAT      O 5257   3.777   2.439   3.260
 1672WAT     H1 5258   3.769   2.495   3.343
 1672WAT     H2 5259   3.759   2.343   3.283
 1673WAT      O 5260   6.123   4.339   1.874
 1673WAT     H1 5261   6.119   4.392   1.959
 1673WAT     H2 5262   6.052   4.268   1.875
 1674WAT      O 5263   6.809   9.514   0.400
 1674WAT     H1 5264   6.865   9.432   0.384
 1674WAT     H2 5265   6.822   9.545   0.494
 1675WAT      O 5266   6.641   2.450   8.839
 1675WAT     H1 5267   6.664   2.439   8.935
 1675WAT     H2 5268   6.575   2.525   8.828
 1676WAT      O 5269   3.970   5.581   2.166
 1676WAT     H1 5270   3.958   5.489   2.130
 1676WAT     H2 5271   3.887   5.610   2.213
 1677WAT      O 5272   3.262   4.193   1.085
 1677WAT     H1 5273   3.351   4.232   1.110
 1677WAT     H2 5274   3.261   4.096   1.108
 1678WAT      O 5275   6.446   7.754   8.098
 1678WAT     H1 5276   6.416   7.702   8.018
 1678WAT     H2 5277   6.534   7.796   8.079
 1679WAT      O 5278   9.390   7.740   1.684
 1679WAT     H1 5279   9.323   7.742   1.758
 1679WAT     H2 5280   9.408   7.834   1.652
 1680WAT      O 5281   6.932   1.364   9.186
 1680WAT     H1 5282   7.031   1.376   9.191
 1680WAT     H2 5283   6.907   1.328   9.097
 1681WAT      O 5284   5.624   2.390   1.118
 1681WAT     H1 5285   5.556   2.341   1.063
 1681WAT     H2 5286   5.643   2.339   1.201
 1682WAT      O 5287   8.546   8.043   0.674
 1682WAT     H1 5288   8.620   8.015   0.613
 1682WAT     H2 5289   8.495   7.962   0.704
 1683WAT      O 5290   3.486   7.413   6.574
 1683WAT     H1 5291   3.392   7.442   6.556
 1683WAT     H2 5292   3.489   7.314   6.580
 1684WAT      O 5293   7.780   0.290   2.817
 1684WAT     H1 5294   7.855   0.349   2.789
 1684WAT     H2 5295   7.773   0.212   2.755
 1685WAT      O 5296   7.115   2.536   1.532
 1685WAT     H1 5297   7.205   2.579   1.529
 1685WAT     H2 5298   7.048   2.595   1.488
 1686WAT      O 5299   7.775   2.791   6.704
 1686WAT     H1 5300   7.745   2.864   6.766
 1686WAT     H2 5301   7.872   2.800   6.685
 1687WAT      O 5302   6.226   1.327   0.815
 1687WAT     H1 5303   6.272   1.300   0.899
 1687WAT     H2 5304   6.293   1.350   0.745
 1688WAT      O 5305   4.842   1.536   7.093
 1688WAT     H1 5306   4.877   1.526   7.185
 1688WAT     H2 5307   4.816   1.631   7.077
 1689WAT      O 5308   2.640   9.263   4.375
 1689WAT     H1 5309   2.698   9.317   4.436
 1689WAT     H2 5310   2.607   9.182   4.424
 1690WAT      O 5311   6.974   6.948   2.570
 1690WAT     H1 5312   6.989   6.953   2.471
 1690WAT     H2 5313   7.061   6.958   2.618
 1691WAT      O 5314   8.647   3.015   0.879
 1691WAT     H1 5315   8.684   3.070   0.803
 1691WAT     H2 5316   8.720   2.998   0.945
 1692WAT      O 5317   2.005   8.630   0.739
 1692WAT     H1 5318   1.969   8.661   0.827
 1692WAT     H2 5319   1.930   8.615   0.676
 1693WAT      O 5320   2.613   5.844   6.866
 1693WAT     H1 5321   2.602   5.924   6.807
 1693WAT     H2 5322   2.663   5.871   6.949
 1694WAT      O 5323   3.696   4.568   2.791
 1694WAT     H1 5324   3.614   4.620   2.814
 1694WAT     H2 5325   3.679   4.511   2.711
 1695WAT      O 5326   8.304   3.326   1.731
 1695WAT     H1 5327   8.294   3.329   1.831
 1695WAT     H2 5328   8.372   3.394   1.703
 1696WAT      O 5329   8.890   5.335   3.612
 1696WAT     H1 5330   8.859   5.375   3.526
 1696WAT     H2 5331   8.935   5.247   3.594
 1697WAT      O 5332   8.077   3.369   8.492
 1697WAT     H1 5333   8.141   3.445   8.504
 1697WAT     H2 5334   8.129   3.284   8.481
 1698WAT      O 5335   8.321   3.686   2.965
 1698WAT     H1 5336   8.381   3.712   2.890
 1698WAT     H2 5337   8.273   3.601   2.942
 1699WAT      O 5338   6.300   2.423   8.871
 1699WAT     H1 5339   6.207   2.438   8.903
 1699WAT     H2 5340   6.334   2.335   8.904
 1700WAT      O 5341   4.657   1.152   1.256
 1700WAT     H1 5342   4.724   1.171   1.327
 1700WAT     H2 5343   4.609   1.236   1.231
 1701WAT      O 5344   1.854   9.680   7.920
 1701WAT     H1 5345   1.839   9.643   7.828
 1701WAT     H2 5346   1.902   9.767   7.914
 1702WAT      O 5347   7.108   2.757   0.385
 1702WAT     H1 5348   7.171   2.715   0.320
 1702WAT     H2 5349   7.027   2.791   0.337
 1703WAT      O 5350   1.705   3.146   2.871
 1703WAT     H1 5351   1.676   3.162   2.776
 1703WAT     H2 5352   1.637   3.089   2.917
 1704WAT      O 5353   1.784   4.153   9.305
 1704WAT     H1 5354   1.820   4.118   9.219
 1704WAT     H2 5355   1.685   4.147   9.305
 1705WAT      O 5356   7.286   3.629   7.780
 1705WAT     H1 5357   7.384   3.611   7.780
 1705WAT     H2 5358   7.259   3.663   7.690
 1706WAT      O 5359   5.616   9.027   3.756
 1706WAT     H1 5360   5.591   9.121   3.780
 1706WAT     H2 5361   5.630   9.022   3.657
 1707WAT      O 5362   4.708   0.566   5.400
 1707WAT     H1 5363   4.777   0.565   5.327
 1707WAT     H2 5364   4.749   0.605   5.483
 1708WAT      O 5365   2.270   6.128   3.160
 1708WAT     H1 5366   2.244   6.198   3.226
 1708WAT     H2 5367   2.337   6.166   3.096
 1709WAT      O 5368   8.570   4.070   2.946
 1709WAT     H1 5369   8.514   4.146   2.912
 1709WAT     H2 5370   8.600   4.014   2.870
 1710WAT      O 5371   5.708   8.592   4.490
 1710WAT     H1 5372   5.668   8.680   4.463
 1710WAT     H2 5373   5.658   8.518   4.445
 1711WAT      O 5374   9.113   7.137   1.272
 1711WAT     H1 5375   9.101   7.235   1.259
 1711WAT     H2 5376   9.128   7.093   1.183
 1712WAT      O 5377   5.986   6.488   2.208
 1712WAT     H1 5378   5.945   6.455   2.293
 1712WAT     H2 5379   5.942   6.444   2.130
 1713WAT      O 5380   6.458   6.272   0.111
 1713WAT     H1 5381   6.376   6.282   0.168
 1713WAT     H2 5382   6.538   6.303   0.162
 1714WAT      O 5383   5.647   4.432   1.558
 1714WAT     H1 5384   5.583   4.362   1.525
 1714WAT     H2 5385   5.740   4.405   1.535
 1715WAT      O 5386   4.212   2.327   8.935
 1715WAT     H1 5387   4.144   2.348   8.864
 1715WAT     H2 5388   4.211   2.228   8.952
 1716WAT      O 5389   6.760   5.297   8.923
 1716WAT     H1 5390   6.756   5.268   8.828
 1716WAT     H2 5391   6.763   5.216   8.982
 1717WAT      O 5392   7.166   8.544   3.547
 1717WAT     H1 5393   7.265   8.531   3.551
 1717WAT     H2 5394   7.129   8.543   3.640
 1718WAT      O 5395   3.483   0.867   8.891
 1718WAT     H1 5396   3.577   0.899   8.898
 1718WAT     H2 5397   3.455   0.824   8.977
 1719WAT      O 5398   2.943   2.541   9.735
 1719WAT     H1 5399   2.911   2.496   9.651
 1719WAT     H2 5400   2.910   2.490   9.814
 1720WAT      O 5401   0.110   7.087   6.268
 1720WAT     H1 5402   0.120   7.055   6.174
 1720WAT     H2 5403   0.182   7.154   6.288
 1721WAT      O 5404   5.476   0.597   4.481
 1721WAT     H1 5405   5.465   0.580   4.383
 1721WAT     H2 5406   5.523   0.684   4.494
 1722WAT      O 5407   7.086   8.096   1.235
 1722WAT     H1 5408   7.045   8.088   1.326
 1722WAT     H2 5409   7.181   8.127   1.243
 1723WAT      O 5410   9.731   7.249   0.719
 1723WAT     H1 5411   9.680   7.280   0.799
 1723WAT     H2 5412   9.820   7.214   0.748
 1724WAT      O 5413   3.734   5.511   1.661
 1724WAT     H1 5414   3.746   5.474   1.569
 1724WAT     H2 5415   3.640   5.542   1.672
 1725WAT      O 5416   6.824   7.710   0.046
 1725WAT     H1 5417   6.886   7.643   0.005
 1725WAT     H2 5418   6.731   7.673   0.044
 1726WAT      O 5419   9.404   8.546   1.968
 1726WAT     H1 5420   9.459   8.523   2.049
 1726WAT     H2 5421   9.452   8.515   1.886
 1727WAT      O 5422   1.479   0.403   4.946
 1727WAT     H1 5423   1.417   0.458   5.001
 1727WAT     H2 5424   1.556   0.459   4.916
 1728WAT      O 5425   3.474   2.074   4.807
 1728WAT     H1 5426   3.488   1.989   4.859
 1728WAT     H2 5427   3.450   2.051   4.712
 1729WAT      O 5428   8.083   9.131   6.566
 1729WAT     H1 5429   8.012   9.191   6.527
 1729WAT     H2 5430   8.149   9.187   6.616
 1730WAT      O 5431   4.463   5.243   8.775
 1730WAT     H1 5432   4.439   5.193   8.692
 1730WAT     H2 5433   4.541   5.302   8.757
 1731WAT      O 5434   2.506   9.109   0.482
 1731WAT     H1 5435   2.553   9.173   0.421
 1731WAT     H2 5436   2.408   9.125   0.479
 1732WAT      O 5437   0.259   6.905   0.603
 1732WAT     H1 5438   0.245   6.928   0.507
 1732WAT     H2 5439   0.339   6.845   0.612
 1733WAT      O 5440   2.393   8.690   3.459
 1733WAT     H1 5441   2.485   8.723   3.480
 1733WAT     H2 5442   2.400   8.602   3.412
 1734WAT      O 5443   4.047   2.575   4.692
 1734WAT     H1 5444   4.022   2.640   4.620
 1734WAT     H2 5445   3.969   2.515   4.711
 1735WAT      O 5446   0.374   9.633   0.877
 1735WAT     H1 5447   0.424   9.694   0.816
 1735WAT     H2 5448   0.327   9.687   0.947
 1736WAT      O 5449   0.531   6.808   4.612
 1736WAT     H1 5450   0.502   6.718   4.646
 1736WAT     H2 5451   0.488   6.825   4.523
 1737WAT      O 5452   5.527   8.702   6.043
 1737WAT     H1 5453   5.432   8.676   6.056
 1737WAT     H2 5454   5.536   8.757   5.960
 1738WAT      O 5455   7.662   7.217   8.422
 1738WAT     H1 5456   7.631   7.143   8.363
 1738WAT     H2 5457   7.687   7.296   8.365
 1739WAT      O 5458   4.203   2.941   5.379
 1739WAT     H1 5459   4.238   2.969   5.468
 1739WAT     H2 5460   4.279   2.913   5.320
 1740WAT      O 5461   9.380   1.546   6.715
 1740WAT     H1 5462   9.285   1.513   6.707
 1740WAT     H2 5463   9.422   1.550   6.625
 1741WAT      O 5464   5.003   3.110   8.872
 1741WAT     H1 5465   4.948   3.140   8.950
 1741WAT     H2 5466   5.060   3.033   8.899
 1742WAT      O 5467   7.131   0.067   5.014
 1742WAT     H1 5468   7.058   0.122   4.974
 1742WAT     H2 5469   7.097  -0.026   5.032
 1743WAT      O 5470   6.886   9.234   0.077
 1743WAT     H1 5471   6.954   9.168   0.045
 1743WAT     H2 5472   6.801   9.187   0.097
 1744WAT      O 5473   7.042   9.353   8.301
 1744WAT     H1 5474   7.015   9.449   8.299
 1744WAT     H2 5475   6.961   9.295   8.296
 1745WAT      O 5476   3.911   9.249   3.373
 1745WAT     H1 5477   3.933   9.248   3.276
 1745WAT     H2 5478   3.815   9.226   3.386
 1746WAT      O 5479   9.035   3.200   5.849
 1746WAT     H1 5480   9.017   3.225   5.944
 1746WAT     H2 5481   9.124   3.236   5.821
 1747WAT      O 5482   0.556   2.885   8.462
 1747WAT     H1 5483   0.556   2.971   8.513
 1747WAT     H2 5484   0.466   2.842   8.469
 1748WAT      O 5485   6.533   2.954   8.594
 1748WAT     H1 5486   6.468   2.962   8.519
 1748WAT     H2 5487   6.594   3.034   8.595
 1749WAT      O 5488   1.320   4.609   5.260
 1749WAT     H1 5489   1.239   4.645   5.214
 1749WAT     H2 5490   1.339   4.517   5.224
 1750WAT      O 5491   9.311   8.133   3.498
 1750WAT     H1 5492   9.276   8.044   3.527
 1750WAT     H2 5493   9.241   8.203   3.514
 1751WAT      O 5494   2.605   2.572   4.053
 1751WAT     H1 5495   2.660   2.647   4.089
 1751WAT     H2 5496   2.538   2.544   4.122
 1752WAT      O 5497   1.368   8.236   8.772
 1752WAT     H1 5498   1.448   8.292   8.791
 1752WAT     H2 5499   1.383   8.143   8.805
 1753WAT      O 5500   6.394   2.209   8.992
 1753WAT     H1 5501   6.306   2.163   8.986
 1753WAT     H2 5502   6.465   2.152   8.951
 1754WAT      O 5503   3.280   1.839   9.456
 1754WAT     H1 5504   3.279   1.781   9.537
 1754WAT     H2 5505   3.272   1.935   9.484
 1755WAT      O 5506   8.296   9.334   4.617
 1755WAT     H1 5507   8.209   9.382   4.606
 1755WAT     H2 5508   8.358   9.389   4.673
 1756WAT      O 5509   3.086   8.557   9.110
 1756WAT     H1 5510   3.067   8.470   9.155
 1756WAT     H2 5511   3.133   8.540   9.023
 1757WAT      O 5512   8.769   0.206   3.803
 1757WAT     H1 5513   8.757   0.117   3.848
 1757WAT     H2 5514   8.681   0.239   3.769
 1758WAT      O 5515   4.658   4.291   7.795
 1758WAT     H1 5516   4.703   4.218   7.846
 1758WAT     H2 5517   4.561   4.293   7.819
 1759WAT      O 5518   6.754   7.805   8.360
 1759WAT     H1 5519   6.689   7.879   8.378
 1759WAT     H2 5520   6.711   7.717   8.375
 1760WAT      O 5521   1.025   5.301   8.740
 1760WAT     H1 5522   0.977   5.371   8.686
 1760WAT     H2 5523   0.961   5.229   8.766
 1761WAT      O 5524   3.384   1.852   9.886
 1761WAT     H1 5525   3.339   1.831   9.973
 1761WAT     H2 5526   3.420   1.946   9.889
 1762WAT      O 5527   0.948   9.645   7.484
 1762WAT     H1 5528   1.033   9.698   7.485
 1762WAT     H2 5529   0.874   9.700   7.521
 1763WAT      O 5530   3.659   0.881   4.237
 1763WAT     H1 5531   3.684   0.840   4.149
 1763WAT     H2 5532   3.586   0.947   4.223
 1764WAT      O 5533   9.838   2.252   1.237
 1764WAT     H1 5534   9.937   2.268   1.236
 1764WAT     H2 5535   9.790   2.338   1.250
 1765WAT      O 5536   4.582   8.091   7.043
 1765WAT     H1 5537   4.531   8.008   7.021
 1765WAT     H2 5538   4.522   8.170   7.037
 1766WAT      O 5539   2.384   8.661   4.764
 1766WAT     H1 5540   2.368   8.633   4.858
 1766WAT     H2 5541   2.299   8.652   4.711
 1767WAT      O 5542   9.072   5.057   3.122
 1767WAT     H1 5543   9.167   5.029   3.124
 1767WAT     H2 5544   9.046   5.077   3.027
 1768WAT      O 5545   1.961   5.805   4.978
 1768WAT     H1 5546   1.896   5.831   4.907
 1768WAT     H2 5547   2.038   5.756   4.936
 1769WAT      O 5548   9.475   4.048   5.088
 1769WAT     H1 5549   9.528   4.106   5.149
 1769WAT     H2 5550   9.394   4.098   5.057
 1770WAT      O 5551   6.077   6.260   1.612
 1770WAT     H1 5552   6.138   6.234   1.687
 1770WAT     H2 5553   6.017   6.184   1.590
 1771WAT      O 5554   5.444   4.790   6.636
 1771WAT     H1 5555   5.508   4.761   6.564
 1771WAT     H2 5556   5.418   4.885   6.620
 1772WAT      O 5557   6.020   0.405   0.584
 1772WAT     H1 5558   6.095   0.386   0.648
 1772WAT     H2 5559   5.933   0.404   0.633
 1773WAT      O 5560   5.787   2.186   6.981
 1773WAT     H1 5561   5.834   2.188   7.070
 1773WAT     H2 5562   5.805   2.271   6.931
 1774WAT      O 5563   8.826   4.022   3.064
 1774WAT     H1 5564   8.822   3.961   3.144
 1774WAT     H2 5565   8.734   4.045   3.035
 1775WAT      O 5566   3.028   3.918   7.927
 1775WAT     H1 5567   3.081   3.918   8.012
 1775WAT     H2 5568   3.021   3.825   7.892
 1776WAT      O 5569   2.276   4.048   1.419
 1776WAT     H1 5570   2.348   4.018   1.481
 1776WAT     H2 5571   2.222   3.969   1.389
 1777WAT      O 5572   2.289   7.816   5.472
 1777WAT     H1 5573   2.385   7.820   5.499
 1777WAT     H2 5574   2.244   7.740   5.520
 1778WAT      O 5575   6.231   9.103   9.488
 1778WAT     H1 5576   6.272   9.192   9.507
 1778WAT     H2 5577   6.299   9.031   9.498
 1779WAT      O 5578   0.603   8.597   4.470
 1779WAT     H1 5579   0.616   8.644   4.557
 1779WAT     H2 5580   0.552   8.512   4.484
 1780WAT      O 5581   7.328   8.279   4.322
 1780WAT     H1 5582   7.389   8.328   4.260
 1780WAT     H2 5583   7.247   8.335   4.340
 1781WAT      O 5584   8.748   1.019   3.136
 1781WAT     H1 5585   8.689   1.061   3.204
 1781WAT     H2 5586   8.695   0.957   3.079
 1782WAT      O 5587   9.475   4.337   2.140
 1782WAT     H1 5588   9.444   4.286   2.220
 1782WAT     H2 5589   9.486   4.274   2.063
 1783WAT      O 5590   8.278   1.958   7.720
 1783WAT     H1 5591   8.195   1.917   7.758
 1783WAT     H2 5592   8.255   2.013   7.640
 1784WAT      O 5593   3.798   7.622   9.537
 1784WAT     H1 5594   3.755   7.696   9.485
 1784WAT     H2 5595   3.732   7.548   9.550
 1785WAT      O 5596   7.923   7.523   1.561
 1785WAT     H1 5597   7.849   7.466   1.594
 1785WAT     H2 5598   7.967   7.480   1.482
 1786WAT      O 5599   6.673   6.439   8.827
 1786WAT     H1 5600   6.597   6.399   8.775
 1786WAT     H2 5601   6.642   6.524   8.869
 1787WAT      O 5602   0.998   3.355   9.858
 1787WAT     H1 5603   1.071   3.394   9.914
 1787WAT     H2 5604   1.035   3.279   9.804
 1788WAT      O 5605   1.046   1.730   1.293
 1788WAT     H1 5606   1.116   1.661   1.313
 1788WAT     H2 5607   1.005   1.762   1.379
 1789WAT      O 5608   4.682   0.964   0.333
 1789WAT     H1 5609   4.684   0.867   0.354
 1789WAT     H2 5610   4.588   0.992   0.314
 1790WAT      O 5611   1.760   3.448   9.325
 1790WAT     H1 5612   1.757   3.365   9.381
 1790WAT     H2 5613   1.852   3.487   9.328
 1791WAT      O 5614   9.336   3.680   4.227
 1791WAT     H1 5615   9.368   3.773   4.240
 1791WAT     H2 5616   9.331   3.634   4.316
 1792WAT      O 5617   4.263   6.701   3.352
 1792WAT     H1 5618   4.306   6.786   3.381
 1792WAT     H2 5619   4.174   6.692   3.397
 1793WAT      O 5620   3.341   0.275   0.562
 1793WAT     H1 5621   3.358   0.286   0.660
 1793WAT     H2 5622   3.414   0.221   0.521
 1794WAT      O 5623   2.619   8.017   0.968
 1794WAT     H1 5624   2.581   8.022   0.876
 1794WAT     H2 5625   2.551   7.978   1.030
 1795WAT      O 5626   6.610   4.742   5.209
 1795WAT     H1 5627   6.686   4.680   5.190
 1795WAT     H2 5628   6.532   4.690   5.244
 1796WAT      O 5629   9.067   0.315   9.633
 1796WAT     H1 5630   9.030   0.331   9.725
 1796WAT     H2 5631   9.130   0.389   9.609
 1797WAT      O 5632   2.865   0.629   0.682
 1797WAT     H1 5633   2.799   0.644   0.755
 1797WAT     H2 5634   2.819   0.631   0.593
 1798WAT      O 5635   7.409   0.251   0.238
 1798WAT     H1 5636   7.342   0.280   0.305
 1798WAT     H2 5637   7.377   0.169   0.191
 1799WAT      O 5638   7.708   2.983   0.015
 1799WAT     H1 5639   7.647   3.002   0.092
 1799WAT     H2 5640   7.759   2.899   0.034
 1800WAT      O 5641   7.368   8.721   2.963
 1800WAT     H1 5642   7.374   8.807   2.912
 1800WAT     H2 5643   7.284   8.719   3.016
 1801WAT      O 5644   5.854   3.680   0.597
 1801WAT     H1 5645   5.790   3.609   0.627
 1801WAT     H2 5646   5.948   3.649   0.612
 1802WAT      O 5647   9.215   2.170   5.680
 1802WAT     H1 5648   9.129   2.204   5.719
 1802WAT     H2 5649   9.245   2.231   5.607
 1803WAT      O 5650   9.760   5.414   1.430
 1803WAT     H1 5651   9.840   5.473   1.425
 1803WAT     H2 5652   9.678   5.468   1.412
 1804WAT      O 5653   7.710   4.935   1.012
 1804WAT     H1 5654   7.635   4.939   1.077
 1804WAT     H2 5655   7.740   4.840   1.001
 1805WAT      O 5656   4.876   6.874   1.623
 1805WAT     H1 5657   4.784   6.862   1.585
 1805WAT     H2 5658   4.919   6.785   1.635
 1806WAT      O 5659   8.331   8.821   5.441
 1806WAT     H1 5660   8.379   8.754   5.497
 1806WAT     H2 5661   8.378   8.909   5.448
 1807WAT      O 5662   7.993   4.627   7.787
 1807WAT     H1 5663   7.953   4.544   7.749
 1807WAT     H2 5664   8.087   4.608   7.816
 1808WAT      O 5665   2.078   7.035   0.696
 1808WAT     H1 5666   2.005   7.084   0.649
 1808WAT     H2 5667   2.039   6.978   0.768
 1809WAT      O 5668   2.097   1.384   0.048
 1809WAT     H1 5669   2.170   1.451   0.030
 1809WAT     H2 5670   2.112   1.303  -0.008
 1810WAT      O 5671   3.145   4.942   7.881
 1810WAT     H1 5672   3.219   4.889   7.841
 1810WAT     H2 5673   3.084   4.881   7.932
 1811WAT      O 5674   1.828   2.571   6.365
 1811WAT     H1 5675   1.801   2.589   6.460
 1811WAT     H2 5676   1.804   2.477   6.341
 1812WAT      O 5677   8.547   7.011   3.636
 1812WAT     H1 5678   8.487   6.962   3.698
 1812WAT     H2 5679   8.598   7.081   3.686
 1813WAT      O 5680   9.199   1.535   6.972
 1813WAT     H1 5681   9.123   1.594   7.002
 1813WAT     H2 5682   9.191   1.518   6.874
 1814WAT      O 5683   3.289   1.495   4.009
 1814WAT     H1 5684   3.254   1.483   4.102
 1814WAT     H2 5685   3.278   1.411   3.957
 1815WAT      O 5686   7.777   1.021   4.540
 1815WAT     H1 5687   7.804   1.034   4.636
 1815WAT     H2 5688   7.677   1.025   4.533
 1816WAT      O 5689   7.431   1.648   2.054
 1816WAT     H1 5690   7.381   1.670   1.969
 1816WAT     H2 5691   7.381   1.684   2.132
 1817WAT      O 5692   7.641   1.995   1.662
 1817WAT     H1 5693   7.573   1.923   1.658
 1817WAT     H2 5694   7.596   2.084   1.670
 1818WAT      O 5695   1.406   7.852   4.620
 1818WAT     H1 5696   1.331   7.876   4.559
 1818WAT     H2 5697   1.488   7.903   4.594
 1819WAT      O 5698   0.256   9.315   6.268
 1819WAT     H1 5699   0.274   9.268   6.354
 1819WAT     H2 5700   0.229   9.248   6.198
 1820WAT      O 5701   6.977   6.932   3.086
 1820WAT     H1 5702   6.883   6.940   3.120
 1820WAT     H2 5703   7.021   6.853   3.129
 1821WAT      O 5704   0.949   9.476   0.390
 1821WAT     H1 5705   1.033   9.522   0.363
 1821WAT     H2 5706   0.914   9.423   0.313
 1822WAT      O 5707   0.927   0.498   6.235
 1822WAT     H1 5708   0.917   0.554   6.318
 1822WAT     H2 5709   0.896   0.549   6.156
 1823WAT      O 5710   2.073   5.043   2.175
 1823WAT     H1 5711   2.135   4.988   2.231
 1823WAT     H2 5712   2.003   4.984   2.135
 1824WAT      O 5713   7.917   6.819   7.501
 1824WAT     H1 5714   7.990   6.753   7.518
 1824WAT     H2 5715   7.953   6.896   7.448
 1825WAT      O 5716   2.319   3.068   9.084
 1825WAT     H1 5717   2.357   3.075   8.992
 1825WAT     H2 5718   2.363   3.135   9.143
 1826WAT      O 5719   6.973   0.508   7.185
 1826WAT     H1 5720   6.892   0.559   7.155
 1826WAT     H2 5721   7.052   0.537   7.131
 1827WAT      O 5722   4.198   5.735   7.909
 1827WAT     H1 5723   4.150   5.650   7.933
 1827WAT     H2 5724   4.296   5.718   7.906
 1828WAT      O 5725   8.410   5.027   3.958
 1828WAT     H1 5726   8.452   4.971   4.030
 1828WAT     H2 5727   8.479   5.050   3.890
 1829WAT      O 5728   2.392   3.435   6.927
 1829WAT     H1 5729   2.450   3.422   6.846
 1829WAT     H2 5730   2.342   3.521   6.918
 1830WAT      O 5731   6.414   6.598   2.690
 1830WAT     H1 5732   6.346   6.618   2.620
 1830WAT     H2 5733   6.500   6.644   2.666
 1831WAT      O 5734   3.826   9.824   9.493
 1831WAT     H1 5735   3.779   9.795   9.410
 1831WAT     H2 5736   3.798   9.916   9.517
 1832WAT      O 5737   8.398   9.814   2.300
 1832WAT     H1 5738   8.332   9.889   2.294
 1832WAT     H2 5739   8.357   9.730   2.264
 1833WAT      O 5740   0.606   2.172   9.008
 1833WAT     H1 5741   0.509   2.171   9.034
 1833WAT     H2 5742   0.640   2.266   9.009
 1834WAT      O 5743   3.680   4.799   2.167
 1834WAT     H1 5744   3.687   4.898   2.176
 1834WAT     H2 5745   3.769   4.761   2.142
 1835WAT      O 5746   9.330   6.361   9.710
 1835WAT     H1 5747   9.338   6.405   9.799
 1835WAT     H2 5748   9.234   6.349   9.687
 1836WAT      O 5749   6.477   5.291   0.702
 1836WAT     H1 5750   6.574   5.302   0.723
 1836WAT     H2 5751   6.466   5.265   0.606
 1837WAT      O 5752   6.273   6.371   5.915
 1837WAT     H1 5753   6.314   6.280   5.920
 1837WAT     H2 5754   6.344   6.438   5.894
 1838WAT      O 5755   0.683   5.430   7.997
 1838WAT     H1 5756   0.717   5.523   8.001
 1838WAT     H2 5757   0.650   5.402   8.087
 1839WAT      O 5758   7.549   5.664   0.176
 1839WAT     H1 5759   7.641   5.684   0.209
 1839WAT     H2 5760   7.548   5.664   0.076
 1840WAT      O 5761   1.195   6.941   8.105
 1840WAT     H1 5762   1.130   6.865   8.106
 1840WAT     H2 5763   1.276   6.915   8.053
 1841WAT      O 5764   7.540   5.456   1.920
 1841WAT     H1 5765   7.639   5.452   1.932
 1841WAT     H2 5766   7.498   5.496   2.000
 1842WAT      O 5767   6.640   4.814   1.533
 1842WAT     H1 5768   6.613   4.721   1.558
 1842WAT     H2 5769   6.589   4.879   1.588
 1843WAT      O 5770   8.107   3.001   0.757
 1843WAT     H1 5771   8.182   2.988   0.822
 1843WAT     H2 5772   8.021   2.970   0.799
 1844WAT      O 5773   3.285   3.601   2.151
 1844WAT     H1 5774   3.325   3.584   2.061
 1844WAT     H2 5775   3.324   3.537   2.217
 1845WAT      O 5776   8.236   6.303   2.037
 1845WAT     H1 5777   8.238   6.388   1.985
 1845WAT     H2 5778   8.323   6.255   2.026
 1846WAT      O 5779   7.079   8.080   0.016
 1846WAT     H1 5780   7.138   8.061   0.094
 1846WAT     H2 5781   6.998   8.021   0.020
 1847WAT      O 5782   8.211   3.430   1.982
 1847WAT     H1 5783   8.301   3.472   1.994
 1847WAT     H2 5784   8.194   3.366   2.056
 1848WAT      O 5785   5.978   8.103   8.191
 1848WAT     H1 5786   5.887   8.095   8.148
 1848WAT     H2 5787   5.989   8.031   8.259
 1849WAT      O 5788   7.040   0.780   3.517
 1849WAT     H1 5789   7.087   0.868   3.510
 1849WAT     H2 5790   7.104   0.707   3.494
 1850WAT      O 5791   9.622   6.262   7.938
 1850WAT     H1 5792   9.650   6.356   7.920
 1850WAT     H2 5793   9.584   6.221   7.855
 1851WAT      O 5794   7.607   9.268   3.778
 1851WAT     H1 5795   7.543   9.299   3.708
 1851WAT     H2 5796   7.559   9.257   3.865
 1852WAT      O 5797   8.557   1.190   1.377
 1852WAT     H1 5798   8.536   1.093   1.367
 1852WAT     H2 5799   8.655   1.205   1.361
 1853WAT      O 5800   6.480   0.598   8.442
 1853WAT     H1 5801   6.578   0.616   8.434
 1853WAT     H2 5802   6.466   0.503   8.471
 1854WAT      O 5803   4.940   3.145   0.562
 1854WAT     H1 5804   4.976   3.230   0.524
 1854WAT     H2 5805   4.901   3.163   0.653
 1855WAT      O 5806   1.414   7.558   3.891
 1855WAT     H1 5807   1.422   7.570   3.792
 1855WAT     H2 5808   1.480   7.489   3.921
 1856WAT      O 5809   9.893   2.903   6.864
 1856WAT     H1 5810   9.823   2.831   6.866
 1856WAT     H2 5811   9.892   2.949   6.775
 1857WAT      O 5812   4.393   0.202   8.864
 1857WAT     H1 5813   4.393   0.205   8.964
 1857WAT     H2 5814   4.488   0.203   8.831
 1858WAT      O 5815   1.934   0.550   0.908
 1858WAT     H1 5816   2.034   0.547   0.911
 1858WAT     H2 5817   1.896   0.465   0.945
 1859WAT      O 5818   4.947   4.273   1.258
 1859WAT     H1 5819   4.942   4.247   1.355
 1859WAT     H2 5820   5.024   4.226   1.215
 1860WAT      O 5821   7.509   2.864   3.856
 1860WAT     H1 5822   7.569   2.806   3.801
 1860WAT     H2 5823   7.510   2.957   3.819
 1861WAT      O 5824   5.363   6.593   7.474
 1861WAT     H1 5825   5.457   6.577   7.443
 1861WAT     H2 5826   5.340   6.526   7.545
 1862WAT      O 5827   1.750   0.578   1.598
 1862WAT     H1 5828   1.666   0.592   1.652
 1862WAT     H2 5829   1.768   0.480   1.591
 1863WAT      O 5830   3.093   5.290   0.826
 1863WAT     H1 5831   3.160   5.225   0.790
 1863WAT     H2 5832   3.134   5.343   0.900
 1864WAT      O 5833   0.397   0.758   2.251
 1864WAT     H1 5834   0.399   0.680   2.188
 1864WAT     H2 5835   0.348   0.834   2.208
 1865WAT      O 5836   9.853   6.034   6.523
 1865WAT     H1 5837   9.847   5.965   6.450
 1865WAT     H2 5838   9.945   6.034   6.561
 1866WAT      O 5839   5.219   9.621   3.619
 1866WAT     H1 5840   5.190   9.544   3.562
 1866WAT     H2 5841   5.313   9.645   3.597
 1867WAT      O 5842   6.911   8.442   0.187
 1867WAT     H1 5843   6.988   8.416   0.129
 1867WAT     H2 5844   6.842   8.491   0.133
 1868WAT      O 5845   2.990   0.017   0.455
 1868WAT     H1 5846   2.893   0.011   0.475
 1868WAT     H2 5847   3.022  -0.070   0.417
 1869WAT      O 5848   4.970   8.621   4.711
 1869WAT     H1 5849   4.984   8.720   4.723
 1869WAT     H2 5850   5.050   8.572   4.745
 1870WAT      O 5851   5.256   2.519   8.659
 1870WAT     H1 5852   5.204   2.599   8.630
 1870WAT     H2 5853   5.348   2.548   8.688
 1871WAT      O 5854   7.003   5.948   7.668
 1871WAT     H1 5855   6.937   6.013   7.706
 1871WAT     H2 5856   6.982   5.856   7.702
 1872WAT      O 5857   9.039   9.407   1.726
 1872WAT     H1 5858   8.972   9.475   1.755
 1872WAT     H2 5859   9.073   9.358   1.806
 1873WAT      O 5860   6.511   9.792   1.597
 1873WAT     H1 5861   6.495   9.746   1.684
 1873WAT     H2 5862   6.592   9.753   1.552
 1874WAT      O 5863   2.128   9.076   6.839
 1874WAT     H1 5864   2.151   8.989   6.881
 1874WAT     H2 5865   2.097   9.060   6.745
 1875WAT      O 5866   7.826   0.659   5.439
 1875WAT     H1 5867   7.734   0.689   5.466
 1875WAT     H2 5868   7.818   0.593   5.364
 1876WAT      O 5869   2.657   7.938   2.083
 1876WAT     H1 5870   2.735   7.981   2.128
 1876WAT     H2 5871   2.685   7.906   1.992
 1877WAT      O 5872   2.243   5.316   3.372
 1877WAT     H1 5873   2.323   5.264   3.343
 1877WAT     H2 5874   2.245   5.330   3.470
 1878WAT      O 5875   7.810   7.452   3.953
 1878WAT     H1 5876   7.867   7.522   3.911
 1878WAT     H2 5877   7.864   7.368   3.965
 1879WAT      O 5878   9.625   2.807   6.064
 1879WAT     H1 5879   9.663   2.835   5.975
 1879WAT     H2 5880   9.585   2.716   6.056
 1880WAT      O 5881   4.947   5.534   4.753
 1880WAT     H1 5882   5.020   5.542   4.821
 1880WAT     H2 5883   4.877   5.602   4.771
 1881WAT      O 5884   6.745   0.784   6.410
 1881WAT     H1 5885   6.802   0.865   6.420
 1881WAT     H2 5886   6.690   0.771   6.492
 1882WAT      O 5887   5.013   8.194   2.722
 1882WAT     H1 5888   5.013   8.190   2.622
 1882WAT     H2 5889   5.104   8.220   2.754
 1883WAT      O 5890   4.687   2.108   6.333
 1883WAT     H1 5891   4.732   2.196   6.346
 1883WAT     H2 5892   4.726   2.061   6.254
 1884WAT      O 5893   3.049   8.262   6.019
 1884WAT     H1 5894   2.978   8.252   6.089
 1884WAT     H2 5895   3.057   8.177   5.967
 1885WAT      O 5896   7.059   3.488   8.153
 1885WAT     H1 5897   7.052   3.454   8.246
 1885WAT     H2 5898   6.988   3.556   8.136
 1886WAT      O 5899   8.260   5.578   7.580
 1886WAT     H1 5900   8.311   5.661   7.556
 1886WAT     H2 5901   8.242   5.578   7.679
 1887WAT      O 5902   7.380   4.899   3.223
 1887WAT     H1 5903   7.326   4.981   3.205
 1887WAT     H2 5904   7.320   4.827   3.260
 1888WAT      O 5905   0.583   2.362   0.851
 1888WAT     H1 5906   0.494   2.317   0.860
 1888WAT     H2 5907   0.630   2.327   0.770
 1889WAT      O 5908   5.970   7.666   5.201
 1889WAT     H1 5909   5.910   7.664   5.281
 1889WAT     H2 5910   6.008   7.758   5.190
 1890WAT      O 5911   5.691   6.443   8.708
 1890WAT     H1 5912   5.764   6.378   8.726
 1890WAT     H2 5913   5.676   6.452   8.610
 1891WAT      O 5914   9.785   4.774   9.151
 1891WAT     H1 5915   9.834   4.837   9.091
 1891WAT     H2 5916   9.824   4.682   9.144
 1892WAT      O 5917   2.093   1.678   4.254
 1892WAT     H1 5918   2.037   1.632   4.323
 1892WAT     H2 5919   2.098   1.776   4.276
 1893WAT      O 5920   8.848   0.333   6.227
 1893WAT     H1 5921   8.885   0.346   6.319
 1893WAT     H2 5922   8.836   0.236   6.208
 1894WAT      O 5923   0.781   3.229   1.799
 1894WAT     H1 5924   0.743   3.303   1.855
 1894WAT     H2 5925   0.712   3.198   1.734
 1895WAT      O 5926   8.545   7.782   1.247
 1895WAT     H1 5927   8.550   7.874   1.285
 1895WAT     H2 5928   8.554   7.715   1.321
 1896WAT      O 5929   0.683   4.671   6.635
 1896WAT     H1 5930   0.774   4.629   6.626
 1896WAT     H2 5931   0.691   4.770   6.620
 1897WAT      O 5932   9.525   9.396   9.106
 1897WAT     H1 5933   9.513   9.298   9.115
 1897WAT     H2 5934   9.441   9.443   9.133
 1898WAT      O 5935   7.468   1.880   9.325
 1898WAT     H1 5936   7.564   1.905   9.324
 1898WAT     H2 5937   7.454   1.803   9.387
 1899WAT      O 5938   4.995   9.137   8.348
 1899WAT     H1 5939   5.051   9.120   8.430
 1899WAT     H2 5940   5.039   9.207   8.292
 1900WAT      O 5941   2.513   3.097   7.175
 1900WAT     H1 5942   2.432   3.117   7.230
 1900WAT     H2 5943   2.540   3.002   7.189
 1901WAT      O 5944   2.280   2.987   8.036
 1901WAT     H1 5945   2.319   3.036   8.114
 1901WAT     H2 5946   2.218   3.048   7.987
 1902WAT      O 5947   7.156   6.698   8.240
 1902WAT     H1 5948   7.230   6.755   8.275
 1902WAT     H2 5949   7.103   6.750   8.173
 1903WAT      O 5950   6.203   0.287   0.781
 1903WAT     H1 5951   6.208   0.188   0.793
 1903WAT     H2 5952   6.291   0.321   0.750
 1904WAT      O 5953   9.645   3.038   2.855
 1904WAT     H1 5954   9.682   3.082   2.774
 1904WAT     H2 5955   9.559   3.083   2.881
 1905WAT      O 5956   4.040   2.373   6.182
 1905WAT     H1 5957   4.085   2.429   6.252
 1905WAT     H2 5958   4.048   2.418   6.093
 1906WAT      O 5959   6.668   2.059   7.652
 1906WAT     H1 5960   6.665   2.140   7.593
 1906WAT     H2 5961   6.637   2.083   7.744
 1907WAT      O 5962   5.542   9.767   6.967
 1907WAT     H1 5963   5.552   9.837   7.038
 1907WAT     H2 5964   5.528   9.812   6.879
 1908WAT      O 5965   5.096   1.166   9.088
 1908WAT     H1 5966   5.042   1.167   9.172
 1908WAT     H2 5967   5.159   1.089   9.090
 1909WAT      O 5968   3.544   3.135   3.735
 1909WAT     H1 5969   3.640   3.150   3.713
 1909WAT     H2 5970   3.536   3.057   3.797
 1910WAT      O 5971   5.541   1.034   4.870
 1910WAT     H1 5972   5.584   0.945   4.854
 1910WAT     H2 5973   5.450   1.035   4.829
 1911WAT      O 5974   9.113   9.765   0.308
 1911WAT     H1 5975   9.187   9.699   0.326
 1911WAT     H2 5976   9.150   9.857   0.310
 1912WAT      O 5977   3.686   1.679   0.944
 1912WAT     H1 5978   3.701   1.622   1.024
 1912WAT     H2 5979   3.589   1.675   0.919
 1913WAT      O 5980   8.802   8.633   0.339
 1913WAT     H1 5981   8.805   8.733   0.342
 1913WAT     H2 5982   8.721   8.601   0.388
 1914WAT      O 5983   0.546   6.307   1.276
 1914WAT     H1 5984   0.465   6.250   1.281
 1914WAT     H2 5985   0.628   6.249   1.276
 1915WAT      O 5986   7.408   3.259   6.163
 1915WAT     H1 5987   7.459   3.223   6.241
 1915WAT     H2 5988   7.470   3.269   6.085
 1916WAT      O 5989   1.922   2.133   1.380
 1916WAT     H1 5990   1.939   2.084   1.294
 1916WAT     H2 5991   1.914   2.231   1.362
 1917WAT      O 5992   4.730   6.661   0.415
 1917WAT     H1 5993   4.801   6.593   0.394
 1917WAT     H2 5994   4.662   6.620   0.477
 1918WAT      O 5995   3.024   5.625   5.371
 1918WAT     H1 5996   3.072   5.549   5.415
 1918WAT     H2 5997   3.090   5.690   5.335
 1919WAT      O 5998   3.009   1.897   6.116
 1919WAT     H1 5999   2.949   1.846   6.054
 1919WAT     H2 6000   3.010   1.852   6.205
 1920WAT      O 6001   5.087   3.559   6.148
 1920WAT     H1 6002   4.995   3.530   6.176
 1920WAT     H2 6003   5.092   3.658   6.149
 1921WAT      O 6004   8.324   4.312   3.638
 1921WAT     H1 6005   8.277   4.254   3.572
 1921WAT     H2 6006   8.364   4.254   3.710
 1922WAT      O 6007   0.512   8.749   3.233
 1922WAT     H1 6008   0.461   8.678   3.282
 1922WAT     H2 6009   0.604   8.717   3.215
 1923WAT      O 6010   0.464   6.240   3.331
 1923WAT     H1 6011   0.549   6.243   3.383
 1923WAT     H2 6012   0.459   6.154   3.280
 1924WAT      O 6013   1.398   5.793   9.457
 1924WAT     H1 6014   1.370   5.704   9.492
 1924WAT     H2 6015   1.420   5.785   9.360
 1925WAT      O 6016   4.171   1.856   5.340
 1925WAT     H1 6017   4.215   1.946   5.331
 1925WAT     H2 6018   4.074   1.865   5.319
 1926WAT      O 6019   6.663   4.862   6.370
 1926WAT     H1 6020   6.742   4.814   6.408
 1926WAT     H2 6021   6.677   4.879   6.273
 1927WAT      O 6022   4.992   7.818   9.159
 1927WAT     H1 6023   4.960   7.911   9.139
 1927WAT     H2 6024   4.957   7.755   9.089
 1928WAT      O 6025   6.225   8.569   1.376
 1928WAT     H1 6026   6.312   8.536   1.339
 1928WAT     H2 6027   6.219   8.546   1.473
 1929WAT      O 6028   4.346   2.661   1.430
 1929WAT     H1 6029   4.317   2.733   1.367
 1929WAT     H2 6030   4.368   2.578   1.378
 1930WAT      O 6031   2.394   7.267   1.646
 1930WAT     H1 6032   2.465   7.321   1.601
 1930WAT     H2 6033   2.367   7.190   1.587
 1931WAT      O 6034   5.142   4.362   7.281
 1931WAT     H1 6035   5.183   4.306   7.209
 1931WAT     H2 6036   5.062   4.315   7.319
 1932WAT      O 6037   1.411   6.383   5.067
 1932WAT     H1 6038   1.377   6.392   5.161
 1932WAT     H2 6039   1.509   6.399   5.065
 1933WAT      O 6040   4.718   7.407   8.886
 1933WAT     H1 6041   4.812   7.441   8.892
 1933WAT     H2 6042   4.715   7.325   8.828
 1934WAT      O 6043   0.559   9.814   5.842
 1934WAT     H1 6044   0.590   9.743   5.779
 1934WAT     H2 6045   0.510   9.772   5.919
 1935WAT      O 6046   3.254   2.083   9.554
 1935WAT     H1 6047   3.262   2.077   9.653
 1935WAT     H2 6048   3.300   2.165   9.521
 1936WAT      O 6049   0.344   0.658   6.705
 1936WAT     H1 6050   0.318   0.620   6.794
 1936WAT     H2 6051   0.288   0.738   6.685
 1937WAT      O 6052   3.185   1.397   3.601
 1937WAT     H1 6053   3.151   1.485   3.570
 1937WAT     H2 6054   3.109   1.333   3.610
 1938WAT      O 6055   0.663   7.878   9.738
 1938WAT     H1 6056   0.667   7.978   9.730
 1938WAT     H2 6057   0.664   7.853   9.835
 1939WAT      O 6058   3.233   4.620   9.743
 1939WAT     H1 6059   3.209   4.533   9.699
 1939WAT     H2 6060   3.328   4.643   9.721
 1940WAT      O 6061   7.545   7.486   0.576
 1940WAT     H1 6062   7.501   7.510   0.489
 1940WAT     H2 6063   7.551   7.387   0.584
 1941WAT      O 6064   4.689   7.461   3.005
 1941WAT     H1 6065   4.762   7.480   3.071
 1941WAT     H2 6066   4.658   7.367   3.017
 1942WAT      O 6067   9.395   8.241   2.335
 1942WAT     H1 6068   9.479   8.260   2.386
 1942WAT     H2 6069   9.324   8.210   2.399
 1943WAT      O 6070   4.095   5.809   0.148
 1943WAT     H1 6071   3.995   5.808   0.143
 1943WAT     H2 6072   4.127   5.903   0.155
 1944WAT      O 6073   9.103   3.248   0.078
 1944WAT     H1 6074   9.081   3.190  -0.001
 1944WAT     H2 6075   9.186   3.214   0.122
 1945WAT      O 6076   8.250   3.018   5.120
 1945WAT     H1 6077   8.264   3.075   5.201
 1945WAT     H2 6078   8.338   3.007   5.073
 1946WAT      O 6079   7.232   2.527   6.035
 1946WAT     H1 6080   7.283   2.593   5.981
 1946WAT     H2 6081   7.144   2.566   6.063
 1947WAT      O 6082   9.362   0.626   6.186
 1947WAT     H1 6083   9.284   0.630   6.123
 1947WAT     H2 6084   9.330   0.638   6.279
 1948WAT      O 6085   7.008   6.760   9.860
 1948WAT     H1 6086   6.921   6.725   9.895
 1948WAT     H2 6087   7.018   6.735   9.763
 1949WAT      O 6088   7.353   0.305   6.103
 1949WAT     H1 6089   7.399   0.234   6.157
 1949WAT     H2 6090   7.275   0.341   6.153
 1950WAT      O 6091   0.719   9.661   1.373
 1950WAT     H1 6092   0.816   9.651   1.350
 1950WAT     H2 6093   0.664   9.617   1.302
 1951WAT      O 6094   1.772   8.344   0.620
 1951WAT     H1 6095   1.780   8.436   0.659
 1951WAT     H2 6096   1.822   8.340   0.534
 1952WAT      O 6097   4.858   8.953   8.801
 1952WAT     H1 6098   4.938   8.934   8.743
 1952WAT     H2 6099   4.837   9.050   8.798
 1953WAT      O 6100   0.147   9.374   2.702
 1953WAT     H1 6101   0.206   9.373   2.621
 1953WAT     H2 6102   0.163   9.291   2.756
 1954WAT      O 6103   8.540   2.709   0.234
 1954WAT     H1 6104   8.459   2.708   0.294
 1954WAT     H2 6105   8.566   2.615   0.212
 1955WAT      O 6106   5.170   7.524   7.509
 1955WAT     H1 6107   5.125   7.549   7.595
 1955WAT     H2 6108   5.226   7.443   7.523
 1956WAT      O 6109   4.550   2.397   3.311
 1956WAT     H1 6110   4.482   2.452   3.263
 1956WAT     H2 6111   4.537   2.407   3.410
 1957WAT      O 6112   1.225   7.098   1.859
 1957WAT     H1 6113   1.150   7.159   1.888
 1957WAT     H2 6114   1.216   7.080   1.761
 1958WAT      O 6115   7.752   5.936   6.761
 1958WAT     H1 6116   7.828   5.884   6.801
 1958WAT     H2 6117   7.762   6.032   6.786
 1959WAT      O 6118   1.696   7.402   8.938
 1959WAT     H1 6119   1.650   7.407   9.027
 1959WAT     H2 6120   1.646   7.457   8.871
 1960WAT      O 6121   5.925   9.166   1.224
 1960WAT     H1 6122   5.870   9.145   1.305
 1960WAT     H2 6123   5.972   9.253   1.237
 1961WAT      O 6124   7.663   5.356   3.864
 1961WAT     H1 6125   7.743   5.391   3.912
 1961WAT     H2 6126   7.591   5.425   3.863
 1962WAT      O 6127   0.154   1.331   0.105
 1962WAT     H1 6128   0.151   1.231   0.093
 1962WAT     H2 6129   0.199   1.353   0.192
 1963WAT      O 6130   1.403   3.015   8.498
 1963WAT     H1 6131   1.446   3.097   8.536
 1963WAT     H2 6132   1.341   2.975   8.566
 1964WAT      O 6133   6.671   8.098   7.757
 1964WAT     H1 6134   6.618   8.019   7.788
 1964WAT     H2 6135   6.611   8.178   7.755
 1965WAT      O 6136   1.645   5.952   2.985
 1965WAT     H1 6137   1.721   5.929   3.046
 1965WAT     H2 6138   1.681   5.992   2.901
 1966WAT      O 6139   9.247   8.916   0.373
 1966WAT     H1 6140   9.170   8.892   0.314
 1966WAT     H2 6141   9.252   8.850   0.449
 1967WAT      O 6142   1.708   6.664   1.451
 1967WAT     H1 6143   1.745   6.594   1.511
 1967WAT     H2 6144   1.668   6.737   1.506
 1968WAT      O 6145   4.100   7.037   8.114
 1968WAT     H1 6146   4.017   7.019   8.165
 1968WAT     H2 6147   4.077   7.065   8.021
 1969WAT      O 6148   1.611   3.726   3.349
 1969WAT     H1 6149   1.697   3.675   3.342
 1969WAT     H2 6150   1.623   3.817   3.309
 1970WAT      O 6151   9.137   1.162   6.369
 1970WAT     H1 6152   9.123   1.184   6.273
 1970WAT     H2 6153   9.169   1.068   6.378
 1971WAT      O 6154   1.015   4.964   7.634
 1971WAT     H1 6155   0.932   4.972   7.690
 1971WAT     H2 6156   1.058   4.876   7.652
 1972WAT      O 6157   1.652   2.604   0.517
 1972WAT     H1 6158   1.604   2.662   0.451
 1972WAT     H2 6159   1.664   2.513   0.478
 1973WAT      O 6160   0.614   8.425   2.243
 1973WAT     H1 6161   0.620   8.405   2.341
 1973WAT     H2 6162   0.695   8.476   2.215
 1974WAT      O 6163   6.774   4.173   6.240
 1974WAT     H1 6164   6.790   4.077   6.214
 1974WAT     H2 6165   6.699   4.209   6.185
 1975WAT      O 6166   0.238   1.804   6.094
 1975WAT     H1 6167   0.240   1.720   6.148
 1975WAT     H2 6168   0.326   1.851   6.103
 1976WAT      O 6169   9.858   0.561   6.933
 1976WAT     H1 6170   9.920   0.621   6.983
 1976WAT     H2 6171   9.777   0.541   6.988
 1977WAT      O 6172   6.706   7.737   9.207
 1977WAT     H1 6173   6.697   7.648   9.163
 1977WAT     H2 6174   6.712   7.808   9.136
 1978WAT      O 6175   4.059   0.571   2.768
 1978WAT     H1 6176   4.128   0.599   2.834
 1978WAT     H2 6177   4.102   0.515   2.697
 1979WAT      O 6178   7.072   2.860   5.973
 1979WAT     H1 6179   6.997   2.908   5.928
 1979WAT     H2 6180   7.145   2.925   5.994
 1980WAT      O 6181   0.716   6.071   9.824
 1980WAT     H1 6182   0.622   6.059   9.856
 1980WAT     H2 6183   0.764   6.133   9.886
 1981WAT      O 6184   8.562   3.648   3.989
 1981WAT     H1 6185   8.642   3.630   4.046
 1981WAT     H2 6186   8.527   3.739   4.010
 1982WAT      O 6187   2.225   0.187   7.966
 1982WAT     H1 6188   2.201   0.280   7.992
 1982WAT     H2 6189   2.232   0.130   8.048
 1983WAT      O 6190   9.488   6.611   8.341
 1983WAT     H1 6191   9.582   6.636   8.318
 1983WAT     H2 6192   9.486   6.517   8.376
 1984WAT      O 6193   8.648   3.113   9.187
 1984WAT     H1 6194   8.720   3.090   9.254
 1984WAT     H2 6195   8.618   3.207   9.202
 1985WAT      O 6196   3.070   6.336   7.190
 1985WAT     H1 6197   3.120   6.329   7.104
 1985WAT     H2 6198   2.974   6.356   7.171
 1986WAT      O 6199   0.158   6.717   4.417
 1986WAT     H1 6200   0.256   6.722   4.394
 1986WAT     H2 6201   0.114   6.802   4.388
 1987WAT      O 6202   9.206   8.873   5.630
 1987WAT     H1 6203   9.248   8.821   5.555
 1987WAT     H2 6204   9.272   8.940   5.665
 1988WAT      O 6205   7.729   2.069   7.657
 1988WAT     H1 6206   7.723   2.152   7.713
 1988WAT     H2 6207   7.802   2.078   7.590
 1989WAT      O 6208   3.766   0.840   0.433
 1989WAT     H1 6209   3.823   0.902   0.486
 1989WAT     H2 6210   3.721   0.775   0.495
 1990WAT      O 6211   6.352   4.649   5.249
 1990WAT     H1 6212   6.343   4.631   5.347
 1990WAT     H2 6213   6.298   4.730   5.225
 1991WAT      O 6214   8.934   2.673   3.342
 1991WAT     H1 6215   8.959   2.737   3.270
 1991WAT     H2 6216   8.948   2.716   3.431
 1992WAT      O 6217   9.480   7.565   4.774
 1992WAT     H1 6218   9.427   7.646   4.797
 1992WAT     H2 6219   9.570   7.570   4.818
 1993WAT      O 6220   5.994   2.683   1.104
 1993WAT     H1 6221   5.942   2.598   1.090
 1993WAT     H2 6222   6.080   2.678   1.054
 1994WAT      O 6223   8.827   4.910   1.329
 1994WAT     H1 6224   8.904   4.961   1.290
 1994WAT     H2 6225   8.856   4.865   1.413
 1995WAT      O 6226   9.538   9.741   9.837
 1995WAT     H1 6227   9.463   9.797   9.803
 1995WAT     H2 6228   9.504   9.678   9.907
 1996WAT      O 6229   9.262   3.800   6.799
 1996WAT     H1 6230   9.306   3.749   6.873
 1996WAT     H2 6231   9.201   3.869   6.839
 1997WAT      O 6232   6.231   3.828   8.269
 1997WAT     H1 6233   6.162   3.900   8.263
 1997WAT     H2 6234   6.223   3.781   8.356
 1998WAT      O 6235   4.904   9.042   5.017
 1998WAT     H1 6236   4.997   9.045   5.054
 1998WAT     H2 6237   4.849   8.979   5.072
 1999WAT      O 6238   1.418   0.126   6.081
 1999WAT     H1 6239   1.442   0.038   6.123
 1999WAT     H2 6240   1.484   0.196   6.110
 2000WAT      O 6241   3.685   8.248   9.000
 2000WAT     H1 6242   3.706   8.164   9.051
 2000WAT     H2 6243   3.593   8.278   9.022
 2001WAT      O 6244   3.829   3.714   8.165
 2001WAT     H1 6245   3.883   3.789   8.128
 2001WAT     H2 6246   3.765   3.682   8.096
 2002WAT      O 6247   4.626   9.212   5.306
 2002WAT     H1 6248   4.725   9.211   5.324
 2002WAT     H2 6249   4.586   9.294   5.348
 2003WAT      O 6250   9.402   7.076   2.607
 2003WAT     H1 6251   9.310   7.111   2.589
 2003WAT     H2 6252   9.416   6.991   2.557
 2004WAT      O 6253   4.081   3.672   0.804
 2004WAT     H1 6254   4.037   3.583   0.800
 2004WAT     H2 6255   4.166   3.665   0.856
 2005WAT      O 6256   8.614   7.563   8.581
 2005WAT     H1 6257   8.637   7.632   8.513
 2005WAT     H2 6258   8.662   7.583   8.666
 2006WAT      O 6259   0.719   1.163   5.955
 2006WAT     H1 6260   0.647   1.199   5.895
 2006WAT     H2 6261   0.808   1.183   5.915
 2007WAT      O 6262   7.266   9.471   2.704
 2007WAT     H1 6263   7.282   9.377   2.732
 2007WAT     H2 6264   7.310   9.534   2.768
 2008WAT      O 6265   4.963   9.669   4.917
 2008WAT     H1 6266   4.990   9.603   4.987
 2008WAT     H2 6267   4.905   9.624   4.849
 2009WAT      O 6268   9.670   5.699   5.170
 2009WAT     H1 6269   9.580   5.680   5.210
 2009WAT     H2 6270   9.694   5.625   5.107
 2010WAT      O 6271   3.548   8.632   1.961
 2010WAT     H1 6272   3.540   8.545   2.010
 2010WAT     H2 6273   3.484   8.699   2.000
 2011WAT      O 6274   2.595   8.648   5.067
 2011WAT     H1 6275   2.641   8.654   4.979
 2011WAT     H2 6276   2.559   8.555   5.080
 2012WAT      O 6277   5.385   3.172   1.775
 2012WAT     H1 6278   5.479   3.177   1.808
 2012WAT     H2 6279   5.323   3.198   1.849
 2013WAT      O 6280   3.137   1.065   8.979
 2013WAT     H1 6281   3.081   1.143   8.950
 2013WAT     H2 6282   3.231   1.096   8.995
 2014WAT      O 6283   7.642   6.733   4.293
 2014WAT     H1 6284   7.692   6.813   4.328
 2014WAT     H2 6285   7.624   6.744   4.195
 2015WAT      O 6286   5.473   0.482   4.735
 2015WAT     H1 6287   5.542   0.415   4.763
 2015WAT     H2 6288   5.452   0.471   4.638
 2016WAT      O 6289   0.227   7.861   4.771
 2016WAT     H1 6290   0.235   7.818   4.862
 2016WAT     H2 6291   0.200   7.792   4.704
 2017WAT      O 6292   9.300   0.737   8.942
 2017WAT     H1 6293   9.299   0.732   8.842
 2017WAT     H2 6294   9.228   0.677   8.979
 2018WAT      O 6295   8.705   2.282   7.690
 2018WAT     H1 6296   8.686   2.213   7.620
 2018WAT     H2 6297   8.769   2.349   7.653
 2019WAT      O 6298   5.756   2.001   8.841
 2019WAT     H1 6299   5.823   2.074   8.827
 2019WAT     H2 6300   5.728   1.999   8.937
 2020WAT      O 6301   6.255   3.255   3.473
 2020WAT     H1 6302   6.262   3.155   3.477
 2020WAT     H2 6303   6.346   3.295   3.465
 2021WAT      O 6304   7.159   9.558   6.537
 2021WAT     H1 6305   7.072   9.527   6.499
 2021WAT     H2 6306   7.216   9.597   6.464
 2022WAT      O 6307   3.106   0.514   2.431
 2022WAT     H1 6308   3.144   0.439   2.375
 2022WAT     H2 6309   3.132   0.601   2.390
 2023WAT      O 6310   4.932   8.402   3.039
 2023WAT     H1 6311   4.981   8.318   3.066
 2023WAT     H2 6312   4.885   8.386   2.953
 2024WAT      O 6313   7.958   0.713   3.594
 2024WAT     H1 6314   7.949   0.764   3.679
 2024WAT     H2 6315   8.020   0.761   3.532
 2025WAT      O 6316   7.108   7.201   6.847
 2025WAT     H1 6317   7.031   7.210   6.784
 2025WAT     H2 6318   7.187   7.165   6.799
 2026WAT      O 6319   5.909   2.310   0.048
 2026WAT     H1 6320   5.999   2.271   0.068
 2026WAT     H2 6321   5.875   2.272  -0.038
 2027WAT      O 6322   4.855   0.318   0.230
 2027WAT     H1 6323   4.946   0.276   0.241
 2027WAT     H2 6324   4.863   0.401   0.175
 2028WAT      O 6325   0.860   4.194   7.085
 2028WAT     H1 6326   0.900   4.223   6.998
 2028WAT     H2 6327   0.924   4.134   7.132
 2029WAT      O 6328   7.709   4.413   1.480
 2029WAT     H1 6329   7.798   4.403   1.436
 2029WAT     H2 6330   7.637   4.391   1.415
 2030WAT      O 6331   6.565   0.193   9.528
 2030WAT     H1 6332   6.550   0.096   9.507
 2030WAT     H2 6333   6.636   0.200   9.598
 2031WAT      O 6334   5.186   0.915   5.950
 2031WAT     H1 6335   5.185   0.869   5.861
 2031WAT     H2 6336   5.099   0.900   5.996
 2032WAT      O 6337   8.095   3.281   4.419
 2032WAT     H1 6338   8.031   3.232   4.359
 2032WAT     H2 6339   8.044   3.321   4.495
 2033WAT      O 6340   4.620   6.892   1.500
 2033WAT     H1 6341   4.523   6.916   1.503
 2033WAT     H2 6342   4.666   6.950   1.433
 2034WAT      O 6343   0.095   9.801   9.268
 2034WAT     H1 6344   0.090   9.754   9.357
 2034WAT     H2 6345   0.016   9.776   9.213
 2035WAT      O 6346   3.024   1.325   8.353
 2035WAT     H1 6347   2.962   1.367   8.286
 2035WAT     H2 6348   3.113   1.308   8.310
 2036WAT      O 6349   1.009   1.033   8.194
 2036WAT     H1 6350   0.956   0.951   8.214
 2036WAT     H2 6351   0.961   1.088   8.126
 2037WAT      O 6352   9.691   8.928   8.411
 2037WAT     H1 6353   9.788   8.926   8.438
 2037WAT     H2 6354   9.685   8.933   8.311
 2038WAT      O 6355   4.534   4.126   6.872
 2038WAT     H1 6356   4.630   4.156   6.871
 2038WAT     H2 6357   4.485   4.169   6.797
 2039WAT      O 6358   8.118   7.411   7.263
 2039WAT     H1 6359   8.131   7.491   7.204
 2039WAT     H2 6360   8.023   7.407   7.293
 2040WAT      O 6361   0.341   6.022   2.000
 2040WAT     H1 6362   0.264   6.034   1.936
 2040WAT     H2 6363   0.380   6.112   2.021
 2041WAT      O 6364   0.753   7.614   7.151
 2041WAT     H1 6365   0.779   7.522   7.180
 2041WAT     H2 6366   0.783   7.629   7.057
 2042WAT      O 6367   2.351   3.897   2.432
 2042WAT     H1 6368   2.441   3.877   2.393
 2042WAT     H2 6369   2.314   3.815   2.476
 2043WAT      O 6370   8.248   9.638   7.811
 2043WAT     H1 6371   8.183   9.563   7.811
 2043WAT     H2 6372   8.275   9.658   7.717
 2044WAT      O 6373   3.994   8.226   1.715
 2044WAT     H1 6374   4.044   8.220   1.801
 2044WAT     H2 6375   3.943   8.142   1.699
 2045WAT      O 6376   6.461   8.428   2.215
 2045WAT     H1 6377   6.476   8.331   2.236
 2045WAT     H2 6378   6.454   8.479   2.301
 2046WAT      O 6379   6.349   3.656   7.628
 2046WAT     H1 6380   6.350   3.691   7.534
 2046WAT     H2 6381   6.354   3.733   7.692
 2047WAT      O 6382   1.260   2.454   5.676
 2047WAT     H1 6383   1.321   2.384   5.713
 2047WAT     H2 6384   1.307   2.542   5.672
 2048WAT      O 6385   1.544   8.180   0.777
 2048WAT     H1 6386   1.609   8.177   0.853
 2048WAT     H2 6387   1.529   8.275   0.750
 2049WAT      O 6388   2.227   8.393   0.599
 2049WAT     H1 6389   2.241   8.485   0.635
 2049WAT     H2 6390   2.153   8.348   0.650
 2050WAT      O 6391   8.822   7.641   7.543
 2050WAT     H1 6392   8.760   7.687   7.606
 2050WAT     H2 6393   8.873   7.709   7.490
 2051WAT      O 6394   5.408   8.110   2.497
 2051WAT     H1 6395   5.507   8.110   2.487
 2051WAT     H2 6396   5.367   8.056   2.424
 2052WAT      O 6397   6.325   3.561   9.732
 2052WAT     H1 6398   6.316   3.645   9.786
 2052WAT     H2 6399   6.237   3.514   9.730
 2053WAT      O 6400   8.519   9.172   3.028
 2053WAT     H1 6401   8.602   9.157   2.973
 2053WAT     H2 6402   8.476   9.258   2.999
 2054WAT      O 6403   0.315   0.742   3.744
 2054WAT     H1 6404   0.298   0.816   3.809
 2054WAT     H2 6405   0.315   0.778   3.651
 2055WAT      O 6406   8.530   8.546   3.264
 2055WAT     H1 6407   8.555   8.642   3.279
 2055WAT     H2 6408   8.556   8.492   3.344
 2056WAT      O 6409   9.071   7.666   1.079
 2056WAT     H1 6410   9.064   7.570   1.053
 2056WAT     H2 6411   8.991   7.692   1.133
 2057WAT      O 6412   5.676   1.865   3.707
 2057WAT     H1 6413   5.713   1.886   3.798
 2057WAT     H2 6414   5.644   1.949   3.664
 2058WAT      O 6415   7.281   6.732   6.958
 2058WAT     H1 6416   7.339   6.728   6.877
 2058WAT     H2 6417   7.320   6.794   7.025
 2059WAT      O 6418   5.973   0.397   6.294
 2059WAT     H1 6419   6.008   0.361   6.380
 2059WAT     H2 6420   5.911   0.474   6.312
 2060WAT      O 6421   6.915   8.502   1.742
 2060WAT     H1 6422   6.981   8.489   1.815
 2060WAT     H2 6423   6.846   8.568   1.770
 2061WAT      O 6424   8.974   0.719   7.946
 2061WAT     H1 6425   8.944   0.773   7.867
 2061WAT     H2 6426   8.897   0.706   8.009
 2062WAT      O 6427   1.994   9.077   4.664
 2062WAT     H1 6428   1.947   9.161   4.636
 2062WAT     H2 6429   2.076   9.100   4.717
 2063WAT      O 6430   7.423   1.066   2.394
 2063WAT     H1 6431   7.466   1.145   2.436
 2063WAT     H2 6432   7.448   1.062   2.297
 2064WAT      O 6433   1.067   6.619   4.297
 2064WAT     H1 6434   1.108   6.709   4.316
 2064WAT     H2 6435   0.981   6.632   4.248
 2065WAT      O 6436   5.554   8.748   7.942
 2065WAT     H1 6437   5.598   8.751   8.032
 2065WAT     H2 6438   5.473   8.805   7.942
 2066WAT      O 6439   1.524   8.513   4.561
 2066WAT     H1 6440   1.442   8.474   4.520
 2066WAT     H2 6441   1.547   8.462   4.644
 2067WAT      O 6442   8.247   2.727   9.393
 2067WAT     H1 6443   8.149   2.746   9.386
 2067WAT     H2 6444   8.294   2.763   9.312
 2068WAT      O 6445   0.818   4.663   4.319
 2068WAT     H1 6446   0.801   4.755   4.283
 2068WAT     H2 6447   0.895   4.666   4.383
 2069WAT      O 6448   5.527   6.995   6.602
 2069WAT     H1 6449   5.462   6.989   6.526
 2069WAT     H2 6450   5.579   7.079   6.594
 2070WAT      O 6451   2.680   5.122   6.474
 2070WAT     H1 6452   2.691   5.120   6.573
 2070WAT     H2 6453   2.602   5.065   6.448
 2071WAT      O 6454   3.842   2.989   0.678
 2071WAT     H1 6455   3.836   3.012   0.775
 2071WAT     H2 6456   3.753   3.002   0.635
 2072WAT      O 6457   6.081   9.012   9.715
 2072WAT     H1 6458   6.131   8.929   9.739
 2072WAT     H2 6459   6.115   9.048   9.628
 2073WAT      O 6460   1.104   6.213   4.549
 2073WAT     H1 6461   1.086   6.300   4.504
 2073WAT     H2 6462   1.110   6.227   4.648
 2074WAT      O 6463   6.162   8.032   9.037
 2074WAT     H1 6464   6.092   8.059   9.103
 2074WAT     H2 6465   6.123   8.029   8.945
 2075WAT      O 6466   8.020   0.906   8.310
 2075WAT     H1 6467   8.066   0.867   8.390
 2075WAT     H2 6468   7.952   0.973   8.338
 2076WAT      O 6469   7.471   3.943   4.220
 2076WAT     H1 6470   7.541   3.928   4.290
 2076WAT     H2 6471   7.390   3.984   4.263
 2077WAT      O 6472   1.835   5.787   6.732
 2077WAT     H1 6473   1.822   5.700   6.683
 2077WAT     H2 6474   1.783   5.859   6.686
 2078WAT      O 6475   2.060   8.555   0.394
 2078WAT     H1 6476   1.978   8.498   0.402
 2078WAT     H2 6477   2.132   8.519   0.453
 2079WAT      O 6478   7.359   9.688   5.699
 2079WAT     H1 6479   7.375   9.785   5.680
 2079WAT     H2 6480   7.445   9.638   5.692
 2080WAT      O 6481   4.032   9.400   8.677
 2080WAT     H1 6482   3.989   9.482   8.715
 2080WAT     H2 6483   4.033   9.328   8.746
 2081WAT      O 6484   1.138   9.202   5.596
 2081WAT     H1 6485   1.220   9.160   5.634
 2081WAT     H2 6486   1.083   9.240   5.671
 2082WAT      O 6487   0.444   3.502   2.620
 2082WAT     H1 6488   0.403   3.590   2.643
 2082WAT     H2 6489   0.488   3.463   2.701
 2083WAT      O 6490   2.167   6.430   2.189
 2083WAT     H1 6491   2.226   6.504   2.155
 2083WAT     H2 6492   2.201   6.398   2.277
 2084WAT      O 6493   2.233   6.242   2.379
 2084WAT     H1 6494   2.300   6.269   2.448
 2084WAT     H2 6495   2.190   6.156   2.405
 2085WAT      O 6496   6.357   9.762   8.680
 2085WAT     H1 6497   6.263   9.733   8.695
 2085WAT     H2 6498   6.369   9.792   8.586
 2086WAT      O 6499   5.396   7.944   5.562
 2086WAT     H1 6500   5.420   8.023   5.506
 2086WAT     H2 6501   5.347   7.974   5.644
 2087WAT      O 6502   9.149   3.106   7.910
 2087WAT     H1 6503   9.065   3.063   7.942
 2087WAT     H2 6504   9.129   3.169   7.835
 2088WAT      O 6505   6.572   3.747   3.859
 2088WAT     H1 6506   6.492   3.732   3.916
 2088WAT     H2 6507   6.638   3.806   3.906
 2089WAT      O 6508   6.465   8.138   8.027
 2089WAT     H1 6509   6.451   8.055   7.972
 2089WAT     H2 6510   6.396   8.206   8.001
 2090WAT      O 6511   9.383   4.231   9.357
 2090WAT     H1 6512   9.403   4.153   9.298
 2090WAT     H2 6513   9.450   4.303   9.341
 2091WAT      O 6514   1.835   4.719   2.984
 2091WAT     H1 6515   1.831   4.624   2.951
 2091WAT     H2 6516   1.747   4.743   3.025
 2092WAT      O 6517   5.333   8.670   3.311
 2092WAT     H1 6518   5.374   8.630   3.229
 2092WAT     H2 6519   5.235   8.685   3.296
 2093WAT      O 6520   5.165   3.548   1.435
 2093WAT     H1 6521   5.094   3.479   1.443
 2093WAT     H2 6522   5.188   3.583   1.526
 2094WAT      O 6523   8.855   3.925   6.326
 2094WAT     H1 6524   8.827   3.899   6.233
 2094WAT     H2 6525   8.774   3.951   6.379
 2095WAT      O 6526   6.444   2.653   5.785
 2095WAT     H1 6527   6.498   2.694   5.711
 2095WAT     H2 6528   6.361   2.611   5.746
 2096WAT      O 6529   7.183   3.474   0.465
 2096WAT     H1 6530   7.195   3.394   0.406
 2096WAT     H2 6531   7.132   3.545   0.416
 2097WAT      O 6532   3.285   2.594   8.795
 2097WAT     H1 6533   3.251   2.544   8.875
 2097WAT     H2 6534   3.225   2.577   8.717
 2098WAT      O 6535   5.372   8.108   8.903
 2098WAT     H1 6536   5.320   8.031   8.865
 2098WAT     H2 6537   5.349   8.118   8.999
 2099WAT      O 6538   6.022   3.050   5.500
 2099WAT     H1 6539   6.038   3.147   5.483
 2099WAT     H2 6540   5.938   3.021   5.452
 2100WAT      O 6541   6.150   2.661   2.471
 2100WAT     H1 6542   6.171   2.571   2.511
 2100WAT     H2 6543   6.112   2.721   2.542
 2101WAT      O 6544   6.736   8.209   6.080
 2101WAT     H1 6545   6.773   8.148   6.151
 2101WAT     H2 6546   6.714   8.297   6.121
 2102WAT      O 6547   9.358   7.749   5.958
 2102WAT     H1 6548   9.342   7.675   6.023
 2102WAT     H2 6549   9.397   7.828   6.005
 2103WAT      O 6550   2.407   3.108   6.655
 2103WAT     H1 6551   2.401   3.167   6.574
 2103WAT     H2 6552   2.357   3.150   6.731
 2104WAT      O 6553   5.488   1.956   5.879
 2104WAT     H1 6554   5.435   2.031   5.920
 2104WAT     H2 6555   5.519   1.894   5.951
 2105WAT      O 6556   8.149   6.953   4.751
 2105WAT     H1 6557   8.076   7.014   4.721
 2105WAT     H2 6558   8.222   7.006   4.792
 2106WAT      O 6559   9.526   1.655   3.552
 2106WAT     H1 6560   9.583   1.737   3.552
 2106WAT     H2 6561   9.520   1.619   3.459
 2107WAT      O 6562   3.810   1.467   6.751
 2107WAT     H1 6563   3.776   1.554   6.787
 2107WAT     H2 6564   3.909   1.473   6.737
 2108WAT      O 6565   6.696   7.250   2.298
 2108WAT     H1 6566   6.780   7.226   2.249
 2108WAT     H2 6567   6.622   7.190   2.269
 2109WAT      O 6568   6.732   2.554   4.134
 2109WAT     H1 6569   6.744   2.623   4.205
 2109WAT     H2 6570   6.672   2.482   4.167
 2110WAT      O 6571   8.692   7.029   1.272
 2110WAT     H1 6572   8.649   7.101   1.217
 2110WAT     H2 6573   8.648   6.941   1.251
 2111WAT      O 6574   1.927   9.476   1.885
 2111WAT     H1 6575   1.983   9.477   1.802
 2111WAT     H2 6576   1.942   9.559   1.937
 2112WAT      O 6577   1.135   2.020   7.040
 2112WAT     H1 6578   1.123   2.094   6.974
 2112WAT     H2 6579   1.115   1.933   6.996
 2113WAT      O 6580   3.557   0.446   8.168
 2113WAT     H1 6581   3.629   0.456   8.236
 2113WAT     H2 6582   3.468   0.457   8.212
 2114WAT      O 6583   1.467   8.502   2.378
 2114WAT     H1 6584   1.446   8.599   2.390
 2114WAT     H2 6585   1.397   8.461   2.319
 2115WAT      O 6586   2.130   8.699   8.624
 2115WAT     H1 6587   2.040   8.723   8.589
 2115WAT     H2 6588   2.124   8.614   8.676
 2116WAT      O 6589   4.223   0.810   6.031
 2116WAT     H1 6590   4.249   0.901   6.064
 2116WAT     H2 6591   4.306   0.756   6.015
 2117WAT      O 6592   0.965   2.565   8.187
 2117WAT     H1 6593   0.931   2.537   8.277
 2117WAT     H2 6594   0.894   2.618   8.140
 2118WAT      O 6595   7.851   4.764   8.363
 2118WAT     H1 6596   7.761   4.762   8.407
 2118WAT     H2 6597   7.904   4.840   8.400
 2119WAT      O 6598   6.654   6.670   6.685
 2119WAT     H1 6599   6.724   6.610   6.724
 2119WAT     H2 6600   6.590   6.697   6.758
 2120WAT      O 6601   4.927   1.646   3.567
 2120WAT     H1 6602   4.898   1.719   3.505
 2120WAT     H2 6603   4.847   1.612   3.617
 2121WAT      O 6604   5.390   9.211   4.969
 2121WAT     H1 6605   5.479   9.239   5.007
 2121WAT     H2 6606   5.348   9.289   4.922
 2122WAT      O 6607   9.187   6.484   1.420
 2122WAT     H1 6608   9.157   6.393   1.450
 2122WAT     H2 6609   9.214   6.539   1.499
 2123WAT      O 6610   2.155   1.534   2.220
 2123WAT     H1 6611   2.254   1.538   2.226
 2123WAT     H2 6612   2.119   1.627   2.204
 2124WAT      O 6613   7.269   3.731   1.043
 2124WAT     H1 6614   7.288   3.672   0.964
 2124WAT     H2 6615   7.287   3.826   1.018
 2125WAT      O 6616   6.671   8.384   3.038
 2125WAT     H1 6617   6.743   8.427   2.984
 2125WAT     H2 6618   6.598   8.354   2.977
 2126WAT      O 6619   7.633   0.651   5.963
 2126WAT     H1 6620   7.672   0.704   5.887
 2126WAT     H2 6621   7.610   0.713   6.038
 2127WAT      O 6622   0.156   2.819   0.091
 2127WAT     H1 6623   0.240   2.871   0.074
 2127WAT     H2 6624   0.129   2.828   0.187
 2128WAT      O 6625   0.610   2.726   4.524
 2128WAT     H1 6626   0.704   2.698   4.546
 2128WAT     H2 6627   0.558   2.736   4.609
 2129WAT      O 6628   2.584   8.792   0.432
 2129WAT     H1 6629   2.588   8.876   0.486
 2129WAT     H2 6630   2.655   8.729   0.463
 2130WAT      O 6631   3.470   1.813   6.617
 2130WAT     H1 6632   3.553   1.866   6.600
 2130WAT     H2 6633   3.390   1.869   6.592
 2131WAT      O 6634   4.529   0.977   7.037
 2131WAT     H1 6635   4.445   0.958   7.088
 2131WAT     H2 6636   4.534   0.916   6.958
 2132WAT      O 6637   5.510   2.390   4.876
 2132WAT     H1 6638   5.562   2.306   4.896
 2132WAT     H2 6639   5.538   2.425   4.787
 2133WAT      O 6640   8.640   4.059   3.930
 2133WAT     H1 6641   8.696   3.976   3.927
 2133WAT     H2 6642   8.700   4.139   3.936
 2134WAT      O 6643   7.799   8.227   1.540
 2134WAT     H1 6644   7.740   8.181   1.474
 2134WAT     H2 6645   7.855   8.295   1.493
 2135WAT      O 6646   6.259   5.802   2.013
 2135WAT     H1 6647   6.243   5.848   2.100
 2135WAT     H2 6648   6.340   5.842   1.968
 2136WAT      O 6649   2.105   5.427   5.283
 2136WAT     H1 6650   2.028   5.482   5.252
 2136WAT     H2 6651   2.130   5.453   5.376
 2137WAT      O 6652   4.164   8.266   8.054
 2137WAT     H1 6653   4.221   8.185   8.045
 2137WAT     H2 6654   4.197   8.337   7.991
 2138WAT      O 6655   4.693   4.093   2.172
 2138WAT     H1 6656   4.599   4.075   2.145
 2138WAT     H2 6657   4.743   4.007   2.179
 2139WAT      O 6658   3.286   6.258   7.944
 2139WAT     H1 6659   3.217   6.321   7.906
 2139WAT     H2 6660   3.361   6.312   7.983
 2140WAT      O 6661   6.476   2.054   5.185
 2140WAT     H1 6662   6.520   2.017   5.267
 2140WAT     H2 6663   6.387   2.093   5.210
 2141WAT      O 6664   9.591   0.231   4.415
 2141WAT     H1 6665   9.659   0.201   4.348
 2141WAT     H2 6666   9.564   0.154   4.473
 2142WAT      O 6667   6.123   5.801   4.181
 2142WAT     H1 6668   6.213   5.842   4.168
 2142WAT     H2 6669   6.100   5.800   4.278
 2143WAT      O 6670   4.215   2.979   1.322
 2143WAT     H1 6671   4.148   3.046   1.290
 2143WAT     H2 6672   4.236   2.915   1.248
 2144WAT      O 6673   2.529   2.351   0.892
 2144WAT     H1 6674   2.464   2.361   0.817
 2144WAT     H2 6675   2.526   2.257   0.927
 2145WAT      O 6676   9.506   6.922   3.926
 2145WAT     H1 6677   9.487   6.953   4.019
 2145WAT     H2 6678   9.420   6.918   3.874
 2146WAT      O 6679   7.185   6.993   4.217
 2146WAT     H1 6680   7.138   6.911   4.186
 2146WAT     H2 6681   7.124   7.072   4.206
 2147WAT      O 6682   8.332   1.818   1.253
 2147WAT     H1 6683   8.285   1.798   1.338
 2147WAT     H2 6684   8.290   1.899   1.210
 2148WAT      O 6685   8.191   2.316   8.492
 2148WAT     H1 6686   8.114   2.363   8.535
 2148WAT     H2 6687   8.217   2.237   8.548
 2149WAT      O 6688   9.815   3.834   4.940
 2149WAT     H1 6689   9.787   3.844   4.844
 2149WAT     H2 6690   9.735   3.840   4.999
 2150WAT      O 6691   8.239   7.253   6.646
 2150WAT     H1 6692   8.184   7.172   6.668
 2150WAT     H2 6693   8.326   7.225   6.606
 2151WAT      O 6694   0.997   2.794   7.842
 2151WAT     H1 6695   1.049   2.742   7.909
 2151WAT     H2 6696   1.020   2.761   7.750
 2152WAT      O 6697   0.015   2.162   2.974
 2152WAT     H1 6698  -0.071   2.116   2.951
 2152WAT     H2 6699  -0.003   2.258   2.992
 2153WAT      O 6700   6.377   7.069   6.728
 2153WAT     H1 6701   6.355   6.972   6.722
 2153WAT     H2 6702   6.444   7.084   6.801
 2154WAT      O 6703   7.885   1.709   3.436
 2154WAT     H1 6704   7.841   1.653   3.506
 2154WAT     H2 6705   7.825   1.785   3.412
 2155WAT      O 6706   9.687   3.264   8.114
 2155WAT     H1 6707   9.782   3.294   8.125
 2155WAT     H2 6708   9.637   3.332   8.062
 2156WAT      O 6709   5.099   1.152   5.179
 2156WAT     H1 6710   5.082   1.249   5.163
 2156WAT     H2 6711   5.103   1.135   5.277
 2157WAT      O 6712   4.416   0.123   1.039
 2157WAT     H1 6713   4.408   0.094   0.944
 2157WAT     H2 6714   4.395   0.220   1.047
 2158WAT      O 6715   7.837   2.095   6.127
 2158WAT     H1 6716   7.743   2.112   6.098
 2158WAT     H2 6717   7.892   2.068   6.048
 2159WAT      O 6718   5.693   5.976   2.947
 2159WAT     H1 6719   5.619   5.980   3.013
 2159WAT     H2 6720   5.675   5.902   2.881
 2160WAT      O 6721   2.144   2.332   7.954
 2160WAT     H1 6722   2.209   2.267   7.995
 2160WAT     H2 6723   2.053   2.315   7.991
 2161WAT      O 6724   3.651   8.955   6.467
 2161WAT     H1 6725   3.657   9.051   6.495
 2161WAT     H2 6726   3.672   8.947   6.369
 2162WAT      O 6727   3.416   4.283   5.196
 2162WAT     H1 6728   3.381   4.365   5.242
 2162WAT     H2 6729   3.354   4.256   5.123
 2163WAT      O 6730   4.630   6.412   6.780
 2163WAT     H1 6731   4.535   6.391   6.755
 2163WAT     H2 6732   4.631   6.494   6.838
 2164WAT      O 6733   1.569   5.290   6.333
 2164WAT     H1 6734   1.470   5.294   6.338
 2164WAT     H2 6735   1.605   5.232   6.406
 2165WAT      O 6736   6.538   4.890   4.245
 2165WAT     H1 6737   6.565   4.967   4.303
 2165WAT     H2 6738   6.449   4.855   4.275
 2166WAT      O 6739   6.139   4.145   2.348
 2166WAT     H1 6740   6.192   4.108   2.272
 2166WAT     H2 6741   6.187   4.127   2.434
 2167WAT      O 6742   4.352   1.136   9.672
 2167WAT     H1 6743   4.389   1.109   9.761
 2167WAT     H2 6744   4.418   1.194   9.625
 2168WAT      O 6745   9.301   8.059   8.884
 2168WAT     H1 6746   9.377   8.028   8.940
 2168WAT     H2 6747   9.225   7.994   8.890
 2169WAT      O 6748   9.870   3.517   8.155
 2169WAT     H1 6749   9.812   3.598   8.143
 2169WAT     H2 6750   9.943   3.518   8.086
 2170WAT      O 6751   7.883   2.916   8.893
 2170WAT     H1 6752   7.805   2.853   8.888
 2170WAT     H2 6753   7.853   3.003   8.932
 2171WAT      O 6754   7.986   2.754   9.391
 2171WAT     H1 6755   7.992   2.845   9.351
 2171WAT     H2 6756   7.953   2.760   9.485
 2172WAT      O 6757   8.890   5.177   5.158
 2172WAT     H1 6758   8.821   5.246   5.134
 2172WAT     H2 6759   8.975   5.223   5.184
 2173WAT      O 6760   4.201   7.880   6.442
 2173WAT     H1 6761   4.140   7.806   6.469
 2173WAT     H2 6762   4.156   7.968   6.458
 2174WAT      O 6763   6.976   8.137   7.387
 2174WAT     H1 6764   6.878   8.132   7.406
 2174WAT     H2 6765   7.024   8.171   7.468
 2175WAT      O 6766   1.025   3.367   8.760
 2175WAT     H1 6767   0.944   3.424   8.747
 2175WAT     H2 6768   1.006   3.274   8.727
 2176WAT      O 6769   5.205   9.488   5.955
 2176WAT     H1 6770   5.165   9.548   5.885
 2176WAT     H2 6771   5.305   9.495   5.951
 2177WAT      O 6772   3.764   7.516   7.655
 2177WAT     H1 6773   3.724   7.537   7.744
 2177WAT     H2 6774   3.825   7.590   7.627
 2178WAT      O 6775   2.490   4.939   2.744
 2178WAT     H1 6776   2.443   4.993   2.814
 2178WAT     H2 6777   2.562   4.884   2.786
 2179WAT      O 6778   5.370   3.288   3.636
 2179WAT     H1 6779   5.292   3.229   3.612
 2179WAT     H2 6780   5.454   3.235   3.630
 2180WAT      O 6781   8.840   3.408   2.596
 2180WAT     H1 6782   8.901   3.351   2.652
 2180WAT     H2 6783   8.894   3.460   2.530
 2181WAT      O 6784   6.570   2.775   8.265
 2181WAT     H1 6785   6.669   2.781   8.279
 2181WAT     H2 6786   6.539   2.856   8.214
 2182WAT      O 6787   8.432   9.161   9.481
 2182WAT     H1 6788   8.464   9.242   9.531
 2182WAT     H2 6789   8.457   9.170   9.384
 2183WAT      O 6790   4.309   4.149   2.503
 2183WAT     H1 6791   4.404   4.179   2.499
 2183WAT     H2 6792   4.305   4.051   2.520
 2184WAT      O 6793   2.518   4.646   4.871
 2184WAT     H1 6794   2.585   4.721   4.870
 2184WAT     H2 6795   2.563   4.560   4.848
 2185WAT      O 6796   5.981   6.146   6.180
 2185WAT     H1 6797   6.024   6.066   6.139
 2185WAT     H2 6798   5.918   6.116   6.252
 2186WAT      O 6799   9.684   1.813   2.981
 2186WAT     H1 6800   9.657   1.768   2.896
 2186WAT     H2 6801   9.733   1.749   3.039
 2187WAT      O 6802   5.592   4.920   4.263
 2187WAT     H1 6803   5.559   5.008   4.230
 2187WAT     H2 6804   5.602   4.923   4.363
 2188WAT      O 6805   7.139   2.366   7.108
 2188WAT     H1 6806   7.052   2.407   7.136
 2188WAT     H2 6807   7.163   2.294   7.173
 2189WAT      O 6808   2.803   5.851   9.666
 2189WAT     H1 6809   2.865   5.794   9.720
 2189WAT     H2 6810   2.774   5.930   9.721
 2190WAT      O 6811   7.171   3.703   1.307
 2190WAT     H1 6812   7.205   3.706   1.213
 2190WAT     H2 6813   7.075   3.733   1.309
 2191WAT      O 6814   3.674   8.167   7.124
 2191WAT     H1 6815   3.592   8.185   7.178
 2191WAT     H2 6816   3.671   8.073   7.090
 2192WAT      O 6817   8.540   7.417   7.355
 2192WAT     H1 6818   8.577   7.442   7.265
 2192WAT     H2 6819   8.582   7.332   7.387
 2193WAT      O 6820   5.803   0.970   8.948
 2193WAT     H1 6821   5.817   0.875   8.975
 2193WAT     H2 6822   5.862   1.029   9.002
 2194WAT      O 6823   5.694   0.374   6.032
 2194WAT     H1 6824   5.684   0.468   5.999
 2194WAT     H2 6825   5.764   0.327   5.978
 2195WAT      O 6826   5.089   7.773   2.200
 2195WAT     H1 6827   5.007   7.765   2.256
 2195WAT     H2 6828   5.164   7.722   2.242
 2196WAT      O 6829   7.140   5.099   4.591
 2196WAT     H1 6830   7.168   5.099   4.494
 2196WAT     H2 6831   7.221   5.108   4.648
 2197WAT      O 6832   2.292   1.283   8.830
 2197WAT     H1 6833   2.379   1.331   8.821
 2197WAT     H2 6834   2.222   1.330   8.776
 2198WAT      O 6835   8.508   9.094   4.987
 2198WAT     H1 6836   8.489   9.023   5.055
 2198WAT     H2 6837   8.438   9.165   4.993
 2199WAT      O 6838   3.967   3.993   1.272
 2199WAT     H1 6839   3.906   3.916   1.293
 2199WAT     H2 6840   3.976   4.052   1.353
 2200WAT      O 6841   4.026   1.131   3.278
 2200WAT     H1 6842   4.031   1.063   3.351
 2200WAT     H2 6843   4.092   1.108   3.207
 2201WAT      O 6844   3.664   5.442   0.825
 2201WAT     H1 6845   3.686   5.424   0.729
 2201WAT     H2 6846   3.735   5.500   0.865
 2202WAT      O 6847   8.353   3.844   1.870
 2202WAT     H1 6848   8.261   3.832   1.907
 2202WAT     H2 6849   8.420   3.807   1.934
 2203WAT      O 6850   5.390   4.623   6.100
 2203WAT     H1 6851   5.372   4.687   6.025
 2203WAT     H2 6852   5.481   4.584   6.090
 2204WAT      O 6853   0.039   4.842   2.380
 2204WAT     H1 6854   0.024   4.872   2.286
 2204WAT     H2 6855   0.115   4.893   2.420
 2205WAT      O 6856   3.671   1.601   2.910
 2205WAT     H1 6857   3.731   1.541   2.857
 2205WAT     H2 6858   3.587   1.551   2.934
 2206WAT      O 6859   9.286   5.751   2.174
 2206WAT     H1 6860   9.293   5.696   2.257
 2206WAT     H2 6861   9.375   5.794   2.155
 2207WAT      O 6862   3.084   5.044   4.789
 2207WAT     H1 6863   3.138   4.971   4.832
 2207WAT     H2 6864   3.131   5.131   4.801
 2208WAT      O 6865   0.143   3.697   5.290
 2208WAT     H1 6866   0.114   3.789   5.266
 2208WAT     H2 6867   0.103   3.671   5.379
 2209WAT      O 6868   0.456   6.486   5.547
 2209WAT     H1 6869   0.432   6.570   5.596
 2209WAT     H2 6870   0.386   6.417   5.563
 2210WAT      O 6871   7.994   4.067   6.306
 2210WAT     H1 6872   7.967   4.110   6.393
 2210WAT     H2 6873   7.925   4.088   6.236
 2211WAT      O 6874   9.352   7.414   1.266
 2211WAT     H1 6875   9.382   7.506   1.241
 2211WAT     H2 6876   9.252   7.409   1.263
 2212WAT      O 6877   0.142   1.111   7.479
 2212WAT     H1 6878   0.208   1.165   7.531
 2212WAT     H2 6879   0.083   1.173   7.426
 2213WAT      O 6880   7.073   3.442   4.085
 2213WAT     H1 6881   7.113   3.441   4.177
 2213WAT     H2 6882   7.115   3.514   4.031
 2214WAT      O 6883   8.268   1.370   1.744
 2214WAT     H1 6884   8.237   1.460   1.777
 2214WAT     H2 6885   8.325   1.382   1.663
 2215WAT      O 6886   5.453   6.607   8.842
 2215WAT     H1 6887   5.523   6.669   8.876
 2215WAT     H2 6888   5.495   6.538   8.783
 2216WAT      O 6889   2.461   8.372   3.133
 2216WAT     H1 6890   2.415   8.438   3.075
 2216WAT     H2 6891   2.531   8.323   3.080
 2217WAT      O 6892   4.832   4.339   0.529
 2217WAT     H1 6893   4.830   4.428   0.574
 2217WAT     H2 6894   4.924   4.300   0.535
 2218WAT      O 6895   9.005   1.904   6.615
 2218WAT     H1 6896   8.920   1.891   6.565
 2218WAT     H2 6897   9.083   1.887   6.555
 2219WAT      O 6898   0.507   9.203   7.708
 2219WAT     H1 6899   0.512   9.211   7.608
 2219WAT     H2 6900   0.591   9.238   7.749
 2220WAT      O 6901   9.867   3.083   3.041
 2220WAT     H1 6902   9.862   3.066   2.943
 2220WAT     H2 6903   9.774   3.091   3.079
 2221WAT      O 6904   3.168   0.058   7.546
 2221WAT     H1 6905   3.227   0.084   7.469
 2221WAT     H2 6906   3.225   0.028   7.623
 2222WAT      O 6907   7.231   3.538   2.624
 2222WAT     H1 6908   7.223   3.510   2.529
 2222WAT     H2 6909   7.310   3.598   2.635
 2223WAT      O 6910   1.511   9.223   5.099
 2223WAT     H1 6911   1.485   9.127   5.101
 2223WAT     H2 6912   1.604   9.233   5.132
 2224WAT      O 6913   6.168   3.578   3.287
 2224WAT     H1 6914   6.105   3.649   3.316
 2224WAT     H2 6915   6.117   3.504   3.243
 2225WAT      O 6916   8.285   3.709   4.731
 2225WAT     H1 6917   8.226   3.764   4.672
 2225WAT     H2 6918   8.297   3.618   4.691
 2226WAT      O 6919   6.242   5.163   8.738
 2226WAT     H1 6920   6.307   5.183   8.811
 2226WAT     H2 6921   6.288   5.167   8.649
 2227WAT      O 6922   9.533   9.603   2.645
 2227WAT     H1 6923   9.510   9.507   2.661
 2227WAT     H2 6924   9.576   9.641   2.727
 2228WAT      O 6925   4.844   2.414   9.371
 2228WAT     H1 6926   4.772   2.373   9.427
 2228WAT     H2 6927   4.823   2.510   9.355
 2229WAT      O 6928   9.326   6.655   5.001
 2229WAT     H1 6929   9.367   6.564   4.999
 2229WAT     H2 6930   9.384   6.720   4.952
 2230WAT      O 6931   1.438   3.179   4.267
 2230WAT     H1 6932   1.484   3.167   4.179
 2230WAT     H2 6933   1.507   3.189   4.339
 2231WAT      O 6934   5.242   5.645   2.975
 2231WAT     H1 6935   5.303   5.695   3.036
 2231WAT     H2 6936   5.184   5.710   2.926
 2232WAT      O 6937   1.663   9.628   6.070
 2232WAT     H1 6938   1.649   9.667   6.161
 2232WAT     H2 6939   1.756   9.591   6.064
 2233WAT      O 6940   1.882   8.255   7.772
 2233WAT     H1 6941   1.837   8.344   7.758
 2233WAT     H2 6942   1.954   8.265   7.841
 2234WAT      O 6943   7.604   7.876   5.403
 2234WAT     H1 6944   7.535   7.931   5.449
 2234WAT     H2 6945   7.688   7.876   5.457
 2235WAT      O 6946   4.727   7.356   2.748
 2235WAT     H1 6947   4.744   7.362   2.847
 2235WAT     H2 6948   4.806   7.313   2.704
 2236WAT      O 6949   4.686   7.379   4.009
 2236WAT     H1 6950   4.645   7.294   4.044
 2236WAT     H2 6951   4.613   7.443   3.983
 2237WAT      O 6952   7.659   0.184   5.673
 2237WAT     H1 6953   7.703   0.199   5.584
 2237WAT     H2 6954   7.665   0.088   5.697
 2238WAT      O 6955   5.369   9.252   7.441
 2238WAT     H1 6956   5.442   9.196   7.477
 2238WAT     H2 6957   5.355   9.232   7.344
 2239WAT      O 6958   8.976   9.132   5.921
 2239WAT     H1 6959   8.878   9.112   5.929
 2239WAT     H2 6960   8.993   9.224   5.957
 2240WAT      O 6961   0.395   4.208   4.085
 2240WAT     H1 6962   0.415   4.121   4.130
 2240WAT     H2 6963   0.432   4.283   4.139
 2241WAT      O 6964   3.110   1.539   7.630
 2241WAT     H1 6965   3.011   1.548   7.623
 2241WAT     H2 6966   3.151   1.630   7.641
 2242WAT      O 6967   3.460   0.043   3.162
 2242WAT     H1 6968   3.469   0.124   3.104
 2242WAT     H2 6969   3.375   0.049   3.214
 2243WAT      O 6970   5.798   6.959   7.956
 2243WAT     H1 6971   5.856   7.025   7.907
 2243WAT     H2 6972   5.783   6.991   8.049
 2244WAT      O 6973   4.761   2.481   3.173
 2244WAT     H1 6974   4.687   2.455   3.235
 2244WAT     H2 6975   4.744   2.573   3.138
 2245WAT      O 6976   7.467   7.688   5.059
 2245WAT     H1 6977   7.373   7.719   5.064
 2245WAT     H2 6978   7.473   7.593   5.088
 2246WAT      O 6979   8.542   9.515   4.214
 2246WAT     H1 6980   8.489   9.430   4.217
 2246WAT     H2 6981   8.620   9.503   4.153
 2247WAT      O 6982   1.013   8.075   7.362
 2247WAT     H1 6983   1.067   8.107   7.440
 2247WAT     H2 6984   0.918   8.103   7.373
 2248WAT      O 6985   2.151   8.129   9.310
 2248WAT     H1 6986   2.250   8.120   9.303
 2248WAT     H2 6987   2.128   8.195   9.382
 2249WAT      O 6988   8.172   9.811   8.203
 2249WAT     H1 6989   8.099   9.747   8.226
 2249WAT     H2 6990   8.150   9.902   8.236
 2250WAT      O 6991   7.358   3.989   3.489
 2250WAT     H1 6992   7.380   3.996   3.391
 2250WAT     H2 6993   7.298   3.911   3.504
 2251WAT      O 6994   5.961   3.410   4.022
 2251WAT     H1 6995   5.997   3.440   4.110
 2251WAT     H2 6996   6.036   3.390   3.959
 2252WAT      O 6997   2.692   0.985   3.776
 2252WAT     H1 6998   2.632   0.914   3.738
 2252WAT     H2 6999   2.748   0.945   3.849
 2253WAT      O 7000   1.165   4.658   6.814
 2253WAT     H1 7001   1.193   4.562   6.815
 2253WAT     H2 7002   1.205   4.703   6.733
 2254WAT      O 7003   7.433   5.986   3.026
 2254WAT     H1 7004   7.453   6.029   2.938
 2254WAT     H2 7005   7.404   6.056   3.091
 2255WAT      O 7006   7.781   8.207   5.492
 2255WAT     H1 7007   7.849   8.155   5.440
 2255WAT     H2 7008   7.691   8.199   5.448
 2256WAT      O 7009   9.508   2.558   3.363
 2256WAT     H1 7010   9.487   2.603   3.450
 2256WAT     H2 7011   9.587   2.603   3.321
 2257WAT      O 7012   6.523   6.505   5.872
 2257WAT     H1 7013   6.578   6.461   5.801
 2257WAT     H2 7014   6.546   6.602   5.877
 2258WAT      O 7015   3.111   6.717   0.103
 2258WAT     H1 7016   3.112   6.655   0.025
 2258WAT     H2 7017   3.159   6.673   0.180
 2259WAT      O 7018   5.718   6.481   4.913
 2259WAT     H1 7019   5.694   6.561   4.969
 2259WAT     H2 7020   5.702   6.397   4.965
 2260WAT      O 7021   3.485   3.070   8.684
 2260WAT     H1 7022   3.425   3.005   8.729
 2260WAT     H2 7023   3.438   3.113   8.608
 2261WAT      O 7024   6.352   5.328   3.503
 2261WAT     H1 7025   6.414   5.387   3.554
 2261WAT     H2 7026   6.274   5.304   3.560
 2262WAT      O 7027   4.703   6.920   0.304
 2262WAT     H1 7028   4.742   6.850   0.364
 2262WAT     H2 7029   4.604   6.915   0.306
 2263WAT      O 7030   5.050   7.690   6.392
 2263WAT     H1 7031   5.074   7.615   6.454
 2263WAT     H2 7032   4.966   7.734   6.424
 2264WAT      O 7033   4.059   2.093   0.045
 2264WAT     H1 7034   3.990   2.023   0.030
 2264WAT     H2 7035   4.030   2.179   0.002
 2265WAT      O 7036   3.702   3.326   0.694
 2265WAT     H1 7037   3.737   3.416   0.667
 2265WAT     H2 7038   3.697   3.267   0.613
 2266WAT      O 7039   8.852   9.413   8.149
 2266WAT     H1 7040   8.851   9.502   8.195
 2266WAT     H2 7041   8.876   9.426   8.052
 2267WAT      O 7042   6.491   9.674   6.762
 2267WAT     H1 7043   6.439   9.601   6.807
 2267WAT     H2 7044   6.433   9.720   6.695
 2268WAT      O 7045   3.296   7.342   3.243
 2268WAT     H1 7046   3.363   7.269   3.255
 2268WAT     H2 7047   3.343   7.430   3.235
 2269WAT      O 7048   3.782   0.433   6.372
 2269WAT     H1 7049   3.727   0.420   6.289
 2269WAT     H2 7050   3.756   0.364   6.440
 2270WAT      O 7051   9.488   9.084   5.292
 2270WAT     H1 7052   9.393   9.076   5.321
 2270WAT     H2 7053   9.546   9.107   5.370
 2271WAT      O 7054   1.029   3.354   0.590
 2271WAT     H1 7055   1.067   3.434   0.637
 2271WAT     H2 7056   1.039   3.274   0.649
 2272WAT      O 7057   2.605   3.574   6.408
 2272WAT     H1 7058   2.572   3.644   6.471
 2272WAT     H2 7059   2.689   3.534   6.445
 2273WAT      O 7060   6.493   2.555   2.361
 2273WAT     H1 7061   6.475   2.649   2.334
 2273WAT     H2 7062   6.413   2.498   2.343
 2274WAT      O 7063   1.158   2.628   2.334
 2274WAT     H1 7064   1.076   2.638   2.392
 2274WAT     H2 7065   1.231   2.686   2.369
 2275WAT      O 7066   1.044   1.799   8.189
 2275WAT     H1 7067   1.097   1.882   8.211
 2275WAT     H2 7068   1.064   1.728   8.257
 2276WAT      O 7069   9.611   9.171   0.437
 2276WAT     H1 7070   9.525   9.128   0.410
 2276WAT     H2 7071   9.620   9.168   0.536
 2277WAT      O 7072   2.983   4.808   5.234
 2277WAT     H1 7073   2.932   4.782   5.153
 2277WAT     H2 7074   3.047   4.882   5.211
 2278WAT      O 7075   9.656   9.139   8.572
 2278WAT     H1 7076   9.659   9.043   8.544
 2278WAT     H2 7077   9.746   9.181   8.558
 2279WAT      O 7078   2.316   4.140   6.922
 2279WAT     H1 7079   2.299   4.206   6.995
 2279WAT     H2 7080   2.231   4.091   6.901
 2280WAT      O 7081   7.162   3.748   8.638
 2280WAT     H1 7082   7.198   3.832   8.678
 2280WAT     H2 7083   7.171   3.752   8.538
 2281WAT      O 7084   6.975   3.899   0.988
 2281WAT     H1 7085   6.935   3.904   0.896
 2281WAT     H2 7086   6.971   3.804   1.020
 2282WAT      O 7087   4.299   9.762   8.121
 2282WAT     H1 7088   4.398   9.764   8.109
 2282WAT     H2 7089   4.259   9.848   8.090
 2283WAT      O 7090   7.151   1.143   4.903
 2283WAT     H1 7091   7.104   1.133   4.990
 2283WAT     H2 7092   7.088   1.121   4.828
 2284WAT      O 7093   1.638   6.848   3.343
 2284WAT     H1 7094   1.541   6.842   3.367
 2284WAT     H2 7095   1.673   6.757   3.321
 2285WAT      O 7096   2.309   5.679   5.057
 2285WAT     H1 7097   2.256   5.708   4.978
 2285WAT     H2 7098   2.308   5.579   5.064
 2286WAT      O 7099   4.113   0.319   0.551
 2286WAT     H1 7100   4.040   0.382   0.578
 2286WAT     H2 7101   4.200   0.351   0.588
 2287WAT      O 7102   4.143   2.912   7.400
 2287WAT     H1 7103   4.053   2.900   7.358
 2287WAT     H2 7104   4.136   2.978   7.475
 2288WAT      O 7105   3.095   0.332   8.813
 2288WAT     H1 7106   3.121   0.310   8.719
 2288WAT     H2 7107   3.006   0.293   8.834
 2289WAT      O 7108   9.595   5.200   8.902
 2289WAT     H1 7109   9.527   5.267   8.932
 2289WAT     H2 7110   9.555   5.140   8.833
 2290WAT      O 7111   0.104   5.944   1.033
 2290WAT     H1 7112   0.177   5.876   1.026
 2290WAT     H2 7113   0.142   6.031   1.065
 2291WAT      O 7114   0.771   3.107   4.133
 2291WAT     H1 7115   0.845   3.128   4.197
 2291WAT     H2 7116   0.683   3.132   4.175
 2292WAT      O 7117   9.306   8.661   4.678
 2292WAT     H1 7118   9.281   8.696   4.768
 2292WAT     H2 7119   9.405   8.652   4.672
 2293WAT      O 7120   2.121   0.249   3.177
 2293WAT     H1 7121   2.162   0.184   3.241
 2293WAT     H2 7122   2.111   0.338   3.221
 2294WAT      O 7123   3.251   4.736   1.250
 2294WAT     H1 7124   3.155   4.755   1.271
 2294WAT     H2 7125   3.256   4.673   1.173
 2295WAT      O 7126   0.245   9.391   1.424
 2295WAT     H1 7127   0.246   9.479   1.378
 2295WAT     H2 7128   0.320   9.335   1.390
 2296WAT      O 7129   1.374   8.040   8.176
 2296WAT     H1 7130   1.331   8.106   8.114
 2296WAT     H2 7131   1.473   8.055   8.178
 2297WAT      O 7132   4.781   1.580   2.131
 2297WAT     H1 7133   4.701   1.604   2.186
 2297WAT     H2 7134   4.761   1.597   2.035
 2298WAT      O 7135   9.077   2.402   1.400
 2298WAT     H1 7136   9.169   2.365   1.388
 2298WAT     H2 7137   9.072   2.492   1.358
 2299WAT      O 7138   6.410   3.482   6.644
 2299WAT     H1 7139   6.335   3.487   6.710
 2299WAT     H2 7140   6.393   3.545   6.569
 2300WAT      O 7141   0.733   8.677   7.068
 2300WAT     H1 7142   0.800   8.666   6.994
 2300WAT     H2 7143   0.642   8.654   7.034
 2301WAT      O 7144   2.162   3.926   2.133
 2301WAT     H1 7145   2.182   3.837   2.173
 2301WAT     H2 7146   2.153   3.994   2.205
 2302WAT      O 7147   6.296   0.422   3.274
 2302WAT     H1 7148   6.336   0.455   3.188
 2302WAT     H2 7149   6.231   0.490   3.308
 2303WAT      O 7150   5.776   0.467   7.334
 2303WAT     H1 7151   5.694   0.462   7.392
 2303WAT     H2 7152   5.852   0.502   7.388
 2304WAT      O 7153   5.266   3.197   9.109
 2304WAT     H1 7154   5.298   3.141   9.032
 2304WAT     H2 7155   5.310   3.287   9.105
 2305WAT      O 7156   6.504   4.080   5.547
 2305WAT     H1 7157   6.567   4.043   5.478
 2305WAT     H2 7158   6.473   4.171   5.519
 2306WAT      O 7159   3.705   7.816   1.232
 2306WAT     H1 7160   3.735   7.744   1.171
 2306WAT     H2 7161   3.783   7.874   1.257
 2307WAT      O 7162   9.004   5.938   1.589
 2307WAT     H1 7163   8.931   5.956   1.523
 2307WAT     H2 7164   9.013   5.840   1.602
 2308WAT      O 7165   3.665   7.589   6.385
 2308WAT     H1 7166   3.748   7.601   6.439
 2308WAT     H2 7167   3.598   7.537   6.439
 2309WAT      O 7168   6.880   5.048   8.406
 2309WAT     H1 7169   6.833   4.962   8.387
 2309WAT     H2 7170   6.978   5.037   8.388
 2310WAT      O 7171   4.906   7.540   0.350
 2310WAT     H1 7172   4.880   7.453   0.392
 2310WAT     H2 7173   5.003   7.537   0.325
 2311WAT      O 7174   5.469   1.451   4.640
 2311WAT     H1 7175   5.406   1.414   4.707
 2311WAT     H2 7176   5.499   1.542   4.669
 2312WAT      O 7177   2.148   4.014   4.885
 2312WAT     H1 7178   2.168   4.015   4.787
 2312WAT     H2 7179   2.050   4.025   4.899
 2313WAT      O 7180   1.455   3.545   2.148
 2313WAT     H1 7181   1.531   3.607   2.130
 2313WAT     H2 7182   1.422   3.506   2.062
 2314WAT      O 7183   6.856   2.248   4.315
 2314WAT     H1 7184   6.900   2.332   4.347
 2314WAT     H2 7185   6.822   2.197   4.393
 2315WAT      O 7186   4.382   3.774   5.761
 2315WAT     H1 7187   4.479   3.797   5.772
 2315WAT     H2 7188   4.367   3.735   5.670
 2316WAT      O 7189   2.100   5.284   9.238
 2316WAT     H1 7190   2.072   5.314   9.329
 2316WAT     H2 7191   2.197   5.261   9.239
 2317WAT      O 7192   0.190   9.424   3.611
 2317WAT     H1 7193   0.162   9.460   3.700
 2317WAT     H2 7194   0.197   9.499   3.546
 2318WAT      O 7195   1.371   4.441   4.473
 2318WAT     H1 7196   1.435   4.364   4.474
 2318WAT     H2 7197   1.421   4.525   4.452
 2319WAT      O 7198   8.513   3.623   9.486
 2319WAT     H1 7199   8.418   3.615   9.456
 2319WAT     H2 7200   8.515   3.658   9.580
 2320WAT      O 7201   6.911   2.821   2.983
 2320WAT     H1 7202   6.969   2.833   3.063
 2320WAT     H2 7203   6.817   2.799   3.012
 2321WAT      O 7204   9.894   2.970   3.808
 2321WAT     H1 7205   9.842   2.939   3.728
 2321WAT     H2 7206   9.840   2.955   3.891
 2322WAT      O 7207   5.635   6.917   3.729
 2322WAT     H1 7208   5.711   6.981   3.718
 2322WAT     H2 7209   5.551   6.959   3.695
 2323WAT      O 7210   2.540   4.404   6.023
 2323WAT     H1 7211   2.605   4.334   6.052
 2323WAT     H2 7212   2.587   4.491   6.013
 2324WAT      O 7213   4.132   7.741   2.462
 2324WAT     H1 7214   4.125   7.819   2.399
 2324WAT     H2 7215   4.097   7.659   2.417
 2325WAT      O 7216   5.817   0.849   8.574
 2325WAT     H1 7217   5.735   0.818   8.623
 2325WAT     H2 7218   5.833   0.946   8.594
 2326WAT      O 7219   0.872   9.381   9.481
 2326WAT     H1 7220   0.786   9.394   9.432
 2326WAT     H2 7221   0.943   9.354   9.416
 2327WAT      O 7222   6.536   1.882   7.250
 2327WAT     H1 7223   6.504   1.837   7.167
 2327WAT     H2 7224   6.604   1.951   7.227
 2328WAT      O 7225   6.066   7.410   5.235
 2328WAT     H1 7226   6.067   7.499   5.190
 2328WAT     H2 7227   6.115   7.344   5.178
 2329WAT      O 7228   6.690   6.123   3.786
 2329WAT     H1 7229   6.641   6.209   3.771
 2329WAT     H2 7230   6.717   6.085   3.697
 2330WAT      O 7231   2.644   8.982   0.685
 2330WAT     H1 7232   2.737   8.959   0.656
 2330WAT     H2 7233   2.610   9.059   0.632
 2331WAT      O 7234   3.822   5.850   2.230
 2331WAT     H1 7235   3.814   5.827   2.133
 2331WAT     H2 7236   3.918   5.843   2.258
 2332WAT      O 7237   3.905   5.067   8.839
 2332WAT     H1 7238   3.958   5.033   8.917
 2332WAT     H2 7239   3.919   5.166   8.830
 2333WAT      O 7240   1.045   2.096   5.268
 2333WAT     H1 7241   0.957   2.141   5.282
 2333WAT     H2 7242   1.103   2.110   5.348
 2334WAT      O 7243   0.362   6.854   0.009
 2334WAT     H1 7244   0.302   6.934   0.013
 2334WAT     H2 7245   0.316   6.781  -0.042
 2335WAT      O 7246   2.647   6.310   0.410
 2335WAT     H1 7247   2.615   6.237   0.349
 2335WAT     H2 7248   2.694   6.380   0.356
 2336WAT      O 7249   0.480   2.912   8.768
 2336WAT     H1 7250   0.580   2.919   8.779
 2336WAT     H2 7251   0.438   2.897   8.857
 2337WAT      O 7252   7.034   7.877   4.571
 2337WAT     H1 7253   7.117   7.908   4.618
 2337WAT     H2 7254   7.032   7.916   4.479
 2338WAT      O 7255   2.196   7.617   5.621
 2338WAT     H1 7256   2.099   7.634   5.639
 2338WAT     H2 7257   2.243   7.605   5.708
 2339WAT      O 7258   1.761   2.852   6.745
 2339WAT     H1 7259   1.674   2.805   6.760
 2339WAT     H2 7260   1.776   2.864   6.647
 2340WAT      O 7261   1.038   5.238   3.806
 2340WAT     H1 7262   0.957   5.286   3.771
 2340WAT     H2 7263   1.067   5.170   3.739
 2341WAT      O 7264   1.317   7.887   2.184
 2341WAT     H1 7265   1.335   7.860   2.090
 2341WAT     H2 7266   1.374   7.965   2.208
 2342WAT      O 7267   9.415   7.406   4.355
 2342WAT     H1 7268   9.334   7.365   4.313
 2342WAT     H2 7269   9.462   7.463   4.288
 2343WAT      O 7270   2.189   5.856   3.508
 2343WAT     H1 7271   2.151   5.794   3.577
 2343WAT     H2 7272   2.287   5.864   3.520
 2344WAT      O 7273   0.615   1.503   8.321
 2344WAT     H1 7274   0.581   1.567   8.389
 2344WAT     H2 7275   0.715   1.502   8.322
 2345WAT      O 7276   8.549   7.446   3.496
 2345WAT     H1 7277   8.486   7.368   3.497
 2345WAT     H2 7278   8.529   7.504   3.417
 2346WAT      O 7279   5.296   8.513   5.300
 2346WAT     H1 7280   5.275   8.432   5.356
 2346WAT     H2 7281   5.380   8.555   5.333
 2347WAT      O 7282   8.782   8.053   8.302
 2347WAT     H1 7283   8.756   8.040   8.206
 2347WAT     H2 7284   8.707   8.096   8.352
 2348WAT      O 7285   6.848   0.037   3.050
 2348WAT     H1 7286   6.812   0.129   3.068
 2348WAT     H2 7287   6.926   0.044   2.989
 2349WAT      O 7288   6.747   4.601   7.914
 2349WAT     H1 7289   6.762   4.506   7.884
 2349WAT     H2 7290   6.667   4.638   7.866
 2350WAT      O 7291   0.418   9.447   0.711
 2350WAT     H1 7292   0.400   9.514   0.783
 2350WAT     H2 7293   0.349   9.375   0.715
 2351WAT      O 7294   5.360   7.238   9.277
 2351WAT     H1 7295   5.307   7.152   9.273
 2351WAT     H2 7296   5.306   7.311   9.235
 2352WAT      O 7297   7.779   8.946   2.415
 2352WAT     H1 7298   7.814   8.857   2.445
 2352WAT     H2 7299   7.680   8.940   2.404
 2353WAT      O 7300   0.159   5.329   0.832
 2353WAT     H1 7301   0.133   5.425   0.837
 2353WAT     H2 7302   0.259   5.320   0.834
 2354WAT      O 7303   2.246   3.988   8.187
 2354WAT     H1 7304   2.210   4.075   8.152
 2354WAT     H2 7305   2.223   3.914   8.124
 2355WAT      O 7306   6.575   1.051   8.897
 2355WAT     H1 7307   6.597   0.955   8.913
 2355WAT     H2 7308   6.598   1.076   8.802
 2356WAT      O 7309   6.184   9.801   1.999
 2356WAT     H1 7310   6.272   9.845   1.981
 2356WAT     H2 7311   6.170   9.794   2.098
 2357WAT      O 7312   3.105   4.971   5.666
 2357WAT     H1 7313   3.087   4.903   5.737
 2357WAT     H2 7314   3.034   4.965   5.595
 2358WAT      O 7315   0.110   2.476   3.507
 2358WAT     H1 7316   0.065   2.396   3.547
 2358WAT     H2 7317   0.203   2.484   3.543
 2359WAT      O 7318   5.944   2.258   1.524
 2359WAT     H1 7319   5.911   2.277   1.616
 2359WAT     H2 7320   6.023   2.197   1.529
 2360WAT      O 7321   7.746   2.508   5.370
 2360WAT     H1 7322   7.660   2.527   5.418
 2360WAT     H2 7323   7.761   2.578   5.300
 2361WAT      O 7324   1.367   6.070   9.091
 2361WAT     H1 7325   1.454   6.021   9.082
 2361WAT     H2 7326   1.341   6.107   9.002
 2362WAT      O 7327   2.189   7.912   6.333
 2362WAT     H1 7328   2.109   7.884   6.279
 2362WAT     H2 7329   2.190   7.860   6.419
 2363WAT      O 7330   5.970   4.108   1.841
 2363WAT     H1 7331   5.944   4.097   1.746
 2363WAT     H2 7332   5.944   4.026   1.893
 2364WAT      O 7333   5.575   1.208   5.072
 2364WAT     H1 7334   5.577   1.152   4.990
 2364WAT     H2 7335   5.527   1.159   5.145
 2365WAT      O 7336   1.699   1.475   6.351
 2365WAT     H1 7337   1.746   1.503   6.268
 2365WAT     H2 7338   1.671   1.556   6.402
 2366WAT      O 7339   8.792   7.498   1.876
 2366WAT     H1 7340   8.835   7.417   1.916
 2366WAT     H2 7341   8.826   7.580   1.922
 2367WAT      O 7342   3.462   5.290   4.873
 2367WAT     H1 7343   3.492   5.293   4.968
 2367WAT     H2 7344   3.362   5.293   4.868
 2368WAT      O 7345   7.683   0.930   0.240
 2368WAT     H1 7346   7.586   0.944   0.221
 2368WAT     H2 7347   7.723   1.014   0.276
 2369WAT      O 7348   5.318   1.859   2.665
 2369WAT     H1 7349   5.228   1.855   2.707
 2369WAT     H2 7350   5.335   1.775   2.614
 2370WAT      O 7351   2.874   5.175   1.215
 2370WAT     H1 7352   2.966   5.215   1.214
 2370WAT     H2 7353   2.854   5.139   1.306
 2371WAT      O 7354   2.349   5.643   0.783
 2371WAT     H1 7355   2.254   5.626   0.755
 2371WAT     H2 7356   2.361   5.615   0.878
 2372WAT      O 7357   0.976   7.944   3.178
 2372WAT     H1 7358   1.049   7.946   3.245
 2372WAT     H2 7359   0.894   7.987   3.216
 2373WAT      O 7360   5.584   4.946   7.976
 2373WAT     H1 7361   5.497   4.897   7.976
 2373WAT     H2 7362   5.586   5.011   7.900
 2374WAT      O 7363   5.634   0.383   4.190
 2374WAT     H1 7364   5.707   0.346   4.248
 2374WAT     H2 7365   5.603   0.471   4.226
 2375WAT      O 7366   3.350   5.329   1.798
 2375WAT     H1 7367   3.423   5.275   1.756
 2375WAT     H2 7368   3.359   5.425   1.771
 2376WAT      O 7369   2.169   7.921   3.072
 2376WAT     H1 7370   2.224   7.855   3.122
 2376WAT     H2 7371   2.140   7.994   3.135
 2377WAT      O 7372   8.377   2.485   5.858
 2377WAT     H1 7373   8.461   2.535   5.876
 2377WAT     H2 7374   8.366   2.473   5.759
 2378WAT      O 7375   4.712   2.044   4.773
 2378WAT     H1 7376   4.655   2.048   4.855
 2378WAT     H2 7377   4.757   2.133   4.759
 2379WAT      O 7378   3.745   0.791   2.673
 2379WAT     H1 7379   3.699   0.712   2.714
 2379WAT     H2 7380   3.756   0.862   2.743
 2380WAT      O 7381   6.915   5.896   5.917
 2380WAT     H1 7382   7.001   5.918   5.964
 2380WAT     H2 7383   6.844   5.959   5.949
 2381WAT      O 7384   9.792   1.638   4.222
 2381WAT     H1 7385   9.713   1.696   4.241
 2381WAT     H2 7386   9.876   1.692   4.227
 2382WAT      O 7387   9.752   0.777   5.921
 2382WAT     H1 7388   9.849   0.754   5.928
 2382WAT     H2 7389   9.713   0.731   5.840
 2383WAT      O 7390   3.930   1.914   0.335
 2383WAT     H1 7391   4.025   1.922   0.303
 2383WAT     H2 7392   3.909   1.992   0.393
 2384WAT      O 7393   9.594   0.899   0.365
 2384WAT     H1 7394   9.572   0.916   0.269
 2384WAT     H2 7395   9.684   0.937   0.385
 2385WAT      O 7396   3.025   4.134   4.154
 2385WAT     H1 7397   3.078   4.070   4.209
 2385WAT     H2 7398   2.936   4.093   4.131
 2386WAT      O 7399   0.818   6.143   8.141
 2386WAT     H1 7400   0.730   6.169   8.182
 2386WAT     H2 7401   0.884   6.218   8.154
 2387WAT      O 7402   4.633   5.438   2.902
 2387WAT     H1 7403   4.639   5.520   2.959
 2387WAT     H2 7404   4.695   5.368   2.938
 2388WAT      O 7405   0.545   2.038   6.744
 2388WAT     H1 7406   0.485   2.092   6.684
 2388WAT     H2 7407   0.584   2.099   6.814
 2389WAT      O 7408   2.288   2.750   8.148
 2389WAT     H1 7409   2.253   2.686   8.079
 2389WAT     H2 7410   2.282   2.843   8.113
 2390WAT      O 7411   7.121   2.861   9.337
 2390WAT     H1 7412   7.206   2.902   9.305
 2390WAT     H2 7413   7.082   2.917   9.411
 2391WAT      O 7414   7.765   2.277   9.106
 2391WAT     H1 7415   7.854   2.235   9.122
 2391WAT     H2 7416   7.777   2.376   9.093
 2392WAT      O 7417   7.525   0.583   8.597
 2392WAT     H1 7418   7.608   0.591   8.542
 2392WAT     H2 7419   7.528   0.649   8.672
 2393WAT      O 7420   3.680   0.216   8.043
 2393WAT     H1 7421   3.750   0.281   8.014
 2393WAT     H2 7422   3.595   0.266   8.063
 2394WAT      O 7423   2.442   2.502   0.190
 2394WAT     H1 7424   2.451   2.403   0.177
 2394WAT     H2 7425   2.345   2.525   0.202
 2395WAT      O 7426   8.418   6.158   3.008
 2395WAT     H1 7427   8.431   6.245   2.961
 2395WAT     H2 7428   8.320   6.138   3.013
 2396WAT      O 7429   3.195   0.696   3.374
 2396WAT     H1 7430   3.184   0.794   3.359
 2396WAT     H2 7431   3.197   0.677   3.472
 2397WAT      O 7432   5.111   5.554   6.263
 2397WAT     H1 7433   5.096   5.588   6.356
 2397WAT     H2 7434   5.023   5.540   6.219
 2398WAT      O 7435   6.390   0.909   5.040
 2398WAT     H1 7436   6.291   0.897   5.033
 2398WAT     H2 7437   6.429   0.916   4.948
 2399WAT      O 7438   6.091   1.094   4.877
 2399WAT     H1 7439   6.131   1.182   4.902
 2399WAT     H2 7440   6.103   1.029   4.952
 2400WAT      O 7441   6.333   4.131   4.882
 2400WAT     H1 7442   6.378   4.100   4.966
 2400WAT     H2 7443   6.250   4.182   4.906
 2401WAT      O 7444   5.436   7.065   6.859
 2401WAT     H1 7445   5.451   6.981   6.911
 2401WAT     H2 7446   5.473   7.053   6.766
 2402WAT      O 7447   4.557   8.486   9.725
 2402WAT     H1 7448   4.482   8.444   9.777
 2402WAT     H2 7449   4.519   8.543   9.652
 2403WAT      O 7450   8.040   1.626   7.618
 2403WAT     H1 7451   8.050   1.659   7.525
 2403WAT     H2 7452   7.963   1.672   7.662
 2404WAT      O 7453   2.831   9.517   6.571
 2404WAT     H1 7454   2.733   9.532   6.581
 2404WAT     H2 7455   2.847   9.440   6.510
 2405WAT      O 7456   7.993   1.494   0.559
 2405WAT     H1 7457   7.896   1.476   0.542
 2405WAT     H2 7458   8.044   1.491   0.473
 2406WAT      O 7459   2.220   2.901   2.120
 2406WAT     H1 7460   2.156   2.832   2.152
 2406WAT     H2 7461   2.249   2.878   2.027
 2407WAT      O 7462   8.355   6.635   2.941
 2407WAT     H1 7463   8.391   6.712   2.888
 2407WAT     H2 7464   8.346   6.663   3.037
 2408WAT      O 7465   6.053   6.449   3.268
 2408WAT     H1 7466   6.025   6.356   3.289
 2408WAT     H2 7467   6.073   6.456   3.170
 2409WAT      O 7468   9.820   4.443   4.244
 2409WAT     H1 7469   9.848   4.475   4.334
 2409WAT     H2 7470   9.879   4.367   4.216
 2410WAT      O 7471   1.094   4.181   9.713
 2410WAT     H1 7472   1.104   4.091   9.754
 2410WAT     H2 7473   1.172   4.200   9.653
 2411WAT      O 7474   9.638   4.285   1.208
 2411WAT     H1 7475   9.709   4.346   1.171
 2411WAT     H2 7476   9.664   4.255   1.299
 2412WAT      O 7477   9.164   0.429   5.407
 2412WAT     H1 7478   9.216   0.441   5.491
 2412WAT     H2 7479   9.130   0.517   5.375
 2413WAT      O 7480   4.393   3.366   6.426
 2413WAT     H1 7481   4.296   3.349   6.407
 2413WAT     H2 7482   4.414   3.462   6.407
 2414WAT      O 7483   5.923   5.475   4.578
 2414WAT     H1 7484   6.012   5.480   4.534
 2414WAT     H2 7485   5.862   5.415   4.525
 2415WAT      O 7486   8.041   1.026   5.598
 2415WAT     H1 7487   8.029   0.979   5.511
 2415WAT     H2 7488   7.990   1.112   5.597
 2416WAT      O 7489   6.720   8.771   4.175
 2416WAT     H1 7490   6.800   8.763   4.235
 2416WAT     H2 7491   6.637   8.766   4.231
 2417WAT      O 7492   5.079   6.780   1.941
 2417WAT     H1 7493   5.135   6.835   1.878
 2417WAT     H2 7494   5.085   6.683   1.915
 2418WAT      O 7495   5.440   7.061   1.039
 2418WAT     H1 7496   5.388   7.037   1.120
 2418WAT     H2 7497   5.484   7.150   1.052
 2419WAT      O 7498   1.653   2.944   9.311
 2419WAT     H1 7499   1.731   2.943   9.248
 2419WAT     H2 7500   1.569   2.928   9.259
 2420WAT      O 7501   1.157   6.799   4.779
 2420WAT     H1 7502   1.066   6.794   4.737
 2420WAT     H2 7503   1.192   6.706   4.793
 2421WAT      O 7504   2.538   4.846   6.989
 2421WAT     H1 7505   2.496   4.936   7.001
 2421WAT     H2 7506   2.475   4.785   6.941
 2422WAT      O 7507   4.169   8.447   0.923
 2422WAT     H1 7508   4.111   8.397   0.858
 2422WAT     H2 7509   4.150   8.415   1.016
 2423WAT      O 7510   5.667   5.861   4.562
 2423WAT     H1 7511   5.582   5.824   4.599
 2423WAT     H2 7512   5.718   5.788   4.517
 2424WAT      O 7513   8.049   8.408   4.916
 2424WAT     H1 7514   8.073   8.501   4.890
 2424WAT     H2 7515   8.096   8.383   5.000
 2425WAT      O 7516   6.407   1.603   0.522
 2425WAT     H1 7517   6.363   1.518   0.553
 2425WAT     H2 7518   6.390   1.675   0.589
 2426WAT      O 7519   8.989   3.507   3.446
 2426WAT     H1 7520   8.906   3.451   3.443
 2426WAT     H2 7521   8.990   3.562   3.529
 2427WAT      O 7522   7.367   0.246   7.903
 2427WAT     H1 7523   7.366   0.326   7.843
 2427WAT     H2 7524   7.291   0.252   7.967
 2428WAT      O 7525   1.361   8.269   9.885
 2428WAT     H1 7526   1.416   8.208   9.828
 2428WAT     H2 7527   1.328   8.345   9.830
 2429WAT      O 7528   0.568   2.150   9.290
 2429WAT     H1 7529   0.536   2.056   9.288
 2429WAT     H2 7530   0.611   2.173   9.203
 2430WAT      O 7531   5.361   6.334   1.329
 2430WAT     H1 7532   5.426   6.343   1.253
 2430WAT     H2 7533   5.269   6.359   1.297
 2431WAT      O 7534   3.326   7.906   1.350
 2431WAT     H1 7535   3.338   7.869   1.258
 2431WAT     H2 7536   3.415   7.913   1.395
 2432WAT      O 7537   5.381   7.310   7.496
 2432WAT     H1 7538   5.419   7.357   7.575
 2432WAT     H2 7539   5.442   7.320   7.418
 2433WAT      O 7540   4.473   0.409   9.496
 2433WAT     H1 7541   4.505   0.318   9.524
 2433WAT     H2 7542   4.375   0.417   9.515
 2434WAT      O 7543   1.002   4.688   5.893
 2434WAT     H1 7544   1.066   4.745   5.840
 2434WAT     H2 7545   0.918   4.675   5.840
 2435WAT      O 7546   1.602   3.489   3.123
 2435WAT     H1 7547   1.685   3.510   3.071
 2435WAT     H2 7548   1.623   3.423   3.195
 2436WAT      O 7549   7.057   9.059   6.973
 2436WAT     H1 7550   7.025   8.999   7.046
 2436WAT     H2 7551   7.003   9.042   6.890
 2437WAT      O 7552   9.061   1.583   1.497
 2437WAT     H1 7553   9.156   1.556   1.479
 2437WAT     H2 7554   9.035   1.659   1.438
 2438WAT      O 7555   0.199   4.134   6.300
 2438WAT     H1 7556   0.264   4.203   6.331
 2438WAT     H2 7557   0.244   4.044   6.300
 2439WAT      O 7558   7.880   0.187   0.925
 2439WAT     H1 7559   7.799   0.232   0.963
 2439WAT     H2 7560   7.886   0.206   0.827
 2440WAT      O 7561   2.423   1.580   4.593
 2440WAT     H1 7562   2.483   1.567   4.672
 2440WAT     H2 7563   2.478   1.598   4.511
 2441WAT      O 7564   2.219   8.382   3.754
 2441WAT     H1 7565   2.161   8.384   3.835
 2441WAT     H2 7566   2.252   8.474   3.733
 2442WAT      O 7567   7.190   2.962   4.113
 2442WAT     H1 7568   7.248   2.930   4.187
 2442WAT     H2 7569   7.242   3.021   4.051
 2443WAT      O 7570   7.234   9.193   3.920
 2443WAT     H1 7571   7.207   9.255   3.846
 2443WAT     H2 7572   7.167   9.119   3.928
 2444WAT      O 7573   6.645   8.077   5.434
 2444WAT     H1 7574   6.724   8.032   5.476
 2444WAT     H2 7575   6.576   8.097   5.504
 2445WAT      O 7576   1.290   4.256   7.719
 2445WAT     H1 7577   1.208   4.312   7.703
 2445WAT     H2 7578   1.371   4.310   7.696
 2446WAT      O 7579   8.101   6.722   7.787
 2446WAT     H1 7580   8.136   6.689   7.699
 2446WAT     H2 7581   8.130   6.817   7.801
 2447WAT      O 7582   7.788   1.696   7.795
 2447WAT     H1 7583   7.793   1.702   7.895
 2447WAT     H2 7584   7.719   1.760   7.762
 2448WAT      O 7585   1.908   4.003   6.453
 2448WAT     H1 7586   2.004   4.002   6.481
 2448WAT     H2 7587   1.851   4.021   6.532
 2449WAT      O 7588   5.578   8.639   6.478
 2449WAT     H1 7589   5.642   8.651   6.554
 2449WAT     H2 7590   5.554   8.728   6.439
 2450WAT      O 7591   7.817   6.879   2.646
 2450WAT     H1 7592   7.863   6.959   2.605
 2450WAT     H2 7593   7.841   6.797   2.595
 2451WAT      O 7594   5.679   4.012   2.578
 2451WAT     H1 7595   5.639   4.040   2.665
 2451WAT     H2 7596   5.720   4.091   2.533
 2452WAT      O 7597   3.985   3.557   4.878
 2452WAT     H1 7598   3.927   3.510   4.944
 2452WAT     H2 7599   3.931   3.622   4.826
 2453WAT      O 7600   5.210   4.045   7.601
 2453WAT     H1 7601   5.310   4.050   7.604
 2453WAT     H2 7602   5.182   3.988   7.523
 2454WAT      O 7603   4.889   9.784   0.309
 2454WAT     H1 7604   4.855   9.876   0.290
 2454WAT     H2 7605   4.988   9.781   0.293
 2455WAT      O 7606   5.075   5.101   6.200
 2455WAT     H1 7607   5.019   5.112   6.283
 2455WAT     H2 7608   5.076   5.188   6.150
 2456WAT      O 7609   3.432   1.378   1.010
 2456WAT     H1 7610   3.486   1.294   1.021
 2456WAT     H2 7611   3.343   1.355   0.970
 2457WAT      O 7612   8.755   9.072   3.959
 2457WAT     H1 7613   8.752   9.015   4.041
 2457WAT     H2 7614   8.850   9.092   3.935
 2458WAT      O 7615   4.854   8.674   8.220
 2458WAT     H1 7616   4.768   8.630   8.245
 2458WAT     H2 7617   4.853   8.769   8.248
 2459WAT      O 7618   0.360   8.707   7.851
 2459WAT     H1 7619   0.270   8.663   7.855
 2459WAT     H2 7620   0.384   8.743   7.941
 2460WAT      O 7621   8.704   7.156   2.721
 2460WAT     H1 7622   8.630   7.196   2.775
 2460WAT     H2 7623   8.776   7.122   2.781
 2461WAT      O 7624   8.303   7.429   5.616
 2461WAT     H1 7625   8.237   7.504   5.626
 2461WAT     H2 7626   8.278   7.354   5.676
 2462WAT      O 7627   1.012   0.174   4.808
 2462WAT     H1 7628   1.069   0.132   4.738
 2462WAT     H2 7629   1.061   0.251   4.849
 2463WAT      O 7630   7.173   6.199   5.338
 2463WAT     H1 7631   7.074   6.198   5.330
 2463WAT     H2 7632   7.199   6.238   5.427
 2464WAT      O 7633   6.804   9.751   3.608
 2464WAT     H1 7634   6.837   9.799   3.689
 2464WAT     H2 7635   6.880   9.736   3.545
 2465WAT      O 7636   0.556   6.954   5.691
 2465WAT     H1 7637   0.533   6.859   5.712
 2465WAT     H2 7638   0.473   7.005   5.670
 2466WAT      O 7639   7.080   0.432   0.753
 2466WAT     H1 7640   7.148   0.396   0.689
 2466WAT     H2 7641   7.073   0.371   0.831
 2467WAT      O 7642   7.255   9.192   0.704
 2467WAT     H1 7643   7.162   9.228   0.697
 2467WAT     H2 7644   7.318   9.258   0.664
 2468WAT      O 7645   9.301   6.924   3.752
 2468WAT     H1 7646   9.322   6.853   3.685
 2468WAT     H2 7647   9.260   7.003   3.705
 2469WAT      O 7648   6.740   1.196   6.102
 2469WAT     H1 7649   6.828   1.153   6.123
 2469WAT     H2 7650   6.700   1.152   6.022
 2470WAT      O 7651   8.192   9.807   9.209
 2470WAT     H1 7652   8.175   9.729   9.270
 2470WAT     H2 7653   8.125   9.807   9.135
 2471WAT      O 7654   3.207   8.760   0.302
 2471WAT     H1 7655   3.223   8.723   0.210
 2471WAT     H2 7656   3.113   8.794   0.307
 2472WAT      O 7657   7.385   4.272   8.961
 2472WAT     H1 7658   7.338   4.247   8.877
 2472WAT     H2 7659   7.320   4.270   9.038
 2473WAT      O 7660   9.707   4.530   4.029
 2473WAT     H1 7661   9.762   4.511   4.111
 2473WAT     H2 7662   9.754   4.600   3.974
 2474WAT      O 7663   2.940   4.045   6.908
 2474WAT     H1 7664   2.970   3.959   6.867
 2474WAT     H2 7665   2.874   4.089   6.847
 2475WAT      O 7666   4.720   3.242   7.747
 2475WAT     H1 7667   4.696   3.197   7.832
 2475WAT     H2 7668   4.638   3.255   7.692
 2476WAT      O 7669   9.796   9.134   1.716
 2476WAT     H1 7670   9.821   9.184   1.633
 2476WAT     H2 7671   9.751   9.197   1.779
 2477WAT      O 7672   2.926   2.702   1.629
 2477WAT     H1 7673   2.827   2.686   1.633
 2477WAT     H2 7674   2.970   2.658   1.708
 2478WAT      O 7675   3.919   3.996   6.220
 2478WAT     H1 7676   3.831   4.028   6.256
 2478WAT     H2 7677   3.904   3.915   6.162
 2479WAT      O 7678   7.206   3.006   0.815
 2479WAT     H1 7679   7.167   2.993   0.906
 2479WAT     H2 7680   7.183   3.098   0.781
 2480WAT      O 7681   1.132   4.077   9.111
 2480WAT     H1 7682   1.151   4.123   9.025
 2480WAT     H2 7683   1.205   4.011   9.130
 2481WAT      O 7684   6.137   0.605   0.824
 2481WAT     H1 7685   6.185   0.542   0.885
 2481WAT     H2 7686   6.187   0.612   0.737
 2482WAT      O 7687   4.392   0.738   3.484
 2482WAT     H1 7688   4.479   0.782   3.505
 2482WAT     H2 7689   4.335   0.736   3.566
 2483WAT      O 7690   8.414   0.412   2.022
 2483WAT     H1 7691   8.498   0.410   2.077
 2483WAT     H2 7692   8.430   0.365   1.936
 2484WAT      O 7693   5.282   1.436   9.527
 2484WAT     H1 7694   5.375   1.446   9.492
 2484WAT     H2 7695   5.217   1.477   9.463
 2485WAT      O 7696   1.695   2.532   7.501
 2485WAT     H1 7697   1.679   2.452   7.442
 2485WAT     H2 7698   1.714   2.501   7.594
 2486WAT      O 7699   6.892   4.488   3.327
 2486WAT     H1 7700   6.861   4.482   3.232
 2486WAT     H2 7701   6.928   4.399   3.355
 2487WAT      O 7702   8.383   5.265   7.493
 2487WAT     H1 7703   8.368   5.174   7.531
 2487WAT     H2 7704   8.302   5.321   7.509
 2488WAT      O 7705   1.814   5.751   3.249
 2488WAT     H1 7706   1.850   5.845   3.249
 2488WAT     H2 7707   1.781   5.728   3.340
 2489WAT      O 7708   3.405   2.257   2.224
 2489WAT     H1 7709   3.414   2.346   2.268
 2489WAT     H2 7710   3.349   2.197   2.281
 2490WAT      O 7711   2.788   3.535   4.256
 2490WAT     H1 7712   2.724   3.487   4.317
 2490WAT     H2 7713   2.764   3.632   4.251
 2491WAT      O 7714   3.734   1.275   5.038
 2491WAT     H1 7715   3.817   1.319   5.002
 2491WAT     H2 7716   3.657   1.338   5.032
 2492WAT      O 7717   0.628   4.027   7.886
 2492WAT     H1 7718   0.555   4.094   7.872
 2492WAT     H2 7719   0.596   3.937   7.859
 2493WAT      O 7720   4.413   0.847   7.463
 2493WAT     H1 7721   4.481   0.824   7.532
 2493WAT     H2 7722   4.401   0.770   7.401
 2494WAT      O 7723   1.760   3.775   7.634
 2494WAT     H1 7724   1.692   3.737   7.696
 2494WAT     H2 7725   1.798   3.701   7.577
 2495WAT      O 7726   5.869   9.019   6.812
 2495WAT     H1 7727   5.866   9.117   6.829
 2495WAT     H2 7728   5.776   8.982   6.808
 2496WAT      O 7729   2.199   6.771   3.099
 2496WAT     H1 7730   2.291   6.739   3.120
 2496WAT     H2 7731   2.195   6.805   3.005
 2497WAT      O 7732   3.238   4.341   8.095
 2497WAT     H1 7733   3.203   4.337   8.001
 2497WAT     H2 7734   3.318   4.400   8.098
 2498WAT      O 7735   0.915   4.687   6.181
 2498WAT     H1 7736   0.879   4.779   6.196
 2498WAT     H2 7737   0.965   4.685   6.095
 2499WAT      O 7738   3.881   9.038   9.183
 2499WAT     H1 7739   3.862   9.091   9.101
 2499WAT     H2 7740   3.862   9.094   9.264
 2500WAT      O 7741   8.685   2.510   9.428
 2500WAT     H1 7742   8.727   2.595   9.394
 2500WAT     H2 7743   8.595   2.531   9.467
 2501WAT      O 7744   7.364   3.950   7.649
 2501WAT     H1 7745   7.316   4.034   7.673
 2501WAT     H2 7746   7.299   3.884   7.612
 2502WAT      O 7747   4.678   0.234   8.821
 2502WAT     H1 7748   4.720   0.154   8.778
 2502WAT     H2 7749   4.713   0.245   8.914
 2503WAT      O 7750   3.912   2.182   6.648
 2503WAT     H1 7751   3.983   2.122   6.610
 2503WAT     H2 7752   3.849   2.209   6.576
 2504WAT      O 7753   8.706   9.016   5.949
 2504WAT     H1 7754   8.614   8.981   5.934
 2504WAT     H2 7755   8.773   8.944   5.934
 2505WAT      O 7756   6.338   8.975   8.239
 2505WAT     H1 7757   6.354   9.041   8.313
 2505WAT     H2 7758   6.244   8.940   8.246
 2506WAT      O 7759   7.695   5.799   8.875
 2506WAT     H1 7760   7.752   5.736   8.823
 2506WAT     H2 7761   7.598   5.778   8.860
 2507WAT      O 7762   5.329   6.854   2.338
 2507WAT     H1 7763   5.419   6.835   2.379
 2507WAT     H2 7764   5.284   6.928   2.387
 2508WAT      O 7765   3.335   1.178   9.786
 2508WAT     H1 7766   3.398   1.182   9.863
 2508WAT     H2 7767   3.281   1.094   9.793
 2509WAT      O 7768   3.896   8.563   6.034
 2509WAT     H1 7769   3.931   8.514   6.114
 2509WAT     H2 7770   3.797   8.571   6.041
 2510WAT      O 7771   1.652   6.886   2.568
 2510WAT     H1 7772   1.609   6.910   2.480
 2510WAT     H2 7773   1.586   6.838   2.625
 2511WAT      O 7774   7.395   7.201   0.957
 2511WAT     H1 7775   7.305   7.158   0.960
 2511WAT     H2 7776   7.422   7.217   0.862
 2512WAT      O 7777   7.872   8.195   8.763
 2512WAT     H1 7778   7.860   8.096   8.757
 2512WAT     H2 7779   7.959   8.221   8.722
 2513WAT      O 7780   8.706   1.053   7.511
 2513WAT     H1 7781   8.731   1.074   7.416
 2513WAT     H2 7782   8.654   1.130   7.549
 2514WAT      O 7783   9.384   7.352   7.122
 2514WAT     H1 7784   9.306   7.358   7.184
 2514WAT     H2 7785   9.450   7.285   7.157
 2515WAT      O 7786   8.937   2.706   1.880
 2515WAT     H1 7787   8.986   2.793   1.869
 2515WAT     H2 7788   8.863   2.701   1.813
 2516WAT      O 7789   2.459   8.213   6.933
 2516WAT     H1 7790   2.419   8.287   6.879
 2516WAT     H2 7791   2.431   8.224   7.029
 2517WAT      O 7792   2.271   3.219   5.044
 2517WAT     H1 7793   2.235   3.149   4.983
 2517WAT     H2 7794   2.295   3.178   5.132
 2518WAT      O 7795   7.512   8.842   4.757
 2518WAT     H1 7796   7.578   8.810   4.826
 2518WAT     H2 7797   7.473   8.763   4.711
 2519WAT      O 7798   0.487   4.754   4.804
 2519WAT     H1 7799   0.399   4.739   4.850
 2519WAT     H2 7800   0.472   4.759   4.705
 2520WAT      O 7801   7.889   3.089   3.655
 2520WAT     H1 7802   7.879   3.164   3.590
 2520WAT     H2 7803   7.840   3.111   3.739
 2521WAT      O 7804   2.443   9.055   8.995
 2521WAT     H1 7805   2.539   9.083   8.993
 2521WAT     H2 7806   2.387   9.131   9.029
 2522WAT      O 7807   6.263   0.768   7.198
 2522WAT     H1 7808   6.239   0.774   7.295
 2522WAT     H2 7809   6.344   0.824   7.180
 2523WAT      O 7810   2.158   7.555   7.380
 2523WAT     H1 7811   2.196   7.524   7.292
 2523WAT     H2 7812   2.158   7.655   7.382
 2524WAT      O 7813   3.391   5.325   1.455
 2524WAT     H1 7814   3.439   5.249   1.500
 2524WAT     H2 7815   3.424   5.411   1.493
 2525WAT      O 7816   4.734   5.492   9.493
 2525WAT     H1 7817   4.721   5.448   9.582
 2525WAT     H2 7818   4.668   5.566   9.483
 2526WAT      O 7819   8.660   5.614   9.887
 2526WAT     H1 7820   8.574   5.583   9.845
 2526WAT     H2 7821   8.643   5.699   9.937
 2527WAT      O 7822   1.880   6.156   5.579
 2527WAT     H1 7823   1.889   6.057   5.580
 2527WAT     H2 7824   1.924   6.193   5.497
 2528WAT      O 7825   8.552   2.417   1.978
 2528WAT     H1 7826   8.517   2.403   2.071
 2528WAT     H2 7827   8.601   2.335   1.949
 2529WAT      O 7828   0.118   1.522   3.394
 2529WAT     H1 7829   0.148   1.618   3.402
 2529WAT     H2 7830   0.033   1.509   3.446
 2530WAT      O 7831   3.118   2.370   4.221
 2530WAT     H1 7832   3.208   2.396   4.257
 2530WAT     H2 7833   3.047   2.390   4.288
 2531WAT      O 7834   6.066   7.406   1.433
 2531WAT     H1 7835   5.971   7.409   1.463
 2531WAT     H2 7836   6.104   7.498   1.433
 2532WAT      O 7837   6.679   5.679   4.869
 2532WAT     H1 7838   6.765   5.728   4.860
 2532WAT     H2 7839   6.643   5.657   4.779
 2533WAT      O 7840   7.337   0.356   3.559
 2533WAT     H1 7841   7.421   0.302   3.564
 2533WAT     H2 7842   7.280   0.338   3.639
 2534WAT      O 7843   3.099   4.320   7.850
 2534WAT     H1 7844   3.128   4.230   7.817
 2534WAT     H2 7845   3.006   4.314   7.886
 2535WAT      O 7846   1.488   3.686   0.391
 2535WAT     H1 7847   1.475   3.664   0.295
 2535WAT     H2 7848   1.504   3.602   0.443
 2536WAT      O 7849   8.111   7.040   3.706
 2536WAT     H1 7850   8.120   7.131   3.666
 2536WAT     H2 7851   8.027   6.997   3.672
 2537WAT      O 7852   4.887   0.229   3.996
 2537WAT     H1 7853   4.972   0.202   3.951
 2537WAT     H2 7854   4.809   0.194   3.944
 2538WAT      O 7855   5.467   1.521   0.756
 2538WAT     H1 7856   5.506   1.471   0.833
 2538WAT     H2 7857   5.386   1.474   0.723
 2539WAT      O 7858   0.535   1.703   9.616
 2539WAT     H1 7859   0.592   1.758   9.556
 2539WAT     H2 7860   0.480   1.763   9.675
 2540WAT      O 7861   0.834   3.499   9.705
 2540WAT     H1 7862   0.736   3.487   9.719
 2540WAT     H2 7863   0.884   3.434   9.761
 2541WAT      O 7864   3.153   6.989   6.039
 2541WAT     H1 7865   3.091   7.043   5.982
 2541WAT     H2 7866   3.106   6.907   6.072
 2542WAT      O 7867   6.756   8.066   4.673
 2542WAT     H1 7868   6.813   7.986   4.652
 2542WAT     H2 7869   6.701   8.090   4.593
 2543WAT      O 7870   3.079   9.046   5.675
 2543WAT     H1 7871   2.990   9.005   5.693
 2543WAT     H2 7872   3.150   8.977   5.687
 2544WAT      O 7873   8.001   2.697   8.793
 2544WAT     H1 7874   7.968   2.790   8.810
 2544WAT     H2 7875   8.041   2.660   8.877
 2545WAT      O 7876   8.833   8.678   3.203
 2545WAT     H1 7877   8.754   8.721   3.247
 2545WAT     H2 7878   8.863   8.734   3.125
 2546WAT      O 7879   9.491   6.129   3.652
 2546WAT     H1 7880   9.496   6.077   3.737
 2546WAT     H2 7881   9.584   6.146   3.618
 2547WAT      O 7882   7.874   4.128   2.970
 2547WAT     H1 7883   7.913   4.212   3.007
 2547WAT     H2 7884   7.790   4.149   2.920
 2548WAT      O 7885   5.793   5.960   2.401
 2548WAT     H1 7886   5.871   6.011   2.437
 2548WAT     H2 7887   5.811   5.934   2.306
 2549WAT      O 7888   2.204   0.469   0.921
 2549WAT     H1 7889   2.193   0.380   0.966
 2549WAT     H2 7890   2.264   0.460   0.842
 2550WAT      O 7891   2.634   5.877   1.007
 2550WAT     H1 7892   2.657   5.783   1.031
 2550WAT     H2 7893   2.717   5.927   0.982
 2551WAT      O 7894   0.921   4.482   9.017
 2551WAT     H1 7895   0.961   4.433   9.094
 2551WAT     H2 7896   0.897   4.417   8.945
 2552WAT      O 7897   4.575   4.481   0.129
 2552WAT     H1 7898   4.594   4.554   0.064
 2552WAT     H2 7899   4.495   4.429   0.099
 2553WAT      O 7900   7.810   8.123   7.150
 2553WAT     H1 7901   7.835   8.110   7.054
 2553WAT     H2 7902   7.797   8.034   7.194
 2554WAT      O 7903   5.492   7.537   3.546
 2554WAT     H1 7904   5.422   7.609   3.549
 2554WAT     H2 7905   5.469   7.470   3.476
 2555WAT      O 7906   6.193   0.895   0.824
 2555WAT     H1 7907   6.141   0.951   0.888
 2555WAT     H2 7908   6.154   0.803   0.823
 2556WAT      O 7909   7.132   3.844   5.921
 2556WAT     H1 7910   7.040   3.818   5.892
 2556WAT     H2 7911   7.193   3.765   5.914
 2557WAT      O 7912   0.027   4.443   4.687
 2557WAT     H1 7913   0.070   4.448   4.597
 2557WAT     H2 7914   0.097   4.454   4.758
 2558WAT      O 7915   7.883   9.490   3.457
 2558WAT     H1 7916   7.897   9.582   3.495
 2558WAT     H2 7917   7.927   9.485   3.368
 2559WAT      O 7918   3.018   7.649   3.698
 2559WAT     H1 7919   3.067   7.683   3.778
 2559WAT     H2 7920   2.922   7.634   3.721
 2560WAT      O 7921   5.802   1.903   3.935
 2560WAT     H1 7922   5.859   1.983   3.916
 2560WAT     H2 7923   5.738   1.924   4.009
 2561WAT      O 7924   2.832   3.695   1.703
 2561WAT     H1 7925   2.815   3.764   1.773
 2561WAT     H2 7926   2.772   3.616   1.720
 2562WAT      O 7927   5.170   1.650   0.940
 2562WAT     H1 7928   5.172   1.741   0.899
 2562WAT     H2 7929   5.136   1.583   0.873
 2563WAT      O 7930   9.775   8.231   5.956
 2563WAT     H1 7931   9.867   8.213   5.992
 2563WAT     H2 7932   9.779   8.240   5.857
 2564WAT      O 7933   1.137   0.379   0.681
 2564WAT     H1 7934   1.175   0.410   0.594
 2564WAT     H2 7935   1.037   0.384   0.678
 2565WAT      O 7936   2.029   8.186   9.063
 2565WAT     H1 7937   1.990   8.115   9.004
 2565WAT     H2 7938   2.052   8.145   9.152
 2566WAT      O 7939   2.595   6.716   5.927
 2566WAT     H1 7940   2.558   6.635   5.883
 2566WAT     H2 7941   2.691   6.728   5.900
 2567WAT      O 7942   8.653   6.785   9.336
 2567WAT     H1 7943   8.666   6.686   9.331
 2567WAT     H2 7944   8.733   6.831   9.298
 2568WAT      O 7945   1.606   4.420   6.433
 2568WAT     H1 7946   1.575   4.325   6.441
 2568WAT     H2 7947   1.545   4.470   6.372
 2569WAT      O 7948   7.059   1.303   4.153
 2569WAT     H1 7949   7.053   1.279   4.056
 2569WAT     H2 7950   7.154   1.295   4.184
 2570WAT      O 7951   5.042   0.584   7.423
 2570WAT     H1 7952   5.013   0.494   7.456
 2570WAT     H2 7953   5.130   0.576   7.377
 2571WAT      O 7954   7.012   4.626   6.253
 2571WAT     H1 7955   7.025   4.711   6.202
 2571WAT     H2 7956   6.921   4.589   6.234
 2572WAT      O 7957   2.600   4.111   8.889
 2572WAT     H1 7958   2.503   4.135   8.885
 2572WAT     H2 7959   2.645   4.142   8.805
 2573WAT      O 7960   3.404   0.359   2.414
 2573WAT     H1 7961   3.404   0.405   2.503
 2573WAT     H2 7962   3.336   0.401   2.354
 2574WAT      O 7963   7.677   4.056   0.876
 2574WAT     H1 7964   7.734   4.119   0.823
 2574WAT     H2 7965   7.719   3.965   0.876
 2575WAT      O 7966   1.106   4.757   1.837
 2575WAT     H1 7967   1.183   4.703   1.873
 2575WAT     H2 7968   1.023   4.701   1.838
 2576WAT      O 7969   3.277   0.548   1.420
 2576WAT     H1 7970   3.274   0.642   1.386
 2576WAT     H2 7971   3.187   0.506   1.408
 2577WAT      O 7972   7.613   6.797   1.967
 2577WAT     H1 7973   7.712   6.806   1.972
 2577WAT     H2 7974   7.583   6.809   1.873
 2578WAT      O 7975   4.936   0.412   2.929
 2578WAT     H1 7976   5.019   0.363   2.957
 2578WAT     H2 7977   4.956   0.467   2.848
 2579WAT      O 7978   2.027   3.391   5.817
 2579WAT     H1 7979   1.963   3.334   5.867
 2579WAT     H2 7980   1.978   3.467   5.774
 2580WAT      O 7981   2.563   3.940   9.870
 2580WAT     H1 7982   2.494   3.914   9.937
 2580WAT     H2 7983   2.522   3.942   9.779
 2581WAT      O 7984   7.266   9.225   8.199
 2581WAT     H1 7985   7.222   9.140   8.172
 2581WAT     H2 7986   7.202   9.279   8.255
 2582WAT      O 7987   1.287   1.204   4.389
 2582WAT     H1 7988   1.230   1.283   4.365
 2582WAT     H2 7989   1.362   1.233   4.449
 2583WAT      O 7990   1.401   7.758   9.279
 2583WAT     H1 7991   1.312   7.743   9.322
 2583WAT     H2 7992   1.391   7.759   9.180
 2584WAT      O 7993   2.902   9.041   0.254
 2584WAT     H1 7994   2.878   9.086   0.340
 2584WAT     H2 7995   2.909   8.942   0.268
 2585WAT      O 7996   7.902   2.787   0.357
 2585WAT     H1 7997   7.995   2.808   0.329
 2585WAT     H2 7998   7.873   2.701   0.315
 2586WAT      O 7999   3.499   5.873   3.864
 2586WAT     H1 8000   3.570   5.881   3.933
 2586WAT     H2 8001   3.489   5.777   3.837
 2587WAT      O 8002   8.876   3.015   9.364
 2587WAT     H1 8003   8.973   2.996   9.373
 2587WAT     H2 8004   8.824   2.930   9.373
 2588WAT      O 8005   6.688   0.728   1.048
 2588WAT     H1 8006   6.714   0.802   1.110
 2588WAT     H2 8007   6.588   0.728   1.037
 2589WAT      O 8008   9.327   3.736   6.397
 2589WAT     H1 8009   9.374   3.772   6.477
 2589WAT     H2 8010   9.308   3.810   6.333
 2590WAT      O 8011   5.546   8.418   7.987
 2590WAT     H1 8012   5.543   8.405   8.086
 2590WAT     H2 8013   5.565   8.514   7.967
 2591WAT      O 8014   5.428   2.758   9.460
 2591WAT     H1 8015   5.337   2.754   9.418
 2591WAT     H2 8016   5.486   2.821   9.408
 2592WAT      O 8017   1.310   1.661   5.138
 2592WAT     H1 8018   1.282   1.612   5.220
 2592WAT     H2 8019   1.264   1.750   5.135
 2593WAT      O 8020   3.198   7.500   8.029
 2593WAT     H1 8021   3.254   7.580   8.053
 2593WAT     H2 8022   3.213   7.428   8.097
 2594WAT      O 8023   6.790   8.207   2.327
 2594WAT     H1 8024   6.693   8.206   2.353
 2594WAT     H2 8025   6.809   8.128   2.269
 2595WAT      O 8026   4.761   0.580   2.014
 2595WAT     H1 8027   4.702   0.575   1.933
 2595WAT     H2 8028   4.839   0.520   2.001
 2596WAT      O 8029   1.241   0.964   5.125
 2596WAT     H1 8030   1.200   1.020   5.197
 2596WAT     H2 8031   1.168   0.919   5.073
 2597WAT      O 8032   3.639   5.486   2.117
 2597WAT     H1 8033   3.678   5.436   2.039
 2597WAT     H2 8034   3.616   5.579   2.089
 2598WAT      O 8035   1.197   1.559   5.367
 2598WAT     H1 8036   1.201   1.648   5.413
 2598WAT     H2 8037   1.127   1.502   5.410
 2599WAT      O 8038   3.267   0.179   2.169
 2599WAT     H1 8039   3.216   0.265   2.161
 2599WAT     H2 8040   3.204   0.105   2.192
 2600WAT      O 8041   1.966   3.467   1.601
 2600WAT     H1 8042   1.995   3.516   1.519
 2600WAT     H2 8043   1.940   3.374   1.576
 2601WAT      O 8044   6.324   4.573   2.289
 2601WAT     H1 8045   6.261   4.498   2.309
 2601WAT     H2 8046   6.335   4.629   2.371
 2602WAT      O 8047   2.438   6.169   6.177
 2602WAT     H1 8048   2.348   6.184   6.216
 2602WAT     H2 8049   2.502   6.238   6.210
 2603WAT      O 8050   3.242   9.141   0.937
 2603WAT     H1 8051   3.276   9.226   0.979
 2603WAT     H2 8052   3.303   9.066   0.959
 2604WAT      O 8053   1.239   7.929   6.146
 2604WAT     H1 8054   1.279   7.838   6.138
 2604WAT     H2 8055   1.237   7.956   6.242
 2605WAT      O 8056   1.478   3.102   2.147
 2605WAT     H1 8057   1.567   3.148   2.150
 2605WAT     H2 8058   1.418   3.150   2.083
 2606WAT      O 8059   4.183   5.952   0.782
 2606WAT     H1 8060   4.130   6.029   0.748
 2606WAT     H2 8061   4.125   5.891   0.836
 2607WAT      O 8062   7.274   0.456   4.762
 2607WAT     H1 8063   7.320   0.372   4.736
 2607WAT     H2 8064   7.268   0.517   4.682
 2608WAT      O 8065   1.508   6.379   2.820
 2608WAT     H1 8066   1.429   6.439   2.810
 2608WAT     H2 8067   1.512   6.316   2.742
 2609WAT      O 8068   9.592   0.731   6.786
 2609WAT     H1 8069   9.528   0.654   6.797
 2609WAT     H2 8070   9.686   0.697   6.793
 2610WAT      O 8071   6.078   4.167   1.032
 2610WAT     H1 8072   5.993   4.117   1.017
 2610WAT     H2 8073   6.123   4.134   1.115
 2611WAT      O 8074   5.460   3.756   2.273
 2611WAT     H1 8075   5.491   3.668   2.310
 2611WAT     H2 8076   5.403   3.802   2.341
 2612WAT      O 8077   9.834   7.271   4.551
 2612WAT     H1 8078   9.921   7.315   4.571
 2612WAT     H2 8079   9.782   7.327   4.485
 2613WAT      O 8080   2.004   7.878   1.818
 2613WAT     H1 8081   1.929   7.821   1.850
 2613WAT     H2 8082   2.065   7.900   1.894
 2614WAT      O 8083   4.025   4.147   4.980
 2614WAT     H1 8084   3.962   4.201   5.036
 2614WAT     H2 8085   4.119   4.161   5.013
 2615WAT      O 8086   1.833   9.055   6.886
 2615WAT     H1 8087   1.776   9.134   6.863
 2615WAT     H2 8088   1.929   9.078   6.872
 2616WAT      O 8089   3.730   7.646   9.889
 2616WAT     H1 8090   3.680   7.574   9.841
 2616WAT     H2 8091   3.818   7.661   9.845
 2617WAT      O 8092   8.485   3.519   2.049
 2617WAT     H1 8093   8.514   3.615   2.049
 2617WAT     H2 8094   8.565   3.460   2.039
 2618WAT      O 8095   8.089   6.232   3.475
 2618WAT     H1 8096   8.100   6.268   3.567
 2618WAT     H2 8097   8.122   6.137   3.472
 2619WAT      O 8098   2.830   7.278   9.771
 2619WAT     H1 8099   2.824   7.298   9.869
 2619WAT     H2 8100   2.766   7.205   9.748
 2620WAT      O 8101   8.764   8.323   5.369
 2620WAT     H1 8102   8.807   8.395   5.424
 2620WAT     H2 8103   8.835   8.268   5.324
 2621WAT      O 8104   8.723   3.762   9.040
 2621WAT     H1 8105   8.650   3.828   9.057
 2621WAT     H2 8106   8.782   3.755   9.120
 2622WAT      O 8107   6.978   8.897   1.673
 2622WAT     H1 8108   6.973   8.842   1.590
 2622WAT     H2 8109   7.071   8.932   1.684
 2623WAT      O 8110   6.699   2.237   9.546
 2623WAT     H1 8111   6.772   2.169   9.547
 2623WAT     H2 8112   6.614   2.194   9.514
 2624WAT      O 8113   0.331   9.706   0.002
 2624WAT     H1 8114   0.273   9.786  -0.010
 2624WAT     H2 8115   0.301   9.654   0.082
 2625WAT      O 8116   5.094   5.323   7.988
 2625WAT     H1 8117   5.166   5.259   7.963
 2625WAT     H2 8118   5.112   5.412   7.945
 2626WAT      O 8119   6.603   2.297   4.045
 2626WAT     H1 8120   6.552   2.231   3.990
 2626WAT     H2 8121   6.681   2.332   3.993
 2627WAT      O 8122   0.283   5.233   8.078
 2627WAT     H1 8123   0.377   5.200   8.092
 2627WAT     H2 8124   0.223   5.193   8.148
 2628WAT      O 8125   0.508   5.520   7.657
 2628WAT     H1 8126   0.592   5.564   7.626
 2628WAT     H2 8127   0.502   5.526   7.757
 2629WAT      O 8128   1.728   0.850   3.876
 2629WAT     H1 8129   1.741   0.930   3.935
 2629WAT     H2 8130   1.773   0.771   3.917
 2630WAT      O 8131   3.032   0.805   1.986
 2630WAT     H1 8132   2.970   0.857   1.927
 2630WAT     H2 8133   3.057   0.859   2.066
 2631WAT      O 8134   1.684   8.723   6.590
 2631WAT     H1 8135   1.694   8.800   6.528
 2631WAT     H2 8136   1.628   8.652   6.546
 2632WAT      O 8137   2.241   0.844   9.516
 2632WAT     H1 8138   2.295   0.870   9.436
 2632WAT     H2 8139   2.302   0.815   9.590
 2633WAT      O 8140   0.966   8.394   4.946
 2633WAT     H1 8141   1.048   8.384   5.002
 2633WAT     H2 8142   0.963   8.486   4.907
 2634WAT      O 8143   6.629   3.800   3.486
 2634WAT     H1 8144   6.696   3.726   3.497
 2634WAT     H2 8145   6.642   3.867   3.560
 2635WAT      O 8146   1.195   3.800   8.836
 2635WAT     H1 8147   1.228   3.717   8.881
 2635WAT     H2 8148   1.111   3.831   8.882
 2636WAT      O 8149   6.300   9.106   6.878
 2636WAT     H1 8150   6.240   9.185   6.879
 2636WAT     H2 8151   6.280   9.048   6.957
 2637WAT      O 8152   5.058   9.091   1.945
 2637WAT     H1 8153   5.114   9.105   1.864
 2637WAT     H2 8154   5.011   9.002   1.937
 2638WAT      O 8155   4.182   9.412   7.397
 2638WAT     H1 8156   4.197   9.315   7.376
 2638WAT     H2 8157   4.220   9.433   7.487
 2639WAT      O 8158   2.116   9.156   5.733
 2639WAT     H1 8159   2.075   9.066   5.747
 2639WAT     H2 8160   2.060   9.208   5.668
 2640WAT      O 8161   4.640   6.991   4.160
 2640WAT     H1 8162   4.613   7.056   4.090
 2640WAT     H2 8163   4.594   7.014   4.246
 2641WAT      O 8164   2.819   6.021   6.552
 2641WAT     H1 8165   2.733   6.058   6.588
 2641WAT     H2 8166   2.871   6.096   6.510
 2642WAT      O 8167   3.264   9.251   6.036
 2642WAT     H1 8168   3.262   9.302   6.121
 2642WAT     H2 8169   3.247   9.154   6.055
 2643WAT      O 8170   7.893   0.956   7.705
 2643WAT     H1 8171   7.931   1.047   7.685
 2643WAT     H2 8172   7.829   0.962   7.781
 2644WAT      O 8173   4.880   4.228   7.146
 2644WAT     H1 8174   4.941   4.154   7.116
 2644WAT     H2 8175   4.868   4.223   7.246
 2645WAT      O 8176   3.398   7.653   4.929
 2645WAT     H1 8177   3.390   7.714   4.851
 2645WAT     H2 8178   3.471   7.686   4.990
 2646WAT      O 8179   4.350   4.991   5.003
 2646WAT     H1 8180   4.329   5.080   4.963
 2646WAT     H2 8181   4.295   4.920   4.959
 2647WAT      O 8182   6.201   7.546   7.900
 2647WAT     H1 8183   6.300   7.532   7.900
 2647WAT     H2 8184   6.174   7.584   7.811
 2648WAT      O 8185   0.263   7.933   9.085
 2648WAT     H1 8186   0.221   7.860   9.031
 2648WAT     H2 8187   0.357   7.947   9.056
 2649WAT      O 8188   9.123   1.524   2.916
 2649WAT     H1 8189   9.086   1.520   2.823
 2649WAT     H2 8190   9.153   1.433   2.945
 2650WAT      O 8191   5.088   5.584   9.193
 2650WAT     H1 8192   5.125   5.617   9.106
 2650WAT     H2 8193   5.108   5.651   9.265
 2651WAT      O 8194   1.387   3.406   2.382
 2651WAT     H1 8195   1.390   3.306   2.378
 2651WAT     H2 8196   1.394   3.443   2.290
 2652WAT      O 8197   1.305   6.123   4.977
 2652WAT     H1 8198   1.206   6.139   4.983
 2652WAT     H2 8199   1.353   6.208   4.999
 2653WAT      O 8200   0.325   6.233   8.463
 2653WAT     H1 8201   0.282   6.200   8.547
 2653WAT     H2 8202   0.408   6.284   8.487
 2654WAT      O 8203   5.567   5.756   2.832
 2654WAT     H1 8204   5.535   5.662   2.838
 2654WAT     H2 8205   5.488   5.818   2.834
 2655WAT      O 8206   8.762   1.703   0.277
 2655WAT     H1 8207   8.776   1.607   0.254
 2655WAT     H2 8208   8.664   1.723   0.275
 2656WAT      O 8209   1.920   9.160   3.149
 2656WAT     H1 8210   1.955   9.254   3.149
 2656WAT     H2 8211   1.827   9.158   3.186
 2657WAT      O 8212   7.718   8.005   1.216
 2657WAT     H1 8213   7.813   8.029   1.196
 2657WAT     H2 8214   7.716   7.927   1.279
 2658WAT      O 8215   8.605   7.077   6.768
 2658WAT     H1 8216   8.593   6.979   6.751
 2658WAT     H2 8217   8.594   7.127   6.683
 2659WAT      O 8218   5.149   5.375   7.375
 2659WAT     H1 8219   5.073   5.310   7.375
 2659WAT     H2 8220   5.164   5.408   7.469
 2660WAT      O 8221   6.911   6.680   4.913
 2660WAT     H1 8222   6.986   6.720   4.861
 2660WAT     H2 8223   6.948   6.614   4.979
 2661WAT      O 8224   3.879   9.558   0.157
 2661WAT     H1 8225   3.861   9.646   0.199
 2661WAT     H2 8226   3.882   9.487   0.227
 2662WAT      O 8227   2.835   8.419   1.754
 2662WAT     H1 8228   2.811   8.503   1.706
 2662WAT     H2 8229   2.774   8.407   1.833
 2663WAT      O 8230   7.697   4.007   8.903
 2663WAT     H1 8231   7.753   4.038   8.826
 2663WAT     H2 8232   7.641   4.083   8.935
 2664WAT      O 8233   6.649   2.345   9.796
 2664WAT     H1 8234   6.632   2.264   9.851
 2664WAT     H2 8235   6.644   2.322   9.699
 2665WAT      O 8236   3.182   4.540   2.265
 2665WAT     H1 8237   3.277   4.565   2.284
 2665WAT     H2 8238   3.135   4.618   2.223
 2666WAT      O 8239   5.527   7.851   6.927
 2666WAT     H1 8240   5.572   7.938   6.909
 2666WAT     H2 8241   5.429   7.860   6.913
 2667WAT      O 8242   8.224   3.337   3.611
 2667WAT     H1 8243   8.240   3.416   3.551
 2667WAT     H2 8244   8.205   3.256   3.556
 2668WAT      O 8245   4.329   4.027   6.994
 2668WAT     H1 8246   4.281   4.102   7.040
 2668WAT     H2 8247   4.413   4.061   6.952
 2669WAT      O 8248   5.566   0.544   0.674
 2669WAT     H1 8249   5.505   0.624   0.677
 2669WAT     H2 8250   5.512   0.461   0.665
 2670WAT      O 8251   8.430   8.206   0.500
 2670WAT     H1 8252   8.353   8.255   0.541
 2670WAT     H2 8253   8.476   8.151   0.570
 2671WAT      O 8254   6.954   5.506   7.476
 2671WAT     H1 8255   6.888   5.565   7.429
 2671WAT     H2 8256   6.988   5.438   7.412
 2672WAT      O 8257   6.183   0.729   7.453
 2672WAT     H1 8258   6.203   0.788   7.531
 2672WAT     H2 8259   6.253   0.658   7.445
 2673WAT      O 8260   0.225   2.377   0.472
 2673WAT     H1 8261   0.293   2.313   0.507
 2673WAT     H2 8262   0.265   2.432   0.399
 2674WAT      O 8263   1.134   6.522   5.137
 2674WAT     H1 8264   1.206   6.517   5.205
 2674WAT     H2 8265   1.173   6.549   5.049
 2675WAT      O 8266   0.118   5.412   9.045
 2675WAT     H1 8267   0.139   5.406   9.142
 2675WAT     H2 8268   0.203   5.418   8.992
 2676WAT      O 8269   4.868   1.484   1.507
 2676WAT     H1 8270   4.856   1.480   1.606
 2676WAT     H2 8271   4.795   1.540   1.466
 2677WAT      O 8272   6.786   0.214   6.028
 2677WAT     H1 8273   6.843   0.295   6.042
 2677WAT     H2 8274   6.761   0.207   5.932
 2678WAT      O 8275   5.373   9.504   7.550
 2678WAT     H1 8276   5.406   9.580   7.494
 2678WAT     H2 8277   5.371   9.420   7.495
 2679WAT      O 8278   1.762   0.082   7.546
 2679WAT     H1 8279   1.803   0.143   7.613
 2679WAT     H2 8280   1.662   0.090   7.550
 2680WAT      O 8281   2.250   9.821   0.973
 2680WAT     H1 8282   2.314   9.748   0.997
 2680WAT     H2 8283   2.177   9.825   1.041
 2681WAT      O 8284   0.945   8.321   1.983
 2681WAT     H1 8285   0.994   8.303   2.069
 2681WAT     H2 8286   0.860   8.269   1.983
 2682WAT      O 8287   2.852   7.844   7.852
 2682WAT     H1 8288   2.763   7.847   7.897
 2682WAT     H2 8289   2.911   7.777   7.897
 2683WAT      O 8290   0.316   6.032   3.827
 2683WAT     H1 8291   0.343   5.962   3.893
 2683WAT     H2 8292   0.233   6.002   3.779
 2684WAT      O 8293   0.834   1.886   2.307
 2684WAT     H1 8294   0.861   1.833   2.226
 2684WAT     H2 8295   0.756   1.842   2.351
 2685WAT      O 8296   3.927   5.010   3.168
 2685WAT     H1 8297   3.940   5.098   3.121
 2685WAT     H2 8298   4.014   4.962   3.172
 2686WAT      O 8299   7.886   8.598   0.435
 2686WAT     H1 8300   7.983   8.616   0.416
 2686WAT     H2 8301   7.865   8.503   0.409
 2687WAT      O 8302   5.436   2.399   9.357
 2687WAT     H1 8303   5.377   2.383   9.436
 2687WAT     H2 8304   5.409   2.337   9.283
 2688WAT      O 8305   7.529   5.006   0.613
 2688WAT     H1 8306   7.486   5.065   0.546
 2688WAT     H2 8307   7.478   5.010   0.699
 2689WAT      O 8308   0.564   3.700   8.000
 2689WAT     H1 8309   0.474   3.744   8.008
 2689WAT     H2 8310   0.607   3.728   7.915
 2690WAT      O 8311   1.465   7.131   3.078
 2690WAT     H1 8312   1.500   7.220   3.050
 2690WAT     H2 8313   1.395   7.100   3.014
 2691WAT      O 8314   9.166   2.565   1.032
 2691WAT     H1 8315   9.212   2.477   1.018
 2691WAT     H2 8316   9.078   2.565   0.985
 2692WAT      O 8317   0.813   5.482   1.418
 2692WAT     H1 8318   0.877   5.534   1.474
 2692WAT     H2 8319   0.751   5.431   1.478
 2693WAT      O 8320   0.854   6.250   6.113
 2693WAT     H1 8321   0.855   6.245   6.013
 2693WAT     H2 8322   0.929   6.308   6.145
 2694WAT      O 8323   0.154   0.698   5.894
 2694WAT     H1 8324   0.168   0.733   5.802
 2694WAT     H2 8325   0.235   0.715   5.949
 2695WAT      O 8326   4.805   2.829   7.566
 2695WAT     H1 8327   4.866   2.752   7.587
 2695WAT     H2 8328   4.858   2.904   7.529
 2696WAT      O 8329   8.780   4.628   4.786
 2696WAT     H1 8330   8.784   4.687   4.866
 2696WAT     H2 8331   8.684   4.610   4.763
 2697WAT      O 8332   1.265   7.645   8.674
 2697WAT     H1 8333   1.243   7.742   8.668
 2697WAT     H2 8334   1.220   7.595   8.600
 2698WAT      O 8335   3.909   8.344   4.109
 2698WAT     H1 8336   3.973   8.320   4.182
 2698WAT     H2 8337   3.958   8.395   4.038
 2699WAT      O 8338   1.043   1.390   1.202
 2699WAT     H1 8339   1.102   1.464   1.234
 2699WAT     H2 8340   1.048   1.313   1.266
 2700WAT      O 8341   5.834   6.322   6.435
 2700WAT     H1 8342   5.885   6.336   6.520
 2700WAT     H2 8343   5.842   6.227   6.406
 2701WAT      O 8344   5.629   7.795   2.656
 2701WAT     H1 8345   5.530   7.790   2.643
 2701WAT     H2 8346   5.671   7.712   2.618
 2702WAT      O 8347   4.404   1.629   6.670
 2702WAT     H1 8348   4.350   1.677   6.739
 2702WAT     H2 8349   4.431   1.540   6.705
 2703WAT      O 8350   2.426   2.968   2.288
 2703WAT     H1 8351   2.368   3.029   2.340
 2703WAT     H2 8352   2.380   2.942   2.203
 2704WAT      O 8353   5.708   8.344   4.997
 2704WAT     H1 8354   5.674   8.360   4.905
 2704WAT     H2 8355   5.807   8.350   4.998
 2705WAT      O 8356   8.124   5.673   4.063
 2705WAT     H1 8357   8.086   5.730   4.135
 2705WAT     H2 8358   8.094   5.708   3.974
 2706WAT      O 8359   5.605   1.377   0.944
 2706WAT     H1 8360   5.636   1.291   0.904
 2706WAT     H2 8361   5.573   1.360   1.037
 2707WAT      O 8362   9.886   2.177   9.699
 2707WAT     H1 8363   9.845   2.120   9.771
 2707WAT     H2 8364   9.831   2.260   9.687
 2708WAT      O 8365   4.399   8.947   8.183
 2708WAT     H1 8366   4.437   9.024   8.132
 2708WAT     H2 8367   4.307   8.971   8.217
 2709WAT      O 8368   3.955   2.376   5.313
 2709WAT     H1 8369   3.872   2.389   5.259
 2709WAT     H2 8370   3.931   2.350   5.407
 2710WAT      O 8371   7.071   5.580   0.432
 2710WAT     H1 8372   7.067   5.658   0.370
 2710WAT     H2 8373   7.145   5.519   0.403
 2711WAT      O 8374   9.284   2.472   4.683
 2711WAT     H1 8375   9.265   2.479   4.585
 2711WAT     H2 8376   9.372   2.425   4.696
 2712WAT      O 8377   2.947   1.852   7.176
 2712WAT     H1 8378   2.920   1.757   7.165
 2712WAT     H2 8379   2.975   1.869   7.270
 2713WAT      O 8380   7.105   5.667   8.580
 2713WAT     H1 8381   7.050   5.716   8.648
 2713WAT     H2 8382   7.133   5.730   8.508
 2714WAT      O 8383   1.536   5.851   7.257
 2714WAT     H1 8384   1.611   5.858   7.323
 2714WAT     H2 8385   1.472   5.780   7.286
 2715WAT      O 8386   7.503   6.137   2.248
 2715WAT     H1 8387   7.442   6.180   2.181
 2715WAT     H2 8388   7.577   6.089   2.200
 2716WAT      O 8389   0.359   0.604   2.773
 2716WAT     H1 8390   0.426   0.677   2.765
 2716WAT     H2 8391   0.273   0.632   2.729
 2717WAT      O 8392   0.176   0.304   4.054
 2717WAT     H1 8393   0.143   0.210   4.060
 2717WAT     H2 8394   0.099   0.367   4.060
 2718WAT      O 8395   2.843   2.746   1.000
 2718WAT     H1 8396   2.844   2.826   1.059
 2718WAT     H2 8397   2.811   2.772   0.909
 2719WAT      O 8398   1.686   3.807   2.323
 2719WAT     H1 8399   1.605   3.827   2.378
 2719WAT     H2 8400   1.658   3.775   2.233
 2720WAT      O 8401   7.922   0.143   8.054
 2720WAT     H1 8402   7.965   0.174   8.139
 2720WAT     H2 8403   7.906   0.221   7.994
 2721WAT      O 8404   3.386   4.003   0.790
 2721WAT     H1 8405   3.417   3.909   0.775
 2721WAT     H2 8406   3.290   4.002   0.816
 2722WAT      O 8407   6.107   8.046   0.635
 2722WAT     H1 8408   6.185   8.091   0.592
 2722WAT     H2 8409   6.088   8.090   0.723
 2723WAT      O 8410   7.186   9.282   1.632
 2723WAT     H1 8411   7.108   9.342   1.616
 2723WAT     H2 8412   7.183   9.205   1.567
 2724WAT      O 8413   7.211   8.148   5.290
 2724WAT     H1 8414   7.289   8.193   5.334
 2724WAT     H2 8415   7.222   8.153   5.191
 2725WAT      O 8416   3.210   3.261   3.325
 2725WAT     H1 8417   3.260   3.283   3.409
 2725WAT     H2 8418   3.153   3.180   3.341
 2726WAT      O 8419   0.233   9.073   7.344
 2726WAT     H1 8420   0.226   9.095   7.247
 2726WAT     H2 8421   0.280   8.985   7.355
 2727WAT      O 8422   3.452   2.933   2.986
 2727WAT     H1 8423   3.526   2.882   2.943
 2727WAT     H2 8424   3.490   3.003   3.046
 2728WAT      O 8425   9.682   2.342   7.534
 2728WAT     H1 8426   9.621   2.422   7.533
 2728WAT     H2 8427   9.775   2.371   7.515
 2729WAT      O 8428   1.159   0.927   2.468
 2729WAT     H1 8429   1.120   0.835   2.477
 2729WAT     H2 8430   1.206   0.951   2.553
 2730WAT      O 8431   3.933   1.961   3.332
 2730WAT     H1 8432   3.997   1.888   3.357
 2730WAT     H2 8433   3.974   2.019   3.261
 2731WAT      O 8434   0.087   0.737   2.044
 2731WAT     H1 8435   0.161   0.804   2.050
 2731WAT     H2 8436   0.040   0.732   2.132
 2732WAT      O 8437   4.203   8.890   4.362
 2732WAT     H1 8438   4.157   8.917   4.278
 2732WAT     H2 8439   4.139   8.843   4.423
 2733WAT      O 8440   6.072   7.475   0.046
 2733WAT     H1 8441   6.134   7.397   0.057
 2733WAT     H2 8442   6.061   7.495  -0.052
 2734WAT      O 8443   5.684   5.186   6.159
 2734WAT     H1 8444   5.687   5.111   6.092
 2734WAT     H2 8445   5.626   5.160   6.236
 2735WAT      O 8446   1.952   9.128   9.005
 2735WAT     H1 8447   1.942   9.053   8.940
 2735WAT     H2 8448   1.878   9.194   8.992
 2736WAT      O 8449   5.582   4.155   9.813
 2736WAT     H1 8450   5.489   4.165   9.778
 2736WAT     H2 8451   5.580   4.115   9.905
 2737WAT      O 8452   1.185   1.189   6.398
 2737WAT     H1 8453   1.154   1.280   6.370
 2737WAT     H2 8454   1.233   1.146   6.322
 2738WAT      O 8455   3.498   6.680   7.502
 2738WAT     H1 8456   3.433   6.625   7.553
 2738WAT     H2 8457   3.489   6.776   7.529
 2739WAT      O 8458   8.143   0.738   0.132
 2739WAT     H1 8459   8.165   0.642   0.144
 2739WAT     H2 8460   8.083   0.768   0.206
 2740WAT      O 8461   3.826   9.742   1.172
 2740WAT     H1 8462   3.799   9.743   1.268
 2740WAT     H2 8463   3.831   9.648   1.140
 2741WAT      O 8464   0.819   2.987   2.956
 2741WAT     H1 8465   0.875   3.040   3.020
 2741WAT     H2 8466   0.800   2.896   2.995
 2742WAT      O 8467   7.668   6.164   3.348
 2742WAT     H1 8468   7.628   6.254   3.330
 2742WAT     H2 8469   7.654   6.105   3.269
 2743WAT      O 8470   2.938   8.169   0.488
 2743WAT     H1 8471   3.002   8.093   0.487
 2743WAT     H2 8472   2.923   8.200   0.582
 2744WAT      O 8473   8.652   1.617   9.138
 2744WAT     H1 8474   8.735   1.637   9.190
 2744WAT     H2 8475   8.603   1.540   9.181
 2745WAT      O 8476   1.422   5.097   1.630
 2745WAT     H1 8477   1.500   5.127   1.684
 2745WAT     H2 8478   1.369   5.029   1.681
 2746WAT      O 8479   8.756   1.633   8.670
 2746WAT     H1 8480   8.709   1.616   8.756
 2746WAT     H2 8481   8.791   1.727   8.669
 2747WAT      O 8482   8.610   1.676   3.963
 2747WAT     H1 8483   8.596   1.749   4.030
 2747WAT     H2 8484   8.532   1.613   3.966
 2748WAT      O 8485   6.112   2.626   0.668
 2748WAT     H1 8486   6.118   2.679   0.752
 2748WAT     H2 8487   6.203   2.608   0.633
 2749WAT      O 8488   4.641   6.956   8.307
 2749WAT     H1 8489   4.694   6.874   8.328
 2749WAT     H2 8490   4.699   7.037   8.322
 2750WAT      O 8491   2.836   0.951   1.861
 2750WAT     H1 8492   2.844   1.043   1.899
 2750WAT     H2 8493   2.782   0.894   1.922
 2751WAT      O 8494   8.993   8.492   5.066
 2751WAT     H1 8495   9.056   8.448   5.002
 2751WAT     H2 8496   9.039   8.510   5.152
 2752WAT      O 8497   2.633   2.970   0.585
 2752WAT     H1 8498   2.690   2.985   0.505
 2752WAT     H2 8499   2.671   3.020   0.663
 2753WAT      O 8500   0.021   3.293   7.360
 2753WAT     H1 8501   0.046   3.358   7.288
 2753WAT     H2 8502   0.092   3.223   7.368
 2754WAT      O 8503   6.604   3.979   2.850
 2754WAT     H1 8504   6.698   3.995   2.820
 2754WAT     H2 8505   6.603   3.957   2.947
 2755WAT      O 8506   5.096   3.184   6.431
 2755WAT     H1 8507   5.145   3.239   6.363
 2755WAT     H2 8508   5.140   3.095   6.440
 2756WAT      O 8509   8.259   9.260   5.343
 2756WAT     H1 8510   8.316   9.322   5.396
 2756WAT     H2 8511   8.176   9.239   5.394
 2757WAT      O 8512   7.713   2.425   2.202
 2757WAT     H1 8513   7.710   2.522   2.175
 2757WAT     H2 8514   7.805   2.389   2.185
 2758WAT      O 8515   4.755   7.472   0.105
 2758WAT     H1 8516   4.810   7.491   0.023
 2758WAT     H2 8517   4.811   7.488   0.187
 2759WAT      O 8518   3.689   2.689   6.521
 2759WAT     H1 8519   3.673   2.743   6.604
 2759WAT     H2 8520   3.619   2.712   6.453
 2760WAT      O 8521   1.205   3.210   8.927
 2760WAT     H1 8522   1.144   3.268   8.874
 2760WAT     H2 8523   1.232   3.257   9.011
 2761WAT      O 8524   2.301   8.368   2.726
 2761WAT     H1 8525   2.247   8.291   2.758
 2761WAT     H2 8526   2.255   8.411   2.648
 2762WAT      O 8527   5.938   3.452   4.413
 2762WAT     H1 8528   5.892   3.383   4.469
 2762WAT     H2 8529   6.018   3.411   4.369
 2763WAT      O 8530   9.702   2.331   5.962
 2763WAT     H1 8531   9.716   2.318   5.864
 2763WAT     H2 8532   9.607   2.311   5.986
 2764WAT      O 8533   7.940   3.741   4.775
 2764WAT     H1 8534   7.964   3.734   4.872
 2764WAT     H2 8535   8.010   3.795   4.728
 2765WAT      O 8536   7.248   6.203   8.151
 2765WAT     H1 8537   7.176   6.141   8.121
 2765WAT     H2 8538   7.312   6.153   8.209
 2766WAT      O 8539   2.603   4.646   7.593
 2766WAT     H1 8540   2.540   4.659   7.670
 2766WAT     H2 8541   2.577   4.564   7.542
 2767WAT      O 8542   9.695   6.036   6.753
 2767WAT     H1 8543   9.708   6.122   6.802
 2767WAT     H2 8544   9.753   6.035   6.671
 2768WAT      O 8545   7.760   5.474   5.279
 2768WAT     H1 8546   7.761   5.396   5.218
 2768WAT     H2 8547   7.667   5.513   5.282
 2769WAT      O 8548   7.655   7.475   0.049
 2769WAT     H1 8549   7.575   7.420   0.025
 2769WAT     H2 8550   7.736   7.417   0.050
 2770WAT      O 8551   4.354   0.086   4.194
 2770WAT     H1 8552   4.440   0.107   4.148
 2770WAT     H2 8553   4.290   0.162   4.181
 2771WAT      O 8554   3.364   6.357   9.609
 2771WAT     H1 8555   3.369   6.257   9.602
 2771WAT     H2 8556   3.443   6.390   9.660
 2772WAT      O 8557   3.465   3.469   4.464
 2772WAT     H1 8558   3.509   3.511   4.544
 2772WAT     H2 8559   3.372   3.441   4.488
 2773WAT      O 8560   9.409   0.987   4.547
 2773WAT     H1 8561   9.504   1.012   4.565
 2773WAT     H2 8562   9.406   0.910   4.483
 2774WAT      O 8563   2.369   2.961   0.939
 2774WAT     H1 8564   2.270   2.967   0.953
 2774WAT     H2 8565   2.401   3.043   0.892
 2775WAT      O 8566   9.569   8.813   9.230
 2775WAT     H1 8567   9.617   8.886   9.181
 2775WAT     H2 8568   9.473   8.810   9.201
 2776WAT      O 8569   8.844   0.075   6.167
 2776WAT     H1 8570   8.764   0.021   6.141
 2776WAT     H2 8571   8.875   0.047   6.257
 2777WAT      O 8572   6.033   1.029   3.631
 2777WAT     H1 8573   5.972   1.021   3.552
 2777WAT     H2 8574   6.011   1.113   3.682
 2778WAT      O 8575   6.440   6.825   9.375
 2778WAT     H1 8576   6.358   6.855   9.326
 2778WAT     H2 8577   6.482   6.748   9.326
 2779WAT      O 8578   1.508   4.360   1.866
 2779WAT     H1 8579   1.478   4.318   1.951
 2779WAT     H2 8580   1.589   4.416   1.883
 2780WAT      O 8581   1.479   8.284   5.841
 2780WAT     H1 8582   1.458   8.191   5.872
 2780WAT     H2 8583   1.394   8.333   5.824
 2781WAT      O 8584   0.077   1.496   7.886
 2781WAT     H1 8585  -0.012   1.542   7.888
 2781WAT     H2 8586   0.080   1.432   7.809
 2782WAT      O 8587   0.704   3.820   3.672
 2782WAT     H1 8588   0.687   3.814   3.770
 2782WAT     H2 8589   0.753   3.905   3.652
 2783WAT      O 8590   2.210   6.112   4.859
 2783WAT     H1 8591   2.249   6.078   4.774
 2783WAT     H2 8592   2.242   6.055   4.935
 2784WAT      O 8593   1.619   5.594   1.101
 2784WAT     H1 8594   1.707   5.607   1.057
 2784WAT     H2 8595   1.554   5.555   1.035
 2785WAT      O 8596   2.973   9.559   3.804
 2785WAT     H1 8597   3.056   9.597   3.845
 2785WAT     H2 8598   2.894   9.587   3.858
 2786WAT      O 8599   8.575   6.337   0.530
 2786WAT     H1 8600   8.533   6.260   0.480
 2786WAT     H2 8601   8.546   6.423   0.488
 2787WAT      O 8602   3.639   1.091   5.602
 2787WAT     H1 8603   3.632   1.186   5.572
 2787WAT     H2 8604   3.729   1.055   5.575
 2788WAT      O 8605   0.272   1.969   6.826
 2788WAT     H1 8606   0.336   2.017   6.766
 2788WAT     H2 8607   0.227   1.896   6.774
 2789WAT      O 8608   9.524   2.619   3.994
 2789WAT     H1 8609   9.562   2.576   3.913
 2789WAT     H2 8610   9.500   2.714   3.973
 2790WAT      O 8611   5.029   5.946   5.444
 2790WAT     H1 8612   5.070   5.919   5.531
 2790WAT     H2 8613   5.102   5.975   5.381
 2791WAT      O 8614   2.536   0.664   9.480
 2791WAT     H1 8615   2.490   0.648   9.568
 2791WAT     H2 8616   2.585   0.581   9.453
 2792WAT      O 8617   3.044   2.677   5.086
 2792WAT     H1 8618   3.063   2.598   5.027
 2792WAT     H2 8619   2.947   2.679   5.110
 2793WAT      O 8620   5.607   4.151   0.970
 2793WAT     H1 8621   5.615   4.250   0.962
 2793WAT     H2 8622   5.545   4.117   0.899
 2794WAT      O 8623   1.188   8.694   8.226
 2794WAT     H1 8624   1.135   8.779   8.233
 2794WAT     H2 8625   1.260   8.694   8.294
 2795WAT      O 8626   0.312   1.135   6.518
 2795WAT     H1 8627   0.381   1.161   6.586
 2795WAT     H2 8628   0.335   1.046   6.479
 2796WAT      O 8629   7.635   0.222   8.983
 2796WAT     H1 8630   7.678   0.146   9.032
 2796WAT     H2 8631   7.657   0.217   8.886
 2797WAT      O 8632   5.849   2.723   0.417
 2797WAT     H1 8633   5.866   2.673   0.331
 2797WAT     H2 8634   5.904   2.807   0.418
 2798WAT      O 8635   1.054   8.989   1.430
 2798WAT     H1 8636   1.011   8.899   1.441
 2798WAT     H2 8637   1.152   8.978   1.415
 2799WAT      O 8638   8.000   5.847   6.856
 2799WAT     H1 8639   8.082   5.792   6.840
 2799WAT     H2 8640   8.021   5.944   6.844
 2800WAT      O 8641   3.144   2.271   0.910
 2800WAT     H1 8642   3.170   2.210   0.985
 2800WAT     H2 8643   3.180   2.362   0.927
 2801WAT      O 8644   8.283   8.394   7.333
 2801WAT     H1 8645   8.307   8.338   7.413
 2801WAT     H2 8646   8.323   8.353   7.251
 2802WAT      O 8647   5.407   7.017   8.287
 2802WAT     H1 8648   5.314   7.020   8.250
 2802WAT     H2 8649   5.425   6.927   8.324
 2803WAT      O 8650   2.313   8.891   0.995
 2803WAT     H1 8651   2.282   8.804   1.033
 2803WAT     H2 8652   2.413   8.891   0.991
 2804WAT      O 8653   8.207   5.576   3.288
 2804WAT     H1 8654   8.301   5.609   3.274
 2804WAT     H2 8655   8.179   5.520   3.209
 2805WAT      O 8656   2.620   2.177   7.888
 2805WAT     H1 8657   2.703   2.232   7.898
 2805WAT     H2 8658   2.567   2.212   7.810
 2806WAT      O 8659   6.822   1.391   6.728
 2806WAT     H1 8660   6.814   1.364   6.632
 2806WAT     H2 8661   6.918   1.401   6.752
 2807WAT      O 8662   2.713   3.037   8.900
 2807WAT     H1 8663   2.781   3.061   8.831
 2807WAT     H2 8664   2.622   3.037   8.859
 2808WAT      O 8665   2.987   9.368   8.401
 2808WAT     H1 8666   3.072   9.370   8.453
 2808WAT     H2 8667   2.980   9.282   8.351
 2809WAT      O 8668   2.971   7.220   8.143
 2809WAT     H1 8669   2.953   7.206   8.046
 2809WAT     H2 8670   2.984   7.131   8.188
 2810WAT      O 8671   3.411   5.777   6.344
 2810WAT     H1 8672   3.410   5.688   6.298
 2810WAT     H2 8673   3.492   5.783   6.402
 2811WAT      O 8674   1.365   4.204   0.688
 2811WAT     H1 8675   1.385   4.203   0.590
 2811WAT     H2 8676   1.266   4.204   0.702
 2812WAT      O 8677   8.383   1.211   0.621
 2812WAT     H1 8678   8.322   1.158   0.679
 2812WAT     H2 8679   8.357   1.308   0.624
 2813WAT      O 8680   3.107   9.464   0.347
 2813WAT     H1 8681   3.065   9.452   0.437
 2813WAT     H2 8682   3.126   9.375   0.307
 2814WAT      O 8683   7.002   9.789   4.670
 2814WAT     H1 8684   7.038   9.755   4.583
 2814WAT     H2 8685   6.916   9.837   4.654
 2815WAT      O 8686   1.881   3.292   1.894
 2815WAT     H1 8687   1.880   3.260   1.799
 2815WAT     H2 8688   1.946   3.236   1.946
 2816WAT      O 8689   6.251   8.741   0.524
 2816WAT     H1 8690   6.349   8.726   0.540
 2816WAT     H2 8691   6.204   8.753   0.611
 2817WAT      O 8692   4.143   6.699   9.128
 2817WAT     H1 8693   4.161   6.604   9.104
 2817WAT     H2 8694   4.227   6.742   9.163
 2818WAT      O 8695   3.003   6.842   8.659
 2818WAT     H1 8696   2.932   6.837   8.589
 2818WAT     H2 8697   2.966   6.882   8.742
 2819WAT      O 8698   9.052   6.425   1.053
 2819WAT     H1 8699   9.027   6.494   1.121
 2819WAT     H2 8700   9.143   6.445   1.017
 2820WAT      O 8701   1.679   8.996   3.857
 2820WAT     H1 8702   1.661   9.027   3.950
 2820WAT     H2 8703   1.613   9.038   3.795
 2821WAT      O 8704   1.021   5.105   0.630
 2821WAT     H1 8705   1.041   5.054   0.547
 2821WAT     H2 8706   0.990   5.042   0.701
 2822WAT      O 8707   0.892   8.832   3.580
 2822WAT     H1 8708   0.831   8.770   3.532
 2822WAT     H2 8709   0.881   8.820   3.678
 2823WAT      O 8710   7.590   8.089   8.549
 2823WAT     H1 8711   7.572   8.187   8.556
 2823WAT     H2 8712   7.621   8.054   8.637
 2824WAT      O 8713   2.369   4.208   5.253
 2824WAT     H1 8714   2.311   4.143   5.301
 2824WAT     H2 8715   2.433   4.250   5.317
 2825WAT      O 8716   3.085   1.010   9.771
 2825WAT     H1 8717   3.039   0.933   9.815
 2825WAT     H2 8718   3.081   1.000   9.671
 2826WAT      O 8719   0.231   3.357   5.640
 2826WAT     H1 8720   0.240   3.454   5.617
 2826WAT     H2 8721   0.213   3.304   5.557
 2827WAT      O 8722   3.453   6.894   8.322
 2827WAT     H1 8723   3.428   6.812   8.373
 2827WAT     H2 8724   3.551   6.912   8.335
 2828WAT      O 8725   3.864   3.685   8.864
 2828WAT     H1 8726   3.948   3.649   8.905
 2828WAT     H2 8727   3.842   3.633   8.781
 2829WAT      O 8728   3.135   3.342   5.458
 2829WAT     H1 8729   3.198   3.404   5.412
 2829WAT     H2 8730   3.041   3.377   5.449
 2830WAT      O 8731   4.311   4.324   1.218
 2830WAT     H1 8732   4.249   4.264   1.268
 2830WAT     H2 8733   4.278   4.335   1.124
 2831WAT      O 8734   1.840   2.406   9.027
 2831WAT     H1 8735   1.882   2.337   8.968
 2831WAT     H2 8736   1.762   2.366   9.075
 2832WAT      O 8737   9.003   1.134   3.368
 2832WAT     H1 8738   9.091   1.150   3.415
 2832WAT     H2 8739   8.947   1.072   3.423
 2833WAT      O 8740   6.190   8.146   5.394
 2833WAT     H1 8741   6.138   8.133   5.478
 2833WAT     H2 8742   6.127   8.161   5.318
 2834WAT      O 8743   6.248   2.622   7.072
 2834WAT     H1 8744   6.334   2.630   7.021
 2834WAT     H2 8745   6.210   2.713   7.088
 2835WAT      O 8746   4.087   5.646   8.527
 2835WAT     H1 8747   4.079   5.713   8.453
 2835WAT     H2 8748   3.997   5.632   8.568
 2836WAT      O 8749   1.974   3.286   9.093
 2836WAT     H1 8750   1.906   3.228   9.047
 2836WAT     H2 8751   1.983   3.257   9.188
 2837WAT      O 8752   7.905   7.406   9.391
 2837WAT     H1 8753   7.990   7.455   9.376
 2837WAT     H2 8754   7.830   7.471   9.402
 2838WAT      O 8755   3.537   8.859   9.191
 2838WAT     H1 8756   3.514   8.792   9.261
 2838WAT     H2 8757   3.561   8.946   9.235
 2839WAT      O 8758   3.426   1.088   3.450
 2839WAT     H1 8759   3.473   1.047   3.372
 2839WAT     H2 8760   3.444   1.186   3.453
 2840WAT      O 8761   5.481   8.966   2.707
 2840WAT     H1 8762   5.491   8.997   2.802
 2840WAT     H2 8763   5.484   8.866   2.705
 2841WAT      O 8764   7.039   2.976   0.049
 2841WAT     H1 8765   7.133   2.974   0.081
 2841WAT     H2 8766   7.008   2.883   0.030
 2842WAT      O 8767   3.813   9.107   7.777
 2842WAT     H1 8768   3.717   9.087   7.755
 2842WAT     H2 8769   3.868   9.102   7.694
 2843WAT      O 8770   1.295   8.066   1.136
 2843WAT     H1 8771   1.254   8.138   1.079
 2843WAT     H2 8772   1.391   8.087   1.152
 2844WAT      O 8773   3.180   5.878   7.077
 2844WAT     H1 8774   3.217   5.791   7.109
 2844WAT     H2 8775   3.096   5.899   7.127
 2845WAT      O 8776   4.771   1.827   2.993
 2845WAT     H1 8777   4.860   1.872   2.999
 2845WAT     H2 8778   4.784   1.730   2.970
 2846WAT      O 8779   7.238   0.828   2.818
 2846WAT     H1 8780   7.282   0.800   2.903
 2846WAT     H2 8781   7.280   0.912   2.785
 2847WAT      O 8782   2.966   3.267   4.387
 2847WAT     H1 8783   2.867   3.261   4.394
 2847WAT     H2 8784   2.990   3.320   4.306
 2848WAT      O 8785   5.249   7.992   2.304
 2848WAT     H1 8786   5.198   7.907   2.294
 2848WAT     H2 8787   5.197   8.067   2.265
 2849WAT      O 8788   3.988   9.168   6.478
 2849WAT     H1 8789   3.888   9.165   6.476
 2849WAT     H2 8790   4.019   9.260   6.454
 2850WAT      O 8791   2.195   1.119   3.182
 2850WAT     H1 8792   2.252   1.090   3.106
 2850WAT     H2 8793   2.216   1.064   3.262
 2851WAT      O 8794   6.585   9.573   3.199
 2851WAT     H1 8795   6.547   9.504   3.137
 2851WAT     H2 8796   6.531   9.657   3.194
 2852WAT      O 8797   7.806   2.855   3.558
 2852WAT     H1 8798   7.810   2.873   3.460
 2852WAT     H2 8799   7.848   2.931   3.609
 2853WAT      O 8800   0.830   6.919   8.316
 2853WAT     H1 8801   0.827   6.956   8.224
 2853WAT     H2 8802   0.782   6.831   8.318
 2854WAT      O 8803   3.348   3.212   7.086
 2854WAT     H1 8804   3.261   3.249   7.119
 2854WAT     H2 8805   3.358   3.118   7.119
 2855WAT      O 8806   1.238   9.450   5.065
 2855WAT     H1 8807   1.206   9.355   5.070
 2855WAT     H2 8808   1.204   9.500   5.145
 2856WAT      O 8809   8.784   1.422   4.334
 2856WAT     H1 8810   8.786   1.421   4.234
 2856WAT     H2 8811   8.707   1.369   4.367
 2857WAT      O 8812   7.097   8.723   2.086
 2857WAT     H1 8813   7.123   8.648   2.147
 2857WAT     H2 8814   7.176   8.783   2.072
 2858WAT      O 8815   4.015   2.415   1.891
 2858WAT     H1 8816   3.939   2.381   1.947
 2858WAT     H2 8817   4.049   2.342   1.831
 2859WAT      O 8818   6.632   3.567   0.684
 2859WAT     H1 8819   6.719   3.608   0.657
 2859WAT     H2 8820   6.646   3.471   0.707
 2860WAT      O 8821   1.503   1.616   9.227
 2860WAT     H1 8822   1.494   1.518   9.245
 2860WAT     H2 8823   1.430   1.646   9.166
 2861WAT      O 8824   6.277   1.762   0.874
 2861WAT     H1 8825   6.206   1.692   0.880
 2861WAT     H2 8826   6.363   1.725   0.907
 2862WAT      O 8827   6.752   7.963   7.523
 2862WAT     H1 8828   6.838   7.921   7.551
 2862WAT     H2 8829   6.722   8.027   7.593
 2863WAT      O 8830   6.841   2.362   9.317
 2863WAT     H1 8831   6.939   2.350   9.332
 2863WAT     H2 8832   6.794   2.362   9.405
 2864WAT      O 8833   5.226   0.131   6.933
 2864WAT     H1 8834   5.244   0.052   6.875
 2864WAT     H2 8835   5.233   0.215   6.878
 2865WAT      O 8836   9.349   1.966   0.326
 2865WAT     H1 8837   9.257   1.951   0.363
 2865WAT     H2 8838   9.362   2.063   0.307
 2866WAT      O 8839   3.024   6.582   0.445
 2866WAT     H1 8840   3.114   6.558   0.408
 2866WAT     H2 8841   3.020   6.556   0.541
 2867WAT      O 8842   4.610   3.011   5.466
 2867WAT     H1 8843   4.611   2.960   5.381
 2867WAT     H2 8844   4.545   2.969   5.530
 2868WAT      O 8845   6.891   0.632   0.758
 2868WAT     H1 8846   6.850   0.617   0.848
 2868WAT     H2 8847   6.964   0.565   0.744
 2869WAT      O 8848   4.166   9.261   9.868
 2869WAT     H1 8849   4.210   9.174   9.843
 2869WAT     H2 8850   4.068   9.246   9.881
 2870WAT      O 8851   2.466   5.066   8.854
 2870WAT     H1 8852   2.373   5.103   8.851
 2870WAT     H2 8853   2.474   4.990   8.790
 2871WAT      O 8854   4.067   9.756   2.027
 2871WAT     H1 8855   4.068   9.791   1.934
 2871WAT     H2 8856   4.005   9.678   2.033
 2872WAT      O 8857   9.168   7.829   8.970
 2872WAT     H1 8858   9.167   7.829   9.070
 2872WAT     H2 8859   9.169   7.735   8.936
 2873WAT      O 8860   2.787   6.862   8.468
 2873WAT     H1 8861   2.709   6.887   8.524
 2873WAT     H2 8862   2.772   6.771   8.429
 2874WAT      O 8863   8.619   8.710   2.927
 2874WAT     H1 8864   8.618   8.616   2.960
 2874WAT     H2 8865   8.677   8.766   2.986
 2875WAT      O 8866   6.978   0.732   8.559
 2875WAT     H1 8867   7.017   0.811   8.513
 2875WAT     H2 8868   6.957   0.756   8.654
 2876WAT      O 8869   1.286   7.923   9.610
 2876WAT     H1 8870   1.200   7.949   9.654
 2876WAT     H2 8871   1.283   7.827   9.584
 2877WAT      O 8872   5.799   8.651   5.871
 2877WAT     H1 8873   5.793   8.720   5.943
 2877WAT     H2 8874   5.878   8.670   5.813
 2878WAT      O 8875   0.275   5.653   5.427
 2878WAT     H1 8876   0.307   5.591   5.356
 2878WAT     H2 8877   0.245   5.601   5.507
 2879WAT      O 8878   3.780   4.969   4.277
 2879WAT     H1 8879   3.752   4.875   4.296
 2879WAT     H2 8880   3.825   4.973   4.188
 2880WAT      O 8881   6.375   5.989   0.026
 2880WAT     H1 8882   6.409   5.910   0.076
 2880WAT     H2 8883   6.421   6.072   0.060
 2881WAT      O 8884   7.976   1.384   4.554
 2881WAT     H1 8885   8.031   1.467   4.564
 2881WAT     H2 8886   8.016   1.310   4.607
 2882WAT      O 8887   6.313   7.837   1.692
 2882WAT     H1 8888   6.332   7.741   1.712
 2882WAT     H2 8889   6.347   7.860   1.600
 2883WAT      O 8890   2.274   1.368   1.496
 2883WAT     H1 8891   2.233   1.290   1.544
 2883WAT     H2 8892   2.284   1.444   1.560
 2884WAT      O 8893   8.924   4.862   9.068
 2884WAT     H1 8894   8.990   4.880   9.142
 2884WAT     H2 8895   8.960   4.790   9.008
 2885WAT      O 8896   5.013   7.308   8.772
 2885WAT     H1 8897   5.085   7.295   8.841
 2885WAT     H2 8898   5.008   7.404   8.747
 2886WAT      O 8899   5.939   5.725   1.617
 2886WAT     H1 8900   5.879   5.646   1.631
 2886WAT     H2 8901   5.992   5.712   1.533
 2887WAT      O 8902   5.415   4.634   3.982
 2887WAT     H1 8903   5.414   4.558   3.917
 2887WAT     H2 8904   5.455   4.714   3.937
 2888WAT      O 8905   1.492   1.228   7.550
 2888WAT     H1 8906   1.416   1.273   7.598
 2888WAT     H2 8907   1.560   1.197   7.617
 2889WAT      O 8908   4.897   2.016   3.645
 2889WAT     H1 8909   4.935   2.056   3.728
 2889WAT     H2 8910   4.869   2.089   3.582
 2890WAT      O 8911   1.293   8.026   3.272
 2890WAT     H1 8912   1.355   7.981   3.208
 2890WAT     H2 8913   1.323   8.120   3.287
 2891WAT      O 8914   4.997   9.598   2.993
 2891WAT     H1 8915   5.074   9.570   3.050
 2891WAT     H2 8916   4.954   9.680   3.031
 2892WAT      O 8917   7.799   1.447   7.702
 2892WAT     H1 8918   7.786   1.532   7.753
 2892WAT     H2 8919   7.878   1.398   7.738
 2893WAT      O 8920   5.623   5.217   8.739
 2893WAT     H1 8921   5.565   5.141   8.769
 2893WAT     H2 8922   5.577   5.304   8.761
 2894WAT      O 8923   4.973   1.119   7.763
 2894WAT     H1 8924   4.961   1.166   7.675
 2894WAT     H2 8925   5.066   1.082   7.767
 2895WAT      O 8926   3.800   3.717   4.521
 2895WAT     H1 8927   3.825   3.660   4.443
 2895WAT     H2 8928   3.736   3.788   4.490
 2896WAT      O 8929   3.263   8.258   2.604
 2896WAT     H1 8930   3.329   8.309   2.659
 2896WAT     H2 8931   3.180   8.313   2.594
 2897WAT      O 8932   9.310   8.693   7.575
 2897WAT     H1 8933   9.271   8.681   7.484
 2897WAT     H2 8934   9.297   8.608   7.628
 2898WAT      O 8935   2.136   6.489   6.890
 2898WAT     H1 8936   2.076   6.450   6.960
 2898WAT     H2 8937   2.193   6.417   6.851
 2899WAT      O 8938   8.437   4.133   2.199
 2899WAT     H1 8939   8.431   4.228   2.231
 2899WAT     H2 8940   8.495   4.080   2.262
 2900WAT      O 8941   6.934   9.716   2.189
 2900WAT     H1 8942   6.919   9.633   2.241
 2900WAT     H2 8943   6.929   9.795   2.250
 2901WAT      O 8944   0.220   6.787   6.204
 2901WAT     H1 8945   0.256   6.865   6.152
 2901WAT     H2 8946   0.232   6.804   6.302
 2902WAT      O 8947   8.306   5.373   8.171
 2902WAT     H1 8948   8.261   5.285   8.188
 2902WAT     H2 8949   8.405   5.359   8.165
 2903WAT      O 8950   5.705   1.391   5.400
 2903WAT     H1 8951   5.633   1.461   5.403
 2903WAT     H2 8952   5.685   1.320   5.468
 2904WAT      O 8953   5.922   5.077   5.498
 2904WAT     H1 8954   5.841   5.032   5.461
 2904WAT     H2 8955   5.945   5.157   5.443
 2905WAT      O 8956   7.765   5.080   3.509
 2905WAT     H1 8957   7.702   5.104   3.583
 2905WAT     H2 8958   7.720   5.098   3.421
 2906WAT      O 8959   3.399   6.455   0.075
 2906WAT     H1 8960   3.365   6.370   0.033
 2906WAT     H2 8961   3.455   6.504   0.008
 2907WAT      O 8962   5.791   9.298   3.884
 2907WAT     H1 8963   5.818   9.303   3.980
 2907WAT     H2 8964   5.872   9.297   3.826
 2908WAT      O 8965   2.389   2.423   0.651
 2908WAT     H1 8966   2.303   2.472   0.665
 2908WAT     H2 8967   2.441   2.469   0.579
 2909WAT      O 8968   3.474   2.375   3.070
 2909WAT     H1 8969   3.536   2.452   3.052
 2909WAT     H2 8970   3.452   2.372   3.167
 2910WAT      O 8971   7.892   1.778   3.024
 2910WAT     H1 8972   7.867   1.802   2.930
 2910WAT     H2 8973   7.932   1.857   3.069
 2911WAT      O 8974   1.080   0.330   1.552
 2911WAT     H1 8975   1.029   0.245   1.563
 2911WAT     H2 8976   1.177   0.310   1.537
 2912WAT      O 8977   9.867   5.179   1.516
 2912WAT     H1 8978   9.841   5.266   1.474
 2912WAT     H2 8979   9.798   5.110   1.495
 2913WAT      O 8980   8.740   3.426   1.762
 2913WAT     H1 8981   8.783   3.369   1.691
 2913WAT     H2 8982   8.659   3.470   1.723
 2914WAT      O 8983   0.999   2.402   6.435
 2914WAT     H1 8984   1.017   2.349   6.351
 2914WAT     H2 8985   0.902   2.395   6.458
 2915WAT      O 8986   0.862   4.866   2.397
 2915WAT     H1 8987   0.897   4.850   2.305
 2915WAT     H2 8988   0.779   4.922   2.391
 2916WAT      O 8989   2.811   8.426   2.205
 2916WAT     H1 8990   2.730   8.395   2.256
 2916WAT     H2 8991   2.784   8.445   2.110
 2917WAT      O 8992   8.050   1.240   3.124
 2917WAT     H1 8993   7.956   1.264   3.150
 2917WAT     H2 8994   8.111   1.254   3.202
 2918WAT      O 8995   7.537   2.324   3.458
 2918WAT     H1 8996   7.459   2.263   3.473
 2918WAT     H2 8997   7.547   2.385   3.536
 2919WAT      O 8998   7.946   4.214   6.592
 2919WAT     H1 8999   7.963   4.176   6.683
 2919WAT     H2 9000   7.858   4.260   6.591
 2920WAT      O 9001   8.740   7.658   8.876
 2920WAT     H1 9002   8.726   7.559   8.871
 2920WAT     H2 9003   8.801   7.686   8.802
 2921WAT      O 9004   5.170   7.392   8.292
 2921WAT     H1 9005   5.181   7.387   8.391
 2921WAT     H2 9006   5.072   7.389   8.270
 2922WAT      O 9007   2.750   3.181   1.568
 2922WAT     H1 9008   2.838   3.136   1.555
 2922WAT     H2 9009   2.690   3.122   1.623
 2923WAT      O 9010   8.774   1.090   9.468
 2923WAT     H1 9011   8.684   1.074   9.509
 2923WAT     H2 9012   8.798   1.012   9.410
 2924WAT      O 9013   1.565   9.529   2.531
 2924WAT     H1 9014   1.470   9.548   2.506
 2924WAT     H2 9015   1.608   9.476   2.458
 2925WAT      O 9016   6.983   9.272   1.111
 2925WAT     H1 9017   7.073   9.250   1.149
 2925WAT     H2 9018   6.936   9.188   1.084
 2926WAT      O 9019   0.715   0.237   8.658
 2926WAT     H1 9020   0.634   0.185   8.632
 2926WAT     H2 9021   0.692   0.302   8.730
 2927WAT      O 9022   4.253   9.274   0.269
 2927WAT     H1 9023   4.238   9.344   0.339
 2927WAT     H2 9024   4.177   9.274   0.204
 2928WAT      O 9025   5.242   1.141   2.731
 2928WAT     H1 9026   5.294   1.190   2.661
 2928WAT     H2 9027   5.291   1.057   2.756
 2929WAT      O 9028   3.744   2.372   9.373
 2929WAT     H1 9029   3.795   2.289   9.352
 2929WAT     H2 9030   3.648   2.359   9.348
 2930WAT      O 9031   0.862   3.575   0.120
 2930WAT     H1 9032   0.897   3.515   0.048
 2930WAT     H2 9033   0.936   3.634   0.153
 2931WAT      O 9034   5.859   2.612   8.438
 2931WAT     H1 9035   5.842   2.529   8.492
 2931WAT     H2 9036   5.787   2.622   8.369
 2932WAT      O 9037   6.594   6.132   2.025
 2932WAT     H1 9038   6.529   6.208   2.027
 2932WAT     H2 9039   6.668   6.153   1.960
 2933WAT      O 9040   7.740   4.098   4.926
 2933WAT     H1 9041   7.675   4.151   4.872
 2933WAT     H2 9042   7.700   4.009   4.949
 2934WAT      O 9043   0.985   0.915   3.670
 2934WAT     H1 9044   1.070   0.911   3.723
 2934WAT     H2 9045   1.003   0.959   3.582
 2935WAT      O 9046   5.690   0.912   2.156
 2935WAT     H1 9047   5.712   0.981   2.086
 2935WAT     H2 9048   5.704   0.821   2.118
 2936WAT      O 9049   4.490   2.592   0.891
 2936WAT     H1 9050   4.542   2.673   0.920
 2936WAT     H2 9051   4.547   2.510   0.905
 2937WAT      O 9052   9.080   6.352   4.796
 2937WAT     H1 9053   9.124   6.300   4.870
 2937WAT     H2 9054   9.141   6.355   4.717
 2938WAT      O 9055   6.701   8.978   1.294
 2938WAT     H1 9056   6.797   9.004   1.300
 2938WAT     H2 9057   6.694   8.881   1.273
 2939WAT      O 9058   2.537   0.249   5.463
 2939WAT     H1 9059   2.472   0.318   5.432
 2939WAT     H2 9060   2.580   0.280   5.547
 2940WAT      O 9061   2.407   5.583   8.825
 2940WAT     H1 9062   2.362   5.561   8.738
 2940WAT     H2 9063   2.468   5.660   8.812
 2941WAT      O 9064   8.686   8.333   3.209
 2941WAT     H1 9065   8.773   8.359   3.251
 2941WAT     H2 9066   8.634   8.414   3.184
 2942WAT      O 9067   5.830   3.003   7.210
 2942WAT     H1 9068   5.830   2.903   7.202
 2942WAT     H2 9069   5.738   3.038   7.194
 2943WAT      O 9070   9.216   0.314   5.164
 2943WAT     H1 9071   9.234   0.360   5.250
 2943WAT     H2 9072   9.232   0.216   5.174
 2944WAT      O 9073   6.676   4.154   0.570
 2944WAT     H1 9074   6.651   4.241   0.529
 2944WAT     H2 9075   6.704   4.090   0.498
 2945WAT      O 9076   4.010   6.646   9.560
 2945WAT     H1 9077   3.954   6.728   9.548
 2945WAT     H2 9078   3.975   6.572   9.503
 2946WAT      O 9079   6.381   9.527   9.399
 2946WAT     H1 9080   6.291   9.497   9.367
 2946WAT     H2 9081   6.373   9.614   9.446
 2947WAT      O 9082   2.167   7.687   4.330
 2947WAT     H1 9083   2.131   7.726   4.245
 2947WAT     H2 9084   2.110   7.609   4.357
 2948WAT      O 9085   9.512   7.640   1.186
 2948WAT     H1 9086   9.477   7.721   1.138
 2948WAT     H2 9087   9.605   7.621   1.156
 2949WAT      O 9088   5.975   1.770   7.713
 2949WAT     H1 9089   6.074   1.785   7.726
 2949WAT     H2 9090   5.961   1.713   7.632
 2950WAT      O 9091   1.497   5.571   8.915
 2950WAT     H1 9092   1.418   5.591   8.972
 2950WAT     H2 9093   1.502   5.638   8.841
 2951WAT      O 9094   3.187   9.392   8.618
 2951WAT     H1 9095   3.132   9.460   8.666
 2951WAT     H2 9096   3.279   9.391   8.655
 2952WAT      O 9097   2.220   6.285   0.529
 2952WAT     H1 9098   2.240   6.205   0.472
 2952WAT     H2 9099   2.123   6.306   0.524
 2953WAT      O 9100   6.567   6.713   8.917
 2953WAT     H1 9101   6.473   6.690   8.945
 2953WAT     H2 9102   6.568   6.800   8.869
 2954WAT      O 9103   2.592   1.304   0.581
 2954WAT     H1 9104   2.620   1.254   0.499
 2954WAT     H2 9105   2.584   1.401   0.560
 2955WAT      O 9106   3.380   0.947   1.623
 2955WAT     H1 9107   3.373   0.899   1.536
 2955WAT     H2 9108   3.302   0.924   1.681
 2956WAT      O 9109   5.781   6.533   8.001
 2956WAT     H1 9110   5.764   6.435   7.988
 2956WAT     H2 9111   5.824   6.570   7.919
 2957WAT      O 9112   8.252   8.957   6.700
 2957WAT     H1 9113   8.182   8.987   6.636
 2957WAT     H2 9114   8.296   9.037   6.741
 2958WAT      O 9115   1.171   1.196   4.105
 2958WAT     H1 9116   1.171   1.097   4.092
 2958WAT     H2 9117   1.220   1.219   4.189
 2959WAT      O 9118   3.993   1.812   5.854
 2959WAT     H1 9119   4.001   1.814   5.953
 2959WAT     H2 9120   4.008   1.719   5.821
 2960WAT      O 9121   9.404   2.177   2.913
 2960WAT     H1 9122   9.331   2.109   2.905
 2960WAT     H2 9123   9.364   2.269   2.907
 2961WAT      O 9124   5.643   8.068   8.969
 2961WAT     H1 9125   5.653   8.056   9.067
 2961WAT     H2 9126   5.547   8.083   8.947
 2962WAT      O 9127   7.512   5.324   9.404
 2962WAT     H1 9128   7.583   5.268   9.447
 2962WAT     H2 9129   7.425   5.307   9.450
 2963WAT      O 9130   8.309   3.234   3.840
 2963WAT     H1 9131   8.355   3.155   3.799
 2963WAT     H2 9132   8.275   3.294   3.768
 2964WAT      O 9133   1.659   2.671   0.064
 2964WAT     H1 9134   1.734   2.681   0.129
 2964WAT     H2 9135   1.697   2.661  -0.028
 2965WAT      O 9136   4.597   6.601   6.963
 2965WAT     H1 9137   4.594   6.693   6.923
 2965WAT     H2 9138   4.681   6.590   7.015
 2966WAT      O 9139   2.341   7.120   7.383
 2966WAT     H1 9140   2.307   7.062   7.309
 2966WAT     H2 9141   2.394   7.065   7.447
 2967WAT      O 9142   5.215   6.515   7.043
 2967WAT     H1 9143   5.197   6.612   7.054
 2967WAT     H2 9144   5.150   6.476   6.978
 2968WAT      O 9145   1.905   4.014   7.861
 2968WAT     H1 9146   1.979   4.082   7.865
 2968WAT     H2 9147   1.943   3.926   7.832
 2969WAT      O 9148   0.254   3.776   2.964
 2969WAT     H1 9149   0.296   3.855   2.918
 2969WAT     H2 9150   0.172   3.749   2.913
 2970WAT      O 9151   4.839   2.701   0.720
 2970WAT     H1 9152   4.819   2.744   0.632
 2970WAT     H2 9153   4.930   2.729   0.751
 2971WAT      O 9154   4.864   2.146   9.633
 2971WAT     H1 9155   4.954   2.109   9.656
 2971WAT     H2 9156   4.843   2.126   9.537
 2972WAT      O 9157   8.118   1.623   1.721
 2972WAT     H1 9158   8.099   1.541   1.668
 2972WAT     H2 9159   8.071   1.617   1.809
 2973WAT      O 9160   7.387   8.371   7.962
 2973WAT     H1 9161   7.424   8.286   8.001
 2973WAT     H2 9162   7.460   8.420   7.914
 2974WAT      O 9163   4.608   8.237   7.346
 2974WAT     H1 9164   4.642   8.291   7.269
 2974WAT     H2 9165   4.540   8.291   7.396
 2975WAT      O 9166   2.148   1.476   7.338
 2975WAT     H1 9167   2.190   1.393   7.375
 2975WAT     H2 9168   2.058   1.454   7.300
 2976WAT      O 9169   5.232   2.513   4.411
 2976WAT     H1 9170   5.147   2.560   4.389
 2976WAT     H2 9171   5.299   2.529   4.338
 2977WAT      O 9172   1.016   1.817   3.558
 2977WAT     H1 9173   0.923   1.819   3.521
 2977WAT     H2 9174   1.042   1.722   3.579
 2978WAT      O 9175   2.572   5.002   6.113
 2978WAT     H1 9176   2.572   4.975   6.016
 2978WAT     H2 9177   2.520   4.935   6.166
 2979WAT      O 9178   8.467   8.198   3.330
 2979WAT     H1 9179   8.388   8.228   3.278
 2979WAT     H2 9180   8.549   8.245   3.297
 2980WAT      O 9181   3.392   6.710   2.787
 2980WAT     H1 9182   3.309   6.723   2.842
 2980WAT     H2 9183   3.368   6.711   2.690
 2981WAT      O 9184   5.361   9.673   2.924
 2981WAT     H1 9185   5.404   9.762   2.907
 2981WAT     H2 9186   5.431   9.601   2.922
 2982WAT      O 9187   4.988   8.136   5.748
 2982WAT     H1 9188   4.928   8.057   5.760
 2982WAT     H2 9189   4.968   8.179   5.660
 2983WAT      O 9190   0.069   2.618   3.065
 2983WAT     H1 9191   0.115   2.644   2.979
 2983WAT     H2 9192   0.131   2.635   3.142
 2984WAT      O 9193   0.973   7.459   9.264
 2984WAT     H1 9194   0.945   7.494   9.353
 2984WAT     H2 9195   0.947   7.524   9.193
 2985WAT      O 9196   3.854   8.873   5.003
 2985WAT     H1 9197   3.941   8.833   4.974
 2985WAT     H2 9198   3.864   8.972   5.013
 2986WAT      O 9199   0.768   8.851   4.867
 2986WAT     H1 9200   0.850   8.885   4.821
 2986WAT     H2 9201   0.778   8.753   4.886
 2987WAT      O 9202   4.895   0.901   6.959
 2987WAT     H1 9203   4.857   0.930   6.871
 2987WAT     H2 9204   4.850   0.951   7.033
 2988WAT      O 9205   1.310   8.058   0.827
 2988WAT     H1 9206   1.325   7.972   0.778
 2988WAT     H2 9207   1.394   8.113   0.824
 2989WAT      O 9208   8.628   4.022   8.408
 2989WAT     H1 9209   8.548   4.025   8.468
 2989WAT     H2 9210   8.661   4.115   8.392
 2990WAT      O 9211   5.727   7.468   5.607
 2990WAT     H1 9212   5.700   7.398   5.673
 2990WAT     H2 9213   5.764   7.425   5.525
 2991WAT      O 9214   5.469   5.541   2.522
 2991WAT     H1 9215   5.454   5.514   2.617
 2991WAT     H2 9216   5.558   5.585   2.514
 2992WAT      O 9217   9.431   9.767   3.779
 2992WAT     H1 9218   9.345   9.817   3.782
 2992WAT     H2 9219   9.508   9.830   3.789
 2993WAT      O 9220   2.114   1.775   8.380
 2993WAT     H1 9221   2.147   1.696   8.330
 2993WAT     H2 9222   2.122   1.759   8.479
 2994WAT      O 9223   7.144   0.345   6.484
 2994WAT     H1 9224   7.148   0.422   6.548
 2994WAT     H2 9225   7.140   0.380   6.391
 2995WAT      O 9226   2.023   5.222   8.528
 2995WAT     H1 9227   2.050   5.138   8.575
 2995WAT     H2 9228   2.033   5.300   8.591
 2996WAT      O 9229   1.386   4.961   9.270
 2996WAT     H1 9230   1.367   5.048   9.315
 2996WAT     H2 9231   1.334   4.888   9.314
 2997WAT      O 9232   4.160   5.466   3.830
 2997WAT     H1 9233   4.069   5.449   3.867
 2997WAT     H2 9234   4.163   5.560   3.794
 2998WAT      O 9235   7.619   1.246   5.550
 2998WAT     H1 9236   7.591   1.293   5.466
 2998WAT     H2 9237   7.613   1.310   5.627
 2999WAT      O 9238   6.736   2.516   0.391
 2999WAT     H1 9239   6.800   2.559   0.455
 2999WAT     H2 9240   6.757   2.545   0.298
 3000WAT      O 9241   7.194   4.500   0.302
 3000WAT     H1 9242   7.194   4.483   0.203
 3000WAT     H2 9243   7.182   4.413   0.350
 3001WAT      O 9244   0.901   7.831   8.218
 3001WAT     H1 9245   0.961   7.752   8.215
 3001WAT     H2 9246   0.829   7.820   8.149
 3002WAT      O 9247   5.316   1.969   0.323
 3002WAT     H1 9248   5.243   1.946   0.389
 3002WAT     H2 9249   5.405   1.956   0.367
 3003WAT      O 9250   5.232   2.079   9.327
 3003WAT     H1 9251   5.284   2.127   9.256
 3003WAT     H2 9252   5.148   2.130   9.347
 3004WAT      O 9253   1.255   6.481   8.952
 3004WAT     H1 9254   1.279   6.573   8.921
 3004WAT     H2 9255   1.200   6.487   9.036
 3005WAT      O 9256   4.452   4.304   8.082
 3005WAT     H1 9257   4.427   4.278   7.988
 3005WAT     H2 9258   4.423   4.232   8.145
 3006WAT      O 9259   6.858   8.004   2.166
 3006WAT     H1 9260   6.957   7.989   2.163
 3006WAT     H2 9261   6.825   8.029   2.076
 3007WAT      O 9262   3.389   7.831   0.837
 3007WAT     H1 9263   3.348   7.875   0.757
 3007WAT     H2 9264   3.484   7.862   0.847
 3008WAT      O 9265   2.919   7.530   6.070
 3008WAT     H1 9266   2.842   7.529   6.134
 3008WAT     H2 9267   2.899   7.470   5.993
 3009WAT      O 9268   0.556   0.769   1.919
 3009WAT     H1 9269   0.613   0.709   1.863
 3009WAT     H2 9270   0.505   0.831   1.860
 3010WAT      O 9271   7.259   4.460   2.924
 3010WAT     H1 9272   7.205   4.478   2.842
 3010WAT     H2 9273   7.204   4.409   2.990
 3011WAT      O 9274   1.656   8.764   7.780
 3011WAT     H1 9275   1.582   8.794   7.841
 3011WAT     H2 9276   1.650   8.814   7.694
 3012WAT      O 9277   0.766   5.301   4.876
 3012WAT     H1 9278   0.849   5.285   4.823
 3012WAT     H2 9279   0.695   5.338   4.816
 3013WAT      O 9280   5.903   2.236   9.279
 3013WAT     H1 9281   5.833   2.281   9.335
 3013WAT     H2 9282   5.920   2.144   9.315
 3014WAT      O 9283   4.885   9.839   2.796
 3014WAT     H1 9284   4.890   9.739   2.790
 3014WAT     H2 9285   4.976   9.878   2.783
 3015WAT      O 9286   7.800   3.108   4.783
 3015WAT     H1 9287   7.718   3.164   4.769
 3015WAT     H2 9288   7.774   3.023   4.828
 3016WAT      O 9289   0.166   2.507   4.633
 3016WAT     H1 9290   0.212   2.514   4.544
 3016WAT     H2 9291   0.198   2.424   4.680
 3017WAT      O 9292   7.058   0.646   8.277
 3017WAT     H1 9293   7.014   0.716   8.220
 3017WAT     H2 9294   6.994   0.571   8.293
 3018WAT      O 9295   0.617   1.724   7.412
 3018WAT     H1 9296   0.622   1.824   7.417
 3018WAT     H2 9297   0.688   1.685   7.471
 3019WAT      O 9298   3.905   2.444   9.042
 3019WAT     H1 9299   3.840   2.501   9.093
 3019WAT     H2 9300   3.927   2.362   9.094
 3020WAT      O 9301   0.106   2.500   6.711
 3020WAT     H1 9302   0.057   2.560   6.648
 3020WAT     H2 9303   0.153   2.429   6.660
 3021WAT      O 9304   6.796   9.182   2.527
 3021WAT     H1 9305   6.710   9.189   2.578
 3021WAT     H2 9306   6.778   9.145   2.436
 3022WAT      O 9307   9.405   8.530   0.857
 3022WAT     H1 9308   9.472   8.545   0.784
 3022WAT     H2 9309   9.429   8.587   0.936
 3023WAT      O 9310   7.377   5.982   7.931
 3023WAT     H1 9311   7.287   5.985   7.976
 3023WAT     H2 9312   7.436   5.918   7.980
 3024WAT      O 9313   1.033   4.306   9.224
 3024WAT     H1 9314   1.074   4.221   9.192
 3024WAT     H2 9315   1.092   4.348   9.294
 3025WAT      O 9316   8.412   3.587   0.502
 3025WAT     H1 9317   8.326   3.540   0.481
 3025WAT     H2 9318   8.422   3.666   0.442
 3026WAT      O 9319   0.208   9.120   8.825
 3026WAT     H1 9320   0.233   9.052   8.756
 3026WAT     H2 9321   0.112   9.108   8.851
 3027WAT      O 9322   6.348   3.078   7.654
 3027WAT     H1 9323   6.349   3.172   7.685
 3027WAT     H2 9324   6.284   3.068   7.578
 3028WAT      O 9325   5.881   2.562   0.174
 3028WAT     H1 9326   5.899   2.477   0.124
 3028WAT     H2 9327   5.945   2.632   0.143
 3029WAT      O 9328   2.861   3.935   5.886
 3029WAT     H1 9329   2.897   4.028   5.884
 3029WAT     H2 9330   2.883   3.889   5.800
 3030WAT      O 9331   7.507   3.965   2.539
 3030WAT     H1 9332   7.521   3.873   2.576
 3030WAT     H2 9333   7.553   3.972   2.450
 3031WAT      O 9334   6.665   5.543   6.070
 3031WAT     H1 9335   6.757   5.561   6.036
 3031WAT     H2 9336   6.667   5.463   6.129
 3032WAT      O 9337   6.654   8.844   6.023
 3032WAT     H1 9338   6.725   8.784   6.057
 3032WAT     H2 9339   6.691   8.904   5.952
 3033WAT      O 9340   8.860   4.792   2.827
 3033WAT     H1 9341   8.818   4.838   2.906
 3033WAT     H2 9342   8.889   4.861   2.760
 3034WAT      O 9343   9.167   0.696   1.277
 3034WAT     H1 9344   9.110   0.745   1.342
 3034WAT     H2 9345   9.262   0.726   1.286
 3035WAT      O 9346   5.823   6.015   9.262
 3035WAT     H1 9347   5.902   5.979   9.212
 3035WAT     H2 9348   5.744   6.021   9.200
 3036WAT      O 9349   3.162   4.734   2.956
 3036WAT     H1 9350   3.149   4.641   2.922
 3036WAT     H2 9351   3.080   4.763   3.005
 3037WAT      O 9352   1.911   0.729   5.702
 3037WAT     H1 9353   1.895   0.745   5.605
 3037WAT     H2 9354   2.004   0.694   5.716
 3038WAT      O 9355   4.753   8.296   5.395
 3038WAT     H1 9356   4.675   8.253   5.440
 3038WAT     H2 9357   4.729   8.319   5.301
 3039WAT      O 9358   7.801   2.554   9.013
 3039WAT     H1 9359   7.787   2.610   8.931
 3039WAT     H2 9360   7.895   2.521   9.016
 3040WAT      O 9361   1.186   6.950   3.874
 3040WAT     H1 9362   1.250   7.027   3.878
 3040WAT     H2 9363   1.165   6.930   3.778
 3041WAT      O 9364   8.759   8.545   4.546
 3041WAT     H1 9365   8.660   8.554   4.545
 3041WAT     H2 9366   8.794   8.566   4.637
 3042WAT      O 9367   4.031   8.428   5.214
 3042WAT     H1 9368   4.098   8.365   5.176
 3042WAT     H2 9369   3.939   8.401   5.185
 3043WAT      O 9370   3.279   0.200   5.250
 3043WAT     H1 9371   3.308   0.285   5.293
 3043WAT     H2 9372   3.358   0.153   5.210
 3044WAT      O 9373   0.268   3.690   9.462
 3044WAT     H1 9374   0.275   3.632   9.381
 3044WAT     H2 9375   0.345   3.672   9.523
 3045WAT      O 9376   0.948   1.629   2.859
 3045WAT     H1 9377   1.005   1.690   2.913
 3045WAT     H2 9378   1.005   1.577   2.795
 3046WAT      O 9379   4.446   3.724   8.531
 3046WAT     H1 9380   4.391   3.712   8.613
 3046WAT     H2 9381   4.418   3.658   8.461
 3047WAT      O 9382   4.103   5.535   8.233
 3047WAT     H1 9383   4.043   5.489   8.298
 3047WAT     H2 9384   4.079   5.632   8.228
 3048WAT      O 9385   3.733   6.135   3.965
 3048WAT     H1 9386   3.737   6.101   4.059
 3048WAT     H2 9387   3.756   6.060   3.902
 3049WAT      O 9388   5.035   5.174   4.344
 3049WAT     H1 9389   4.940   5.190   4.317
 3049WAT     H2 9390   5.090   5.254   4.324
 3050WAT      O 9391   6.410   7.715   4.273
 3050WAT     H1 9392   6.359   7.633   4.298
 3050WAT     H2 9393   6.441   7.762   4.355
 3051WAT      O 9394   1.495   9.533   2.080
 3051WAT     H1 9395   1.408   9.537   2.130
 3051WAT     H2 9396   1.477   9.511   1.984
 3052WAT      O 9397   1.914   6.938   4.643
 3052WAT     H1 9398   1.924   6.947   4.544
 3052WAT     H2 9399   1.822   6.902   4.663
 3053WAT      O 9400   9.165   2.948   6.610
 3053WAT     H1 9401   9.217   3.031   6.631
 3053WAT     H2 9402   9.214   2.869   6.646
 3054WAT      O 9403   2.032   2.705   2.746
 3054WAT     H1 9404   2.116   2.717   2.799
 3054WAT     H2 9405   1.980   2.791   2.747
 3055WAT      O 9406   0.518   4.035   4.620
 3055WAT     H1 9407   0.469   3.953   4.650
 3055WAT     H2 9408   0.615   4.025   4.640
 3056WAT      O 9409   0.278   1.745   4.994
 3056WAT     H1 9410   0.299   1.720   4.899
 3056WAT     H2 9411   0.207   1.816   4.995
 3057WAT      O 9412   6.162   3.656   6.571
 3057WAT     H1 9413   6.220   3.732   6.541
 3057WAT     H2 9414   6.158   3.654   6.671
 3058WAT      O 9415   0.833   4.124   2.111
 3058WAT     H1 9416   0.860   4.056   2.179
 3058WAT     H2 9417   0.914   4.167   2.073
 3059WAT      O 9418   7.696   5.791   4.421
 3059WAT     H1 9419   7.658   5.878   4.391
 3059WAT     H2 9420   7.741   5.746   4.343
 3060WAT      O 9421   4.958   3.736   3.169
 3060WAT     H1 9422   4.924   3.763   3.260
 3060WAT     H2 9423   4.898   3.665   3.132
 3061WAT      O 9424   5.533   1.212   1.190
 3061WAT     H1 9425   5.536   1.240   1.286
 3061WAT     H2 9426   5.522   1.112   1.186
 3062WAT      O 9427   7.801   9.764   4.653
 3062WAT     H1 9428   7.845   9.800   4.736
 3062WAT     H2 9429   7.749   9.681   4.676
 3063WAT      O 9430   4.165   7.268   2.802
 3063WAT     H1 9431   4.114   7.353   2.792
 3063WAT     H2 9432   4.262   7.288   2.814
 3064WAT      O 9433   2.665   1.736   3.255
 3064WAT     H1 9434   2.606   1.735   3.174
 3064WAT     H2 9435   2.615   1.772   3.333
 3065WAT      O 9436   1.066   5.339   5.697
 3065WAT     H1 9437   1.092   5.431   5.726
 3065WAT     H2 9438   1.014   5.294   5.770
 3066WAT      O 9439   4.648   3.300   2.450
 3066WAT     H1 9440   4.605   3.210   2.440
 3066WAT     H2 9441   4.695   3.305   2.538
 3067WAT      O 9442   8.631   7.972   2.246
 3067WAT     H1 9443   8.625   7.874   2.266
 3067WAT     H2 9444   8.556   8.019   2.292
 3068WAT      O 9445   6.478   1.502   5.172
 3068WAT     H1 9446   6.478   1.592   5.129
 3068WAT     H2 9447   6.558   1.493   5.232
 3069WAT      O 9448   8.058   1.097   2.891
 3069WAT     H1 9449   8.059   1.130   2.985
 3069WAT     H2 9450   7.996   1.152   2.836
 3070WAT      O 9451   4.823   3.855   9.413
 3070WAT     H1 9452   4.728   3.884   9.409
 3070WAT     H2 9453   4.872   3.908   9.483
 3071WAT      O 9454   6.011   1.465   7.822
 3071WAT     H1 9455   5.989   1.562   7.814
 3071WAT     H2 9456   6.033   1.443   7.917
 3072WAT      O 9457   8.740   2.171   0.549
 3072WAT     H1 9458   8.769   2.157   0.644
 3072WAT     H2 9459   8.662   2.111   0.530
 3073WAT      O 9460   1.257   0.188   7.646
 3073WAT     H1 9461   1.229   0.237   7.563
 3073WAT     H2 9462   1.266   0.253   7.722
 3074WAT      O 9463   0.459   0.107   3.617
 3074WAT     H1 9464   0.492   0.018   3.651
 3074WAT     H2 9465   0.443   0.168   3.694
 3075WAT      O 9466   3.569   6.723   1.734
 3075WAT     H1 9467   3.596   6.698   1.827
 3075WAT     H2 9468   3.621   6.668   1.668
 3076WAT      O 9469   1.238   8.358   2.246
 3076WAT     H1 9470   1.217   8.423   2.319
 3076WAT     H2 9471   1.201   8.269   2.269
 3077WAT      O 9472   0.070   7.612   7.889
 3077WAT     H1 9473   0.074   7.693   7.830
 3077WAT     H2 9474   0.046   7.532   7.835
 3078WAT      O 9475   2.891   0.769   2.878
 3078WAT     H1 9476   2.883   0.844   2.943
 3078WAT     H2 9477   2.890   0.806   2.785
 3079WAT      O 9478   3.457   7.142   9.015
 3079WAT     H1 9479   3.461   7.045   8.992
 3079WAT     H2 9480   3.493   7.157   9.107
 3080WAT      O 9481   9.359   9.806   1.125
 3080WAT     H1 9482   9.264   9.780   1.113
 3080WAT     H2 9483   9.396   9.841   1.039
 3081WAT      O 9484   8.433   9.676   9.055
 3081WAT     H1 9485   8.430   9.594   9.112
 3081WAT     H2 9486   8.361   9.739   9.085
 3082WAT      O 9487   5.055   4.976   3.944
 3082WAT     H1 9488   5.000   4.893   3.935
 3082WAT     H2 9489   5.077   5.011   3.853
 3083WAT      O 9490   0.489   4.068   7.428
 3083WAT     H1 9491   0.512   4.061   7.331
 3083WAT     H2 9492   0.401   4.114   7.438
 3084WAT      O 9493   9.379   4.556   8.334
 3084WAT     H1 9494   9.439   4.523   8.262
 3084WAT     H2 9495   9.433   4.573   8.417
 3085WAT      O 9496   7.886   1.120   4.321
 3085WAT     H1 9497   7.845   1.102   4.410
 3085WAT     H2 9498   7.860   1.048   4.257
 3086WAT      O 9499   6.173   7.819   4.900
 3086WAT     H1 9500   6.080   7.855   4.913
 3086WAT     H2 9501   6.229   7.839   4.980
 3087WAT      O 9502   8.751   9.296   5.157
 3087WAT     H1 9503   8.720   9.323   5.248
 3087WAT     H2 9504   8.746   9.197   5.147
 3088WAT      O 9505   6.656   2.400   0.637
 3088WAT     H1 9506   6.686   2.427   0.546
 3088WAT     H2 9507   6.648   2.481   0.695
 3089WAT      O 9508   7.966   7.162   4.686
 3089WAT     H1 9509   8.021   7.219   4.747
 3089WAT     H2 9510   7.872   7.159   4.719
 3090WAT      O 9511   2.828   1.179   2.034
 3090WAT     H1 9512   2.807   1.137   2.123
 3090WAT     H2 9513   2.784   1.268   2.028
 3091WAT      O 9514   9.385   3.253   0.914
 3091WAT     H1 9515   9.425   3.267   1.005
 3091WAT     H2 9516   9.446   3.195   0.860
 3092WAT      O 9517   8.387   7.547   7.570
 3092WAT     H1 9518   8.321   7.615   7.540
 3092WAT     H2 9519   8.417   7.492   7.492
 3093WAT      O 9520   6.622   0.071   0.847
 3093WAT     H1 9521   6.542   0.057   0.905
 3093WAT     H2 9522   6.630  -0.006   0.783
 3094WAT      O 9523   7.724   7.155   1.028
 3094WAT     H1 9524   7.660   7.142   0.953
 3094WAT     H2 9525   7.673   7.177   1.112
 3095WAT      O 9526   6.900   3.643   0.597
 3095WAT     H1 9527   6.906   3.625   0.499
 3095WAT     H2 9528   6.969   3.588   0.644
 3096WAT      O 9529   3.804   7.300   4.214
 3096WAT     H1 9530   3.830   7.203   4.220
 3096WAT     H2 9531   3.742   7.312   4.136
 3097WAT      O 9532   8.125   5.616   5.558
 3097WAT     H1 9533   8.040   5.624   5.506
 3097WAT     H2 9534   8.198   5.662   5.509
 3098WAT      O 9535   7.692   7.652   6.612
 3098WAT     H1 9536   7.705   7.583   6.541
 3098WAT     H2 9537   7.598   7.648   6.646
 3099WAT      O 9538   0.841   9.149   4.293
 3099WAT     H1 9539   0.896   9.227   4.261
 3099WAT     H2 9540   0.888   9.064   4.267
 3100WAT      O 9541   1.049   5.237   4.928
 3100WAT     H1 9542   1.026   5.144   4.898
 3100WAT     H2 9543   1.047   5.241   5.028
 3101WAT      O 9544   4.493   5.666   7.572
 3101WAT     H1 9545   4.403   5.641   7.607
 3101WAT     H2 9546   4.533   5.737   7.630
 3102WAT      O 9547   2.362   8.005   2.878
 3102WAT     H1 9548   2.262   8.012   2.879
 3102WAT     H2 9549   2.389   7.909   2.875
 3103WAT      O 9550   6.148   2.398   5.358
 3103WAT     H1 9551   6.103   2.438   5.278
 3103WAT     H2 9552   6.217   2.461   5.393
 3104WAT      O 9553   6.739   7.133   0.652
 3104WAT     H1 9554   6.757   7.043   0.692
 3104WAT     H2 9555   6.826   7.178   0.634
 3105WAT      O 9556   6.693   2.136   7.175
 3105WAT     H1 9557   6.718   2.075   7.100
 3105WAT     H2 9558   6.669   2.226   7.139
 3106WAT      O 9559   8.404   5.206   5.600
 3106WAT     H1 9560   8.384   5.133   5.666
 3106WAT     H2 9561   8.359   5.291   5.630
 3107WAT      O 9562   9.872   0.536   0.056
 3107WAT     H1 9563   9.902   0.469   0.124
 3107WAT     H2 9564   9.810   0.492  -0.009
 3108WAT      O 9565   7.893   4.746   4.828
 3108WAT     H1 9566   7.895   4.719   4.924
 3108WAT     H2 9567   7.925   4.670   4.772
 3109WAT      O 9568   5.989   2.125   3.823
 3109WAT     H1 9569   5.996   2.069   3.740
 3109WAT     H2 9570   5.907   2.181   3.818
 3110WAT      O 9571   8.550   7.555   0.908
 3110WAT     H1 9572   8.476   7.576   0.972
 3110WAT     H2 9573   8.626   7.619   0.923
 3111WAT      O 9574   7.201   7.653   3.154
 3111WAT     H1 9575   7.113   7.644   3.107
 3111WAT     H2 9576   7.229   7.565   3.191
 3112WAT      O 9577   1.650   7.609   7.989
 3112WAT     H1 9578   1.667   7.541   7.918
 3112WAT     H2 9579   1.564   7.657   7.970
 3113WAT      O 9580   0.715   0.242   8.272
 3113WAT     H1 9581   0.804   0.205   8.242
 3113WAT     H2 9582   0.730   0.326   8.325
 3114WAT      O 9583   2.138   2.725   1.139
 3114WAT     H1 9584   2.223   2.777   1.147
 3114WAT     H2 9585   2.157   2.637   1.095
 3115WAT      O 9586   6.468   1.207   4.893
 3115WAT     H1 9587   6.560   1.198   4.932
 3115WAT     H2 9588   6.414   1.271   4.948
 3116WAT      O 9589   5.893   3.180   1.935
 3116WAT     H1 9590   5.990   3.200   1.921
 3116WAT     H2 9591   5.872   3.186   2.033
 3117WAT      O 9592   2.116   4.687   8.804
 3117WAT     H1 9593   2.046   4.751   8.837
 3117WAT     H2 9594   2.077   4.595   8.796
 3118WAT      O 9595   5.158   1.095   4.913
 3118WAT     H1 9596   5.067   1.113   4.875
 3118WAT     H2 9597   5.153   1.093   5.013
 3119WAT      O 9598   9.119   3.403   6.509
 3119WAT     H1 9599   9.026   3.367   6.503
 3119WAT     H2 9600   9.180   3.346   6.455
 3120WAT      O 9601   9.864   2.763   7.202
 3120WAT     H1 9602   9.779   2.715   7.226
 3120WAT     H2 9603   9.911   2.790   7.286
 3121WAT      O 9604   8.283   6.244   6.898
 3121WAT     H1 9605   8.330   6.293   6.825
 3121WAT     H2 9606   8.331   6.260   6.985
 3122WAT      O 9607   9.411   7.169   3.094
 3122WAT     H1 9608   9.334   7.118   3.133
 3122WAT     H2 9609   9.457   7.221   3.166
 3123WAT      O 9610   3.234   0.164   2.778
 3123WAT     H1 9611   3.160   0.223   2.745
 3123WAT     H2 9612   3.321   0.197   2.743
 3124WAT      O 9613   1.328   1.256   6.661
 3124WAT     H1 9614   1.282   1.295   6.741
 3124WAT     H2 9615   1.263   1.251   6.585
 3125WAT      O 9616   2.936   8.430   2.937
 3125WAT     H1 9617   2.999   8.498   2.900
 3125WAT     H2 9618   2.868   8.407   2.867
 3126WAT      O 9619   6.874   6.823   0.533
 3126WAT     H1 9620   6.868   6.868   0.622
 3126WAT     H2 9621   6.897   6.892   0.464
 3127WAT      O 9622   8.124   7.371   0.154
 3127WAT     H1 9623   8.214   7.414   0.162
 3127WAT     H2 9624   8.073   7.413   0.079
 3128WAT      O 9625   8.726   4.037   6.675
 3128WAT     H1 9626   8.686   3.993   6.594
 3128WAT     H2 9627   8.669   4.019   6.755
 3129WAT      O 9628   5.238   7.645   6.802
 3129WAT     H1 9629   5.252   7.596   6.716
 3129WAT     H2 9630   5.247   7.581   6.879
 3130WAT      O 9631   2.840   5.134   2.080
 3130WAT     H1 9632   2.907   5.186   2.132
 3130WAT     H2 9633   2.838   5.039   2.113
 3131WAT      O 9634   1.673   0.142   4.465
 3131WAT     H1 9635   1.722   0.115   4.382
 3131WAT     H2 9636   1.668   0.064   4.527
 3132WAT      O 9637   9.834   8.899   0.488
 3132WAT     H1 9638   9.740   8.885   0.520
 3132WAT     H2 9639   9.832   8.944   0.398
 3133WAT      O 9640   7.755   7.515   9.675
 3133WAT     H1 9641   7.715   7.595   9.719
 3133WAT     H2 9642   7.758   7.439   9.741
 3134WAT      O 9643   4.622   2.830   8.221
 3134WAT     H1 9644   4.692   2.899   8.239
 3134WAT     H2 9645   4.531   2.869   8.234
 3135WAT      O 9646   7.170   8.956   8.151
 3135WAT     H1 9647   7.114   8.955   8.068
 3135WAT     H2 9648   7.144   8.879   8.210
 3136WAT      O 9649   5.604   1.196   5.576
 3136WAT     H1 9650   5.659   1.114   5.566
 3136WAT     H2 9651   5.592   1.217   5.673
 3137WAT      O 9652   6.929   0.382   9.545
 3137WAT     H1 9653   7.016   0.333   9.532
 3137WAT     H2 9654   6.863   0.321   9.588
 3138WAT      O 9655   9.775   7.059   4.933
 3138WAT     H1 9656   9.789   7.156   4.953
 3138WAT     H2 9657   9.678   7.041   4.923
 3139WAT      O 9658   6.326   7.422   4.967
 3139WAT     H1 9659   6.403   7.459   5.019
 3139WAT     H2 9660   6.275   7.357   5.024
 3140WAT      O 9661   4.771   1.690   4.998
 3140WAT     H1 9662   4.853   1.654   5.042
 3140WAT     H2 9663   4.792   1.780   4.958
 3141WAT      O 9664   1.607   9.824   8.276
 3141WAT     H1 9665   1.565   9.844   8.365
 3141WAT     H2 9666   1.622   9.910   8.227
 3142WAT      O 9667   5.928   4.426   0.016
 3142WAT     H1 9668   5.994   4.421   0.091
 3142WAT     H2 9669   5.922   4.521  -0.017
 3143WAT      O 9670   2.032   2.143   0.928
 3143WAT     H1 9671   2.096   2.115   0.856
 3143WAT     H2 9672   1.949   2.180   0.887
 3144WAT      O 9673   8.682   7.169   2.452
 3144WAT     H1 9674   8.779   7.153   2.438
 3144WAT     H2 9675   8.658   7.149   2.547
 3145WAT      O 9676   0.591   2.227   5.604
 3145WAT     H1 9677   0.527   2.286   5.554
 3145WAT     H2 9678   0.678   2.276   5.617
 3146WAT      O 9679   1.447   0.445   2.546
 3146WAT     H1 9680   1.470   0.542   2.542
 3146WAT     H2 9681   1.354   0.431   2.512
 3147WAT      O 9682   4.425   2.629   4.303
 3147WAT     H1 9683   4.334   2.623   4.344
 3147WAT     H2 9684   4.426   2.703   4.235
 3148WAT      O 9685   3.920   1.286   1.548
 3148WAT     H1 9686   3.920   1.299   1.648
 3148WAT     H2 9687   3.832   1.246   1.521
 3149WAT      O 9688   8.151   3.282   2.226
 3149WAT     H1 9689   8.153   3.233   2.313
 3149WAT     H2 9690   8.207   3.365   2.233
 3150WAT      O 9691   1.938   2.068   7.630
 3150WAT     H1 9692   1.991   2.133   7.575
 3150WAT     H2 9693   1.863   2.116   7.675
 3151WAT      O 9694   5.504   8.310   7.469
 3151WAT     H1 9695   5.428   8.343   7.413
 3151WAT     H2 9696   5.471   8.239   7.532
 3152WAT      O 9697   5.677   6.417   5.661
 3152WAT     H1 9698   5.687   6.330   5.711
 3152WAT     H2 9699   5.759   6.472   5.674
 3153WAT      O 9700   2.674   2.752   0.759
 3153WAT     H1 9701   2.667   2.826   0.692
 3153WAT     H2 9702   2.699   2.667   0.713
 3154WAT      O 9703   9.230   5.781   1.307
 3154WAT     H1 9704   9.257   5.842   1.381
 3154WAT     H2 9705   9.308   5.765   1.247
 3155WAT      O 9706   7.115   8.607   7.102
 3155WAT     H1 9707   7.066   8.585   7.018
 3155WAT     H2 9708   7.213   8.616   7.082
 3156WAT      O 9709   9.734   0.498   3.566
 3156WAT     H1 9710   9.744   0.572   3.499
 3156WAT     H2 9711   9.653   0.516   3.623
 3157WAT      O 9712   0.368   8.154   2.852
 3157WAT     H1 9713   0.330   8.067   2.821
 3157WAT     H2 9714   0.448   8.178   2.796
 3158WAT      O 9715   0.325   7.617   0.211
 3158WAT     H1 9716   0.380   7.636   0.130
 3158WAT     H2 9717   0.288   7.703   0.247
 3159WAT      O 9718   0.241   1.843   2.187
 3159WAT     H1 9719   0.275   1.827   2.279
 3159WAT     H2 9720   0.318   1.849   2.123
 3160WAT      O 9721   9.665   5.047   8.203
 3160WAT     H1 9722   9.713   4.996   8.274
 3160WAT     H2 9723   9.729   5.069   8.129
 3161WAT      O 9724   8.264   1.934   2.088
 3161WAT     H1 9725   8.287   1.843   2.125
 3161WAT     H2 9726   8.172   1.932   2.050
 3162WAT      O 9727   6.739   6.680   3.374
 3162WAT     H1 9728   6.779   6.595   3.340
 3162WAT     H2 9729   6.656   6.660   3.426
 3163WAT      O 9730   7.713   7.817   8.072
 3163WAT     H1 9731   7.631   7.861   8.109
 3163WAT     H2 9732   7.759   7.765   8.145
 3164WAT      O 9733   1.544   0.045   8.730
 3164WAT     H1 9734   1.510   0.022   8.639
 3164WAT     H2 9735   1.551  -0.038   8.785
 3165WAT      O 9736   8.057   1.805   1.050
 3165WAT     H1 9737   8.066   1.716   1.005
 3165WAT     H2 9738   7.967   1.813   1.091
 3166WAT      O 9739   8.397   7.131   1.287
 3166WAT     H1 9740   8.362   7.063   1.351
 3166WAT     H2 9741   8.360   7.114   1.196
 3167WAT      O 9742   4.964   4.358   3.554
 3167WAT     H1 9743   4.924   4.356   3.646
 3167WAT     H2 9744   5.057   4.394   3.558
 3168WAT      O 9745   7.212   7.206   5.562
 3168WAT     H1 9746   7.190   7.243   5.653
 3168WAT     H2 9747   7.182   7.270   5.492
 3169WAT      O 9748   5.038   7.702   3.021
 3169WAT     H1 9749   4.977   7.740   2.952
 3169WAT     H2 9750   5.128   7.684   2.981
 3170WAT      O 9751   1.008   9.708   4.849
 3170WAT     H1 9752   1.010   9.767   4.769
 3170WAT     H2 9753   1.065   9.627   4.833
 3171WAT      O 9754   4.522   9.437   6.905
 3171WAT     H1 9755   4.545   9.533   6.920
 3171WAT     H2 9756   4.480   9.426   6.815
 3172WAT      O 9757   9.195   1.902   9.566
 3172WAT     H1 9758   9.239   1.966   9.504
 3172WAT     H2 9759   9.259   1.876   9.639
 3173WAT      O 9760   6.578   9.192   8.960
 3173WAT     H1 9761   6.538   9.103   8.980
 3173WAT     H2 9762   6.538   9.261   9.020
 3174WAT      O 9763   7.312   6.561   2.085
 3174WAT     H1 9764   7.307   6.484   2.021
 3174WAT     H2 9765   7.394   6.551   2.141
 3175WAT      O 9766   8.800   2.674   2.557
 3175WAT     H1 9767   8.759   2.762   2.581
 3175WAT     H2 9768   8.757   2.602   2.612
 3176WAT      O 9769   1.094   3.772   7.526
 3176WAT     H1 9770   1.149   3.698   7.488
 3176WAT     H2 9771   1.151   3.853   7.537
 3177WAT      O 9772   9.300   2.419   2.881
 3177WAT     H1 9773   9.218   2.392   2.830
 3177WAT     H2 9774   9.274   2.454   2.971
 3178WAT      O 9775   4.694   3.663   9.666
 3178WAT     H1 9776   4.623   3.660   9.737
 3178WAT     H2 9777   4.752   3.743   9.682
 3179WAT      O 9778   5.855   4.809   5.062
 3179WAT     H1 9779   5.884   4.843   4.972
 3179WAT     H2 9780   5.807   4.882   5.111
 3180WAT      O 9781   0.202   4.322   9.566
 3180WAT     H1 9782   0.146   4.396   9.530
 3180WAT     H2 9783   0.248   4.352   9.649
 3181WAT      O 9784   3.354   0.607   2.898
 3181WAT     H1 9785   3.358   0.665   2.816
 3181WAT     H2 9786   3.258   0.592   2.923
 3182WAT      O 9787   5.080   2.943   2.476
 3182WAT     H1 9788   5.027   2.858   2.472
 3182WAT     H2 9789   5.140   2.942   2.556
 3183WAT      O 9790   8.706   0.236   5.824
 3183WAT     H1 9791   8.701   0.291   5.907
 3183WAT     H2 9792   8.791   0.182   5.825
 3184WAT      O 9793   9.857   7.735   5.590
 3184WAT     H1 9794   9.841   7.637   5.580
 3184WAT     H2 9795   9.955   7.754   5.583
 3185WAT      O 9796   9.251   4.321   8.244
 3185WAT     H1 9797   9.261   4.409   8.290
 3185WAT     H2 9798   9.279   4.329   8.149
 3186WAT      O 9799   9.176   5.030   1.529
 3186WAT     H1 9800   9.252   5.071   1.479
 3186WAT     H2 9801   9.184   4.930   1.525
 3187WAT      O 9802   6.946   4.717   4.435
 3187WAT     H1 9803   6.885   4.653   4.388
 3187WAT     H2 9804   7.011   4.756   4.370
 3188WAT      O 9805   2.043   6.961   1.740
 3188WAT     H1 9806   1.945   6.950   1.752
 3188WAT     H2 9807   2.077   7.032   1.803
 3189WAT      O 9808   5.742   7.400   3.328
 3189WAT     H1 9809   5.648   7.373   3.348
 3189WAT     H2 9810   5.742   7.482   3.271
 3190WAT      O 9811   4.912   3.485   9.176
 3190WAT     H1 9812   4.917   3.390   9.206
 3190WAT     H2 9813   4.887   3.544   9.253
 3191WAT      O 9814   5.950   1.156   9.113
 3191WAT     H1 9815   6.017   1.138   9.185
 3191WAT     H2 9816   5.970   1.245   9.070
 3192WAT      O 9817   2.723   5.022   9.793
 3192WAT     H1 9818   2.804   4.970   9.766
 3192WAT     H2 9819   2.740   5.120   9.782
 3193WAT      O 9820   2.288   2.111   2.351
 3193WAT     H1 9821   2.273   2.179   2.423
 3193WAT     H2 9822   2.386   2.096   2.339
 3194WAT      O 9823   9.601   2.951   8.783
 3194WAT     H1 9824   9.512   2.968   8.826
 3194WAT     H2 9825   9.634   2.860   8.808
 3195WAT      O 9826   1.201   4.074   8.160
 3195WAT     H1 9827   1.224   4.159   8.112
 3195WAT     H2 9828   1.279   4.011   8.153
 3196WAT      O 9829   3.181   0.836   7.285
 3196WAT     H1 9830   3.105   0.893   7.315
 3196WAT     H2 9831   3.234   0.886   7.216
 3197WAT      O 9832   6.865   6.880   3.522
 3197WAT     H1 9833   6.841   6.799   3.469
 3197WAT     H2 9834   6.785   6.939   3.532
 3198WAT      O 9835   0.631   5.155   1.074
 3198WAT     H1 9836   0.630   5.059   1.103
 3198WAT     H2 9837   0.545   5.199   1.100
 3199WAT      O 9838   5.890   8.376   0.500
 3199WAT     H1 9839   5.854   8.365   0.593
 3199WAT     H2 9840   5.987   8.397   0.504
 3200WAT      O 9841   0.825   8.058   6.117
 3200WAT     H1 9842   0.877   7.973   6.125
 3200WAT     H2 9843   0.797   8.089   6.208
 3201WAT      O 9844   3.117   0.578   5.968
 3201WAT     H1 9845   3.146   0.657   6.022
 3201WAT     H2 9846   3.135   0.595   5.871
 3202WAT      O 9847   9.872   0.672   3.012
 3202WAT     H1 9848   9.926   0.611   3.071
 3202WAT     H2 9849   9.871   0.635   2.919
 3203WAT      O 9850   5.980   7.309   2.523
 3203WAT     H1 9851   6.078   7.290   2.531
 3203WAT     H2 9852   5.966   7.408   2.518
 3204WAT      O 9853   5.871   7.837   6.469
 3204WAT     H1 9854   5.901   7.915   6.524
 3204WAT     H2 9855   5.881   7.753   6.523
 3205WAT      O 9856   9.371   5.224   9.289
 3205WAT     H1 9857   9.359   5.241   9.387
 3205WAT     H2 9858   9.282   5.225   9.244
 3206WAT      O 9859   3.261   5.626   6.731
 3206WAT     H1 9860   3.235   5.563   6.804
 3206WAT     H2 9861   3.286   5.573   6.649
 3207WAT      O 9862   2.641   2.172   5.153
 3207WAT     H1 9863   2.657   2.083   5.194
 3207WAT     H2 9864   2.604   2.235   5.222
 3208WAT      O 9865   4.913   0.299   3.411
 3208WAT     H1 9866   4.976   0.355   3.357
 3208WAT     H2 9867   4.832   0.353   3.433
 3209WAT      O 9868   2.997   6.233   8.702
 3209WAT     H1 9869   3.063   6.308   8.697
 3209WAT     H2 9870   2.990   6.188   8.613
 3210WAT      O 9871   3.325   5.733   9.326
 3210WAT     H1 9872   3.322   5.679   9.411
 3210WAT     H2 9873   3.322   5.671   9.248
 3211WAT      O 9874   3.904   8.175   7.770
 3211WAT     H1 9875   3.939   8.262   7.803
 3211WAT     H2 9876   3.853   8.189   7.686
 3212WAT      O 9877   7.681   6.151   8.753
 3212WAT     H1 9878   7.644   6.079   8.695
 3212WAT     H2 9879   7.679   6.238   8.705
 3213WAT      O 9880   2.537   6.931   5.604
 3213WAT     H1 9881   2.442   6.899   5.608
 3213WAT     H2 9882   2.553   6.975   5.516
 3214WAT      O 9883   5.062   5.867   4.341
 3214WAT     H1 9884   5.114   5.848   4.258
 3214WAT     H2 9885   5.036   5.963   4.344
 3215WAT      O 9886   7.660   7.202   5.828
 3215WAT     H1 9887   7.668   7.244   5.918
 3215WAT     H2 9888   7.628   7.270   5.762
 3216WAT      O 9889   3.312   5.780   0.159
 3216WAT     H1 9890   3.348   5.703   0.106
 3216WAT     H2 9891   3.237   5.749   0.216
 3217WAT      O 9892   5.431   6.871   8.526
 3217WAT     H1 9893   5.354   6.925   8.559
 3217WAT     H2 9894   5.408   6.774   8.526
 3218WAT      O 9895   7.868   2.770   6.319
 3218WAT     H1 9896   7.782   2.820   6.326
 3218WAT     H2 9897   7.856   2.678   6.357
 3219WAT      O 9898   2.394   9.401   7.975
 3219WAT     H1 9899   2.472   9.411   7.913
 3219WAT     H2 9900   2.363   9.491   8.005
 3220WAT      O 9901   8.014   5.141   2.859
 3220WAT     H1 9902   8.054   5.169   2.772
 3220WAT     H2 9903   8.068   5.066   2.898
 3221WAT      O 9904   4.640   5.503   8.474
 3221WAT     H1 9905   4.699   5.426   8.451
 3221WAT     H2 9906   4.657   5.578   8.411
 3222WAT      O 9907   3.709   0.850   1.930
 3222WAT     H1 9908   3.720   0.949   1.932
 3222WAT     H2 9909   3.693   0.820   1.836
 3223WAT      O 9910   8.594   2.626   5.877
 3223WAT     H1 9911   8.656   2.595   5.949
 3223WAT     H2 9912   8.643   2.631   5.790
 3224WAT      O 9913   3.312   2.126   3.653
 3224WAT     H1 9914   3.259   2.102   3.572
 3224WAT     H2 9915   3.410   2.123   3.632
 3225WAT      O 9916   2.903   2.562   2.198
 3225WAT     H1 9917   2.847   2.516   2.129
 3225WAT     H2 9918   2.981   2.503   2.222
 3226WAT      O 9919   7.690   7.209   7.959
 3226WAT     H1 9920   7.634   7.209   8.042
 3226WAT     H2 9921   7.777   7.255   7.977
 3227WAT      O 9922   4.035   9.569   8.460
 3227WAT     H1 9923   4.010   9.503   8.531
 3227WAT     H2 9924   3.953   9.613   8.425
 3228WAT      O 9925   0.576   7.327   5.184
 3228WAT     H1 9926   0.623   7.240   5.200
 3228WAT     H2 9927   0.482   7.309   5.153
 3229WAT      O 9928   4.090   0.477   3.660
 3229WAT     H1 9929   4.063   0.476   3.757
 3229WAT     H2 9930   4.119   0.569   3.634
 3230WAT      O 9931   7.934   6.331   3.298
 3230WAT     H1 9932   7.838   6.307   3.311
 3230WAT     H2 9933   7.988   6.294   3.373
 3231WAT      O 9934   3.469   0.701   7.345
 3231WAT     H1 9935   3.379   0.694   7.303
 3231WAT     H2 9936   3.506   0.610   7.362
 3232WAT      O 9937   9.237   0.971   6.735
 3232WAT     H1 9938   9.259   0.926   6.648
 3232WAT     H2 9939   9.274   0.917   6.811
 3233WAT      O 9940   7.046   0.921   6.799
 3233WAT     H1 9941   7.107   0.964   6.733
 3233WAT     H2 9942   6.955   0.962   6.793
 3234WAT      O 9943   4.004   6.860   8.439
 3234WAT     H1 9944   4.074   6.809   8.389
 3234WAT     H2 9945   4.028   6.863   8.536
 3235WAT      O 9946   9.745   5.117   8.527
 3235WAT     H1 9947   9.670   5.106   8.592
 3235WAT     H2 9948   9.759   5.032   8.478
 3236WAT      O 9949   0.300   7.363   5.200
 3236WAT     H1 9950   0.296   7.449   5.251
 3236WAT     H2 9951   0.241   7.370   5.120
 3237WAT      O 9952   4.830   0.492   2.333
 3237WAT     H1 9953   4.784   0.446   2.257
 3237WAT     H2 9954   4.905   0.548   2.299
 3238WAT      O 9955   0.974   1.615   0.846
 3238WAT     H1 9956   0.970   1.673   0.764
 3238WAT     H2 9957   0.954   1.670   0.927
 3239WAT      O 9958   8.047   8.002   8.315
 3239WAT     H1 9959   7.960   8.051   8.321
 3239WAT     H2 9960   8.036   7.909   8.348
 3240WAT      O 9961   6.862   5.184   3.304
 3240WAT     H1 9962   6.940   5.189   3.366
 3240WAT     H2 9963   6.790   5.129   3.346
 3241WAT      O 9964   8.354   4.857   5.362
 3241WAT     H1 9965   8.432   4.908   5.398
 3241WAT     H2 9966   8.313   4.802   5.435
 3242WAT      O 9967   6.191   4.349   3.505
 3242WAT     H1 9968   6.217   4.320   3.597
 3242WAT     H2 9969   6.115   4.413   3.511
 3243WAT      O 9970   9.113   4.385   3.078
 3243WAT     H1 9971   9.070   4.460   3.027
 3243WAT     H2 9972   9.078   4.298   3.046
 3244WAT      O 9973   1.785   1.592   8.218
 3244WAT     H1 9974   1.806   1.498   8.244
 3244WAT     H2 9975   1.843   1.620   8.142
 3245WAT      O 9976   7.599   6.835   0.676
 3245WAT     H1 9977   7.670   6.791   0.622
 3245WAT     H2 9978   7.510   6.795   0.654
 3246WAT      O 9979   9.349   1.415   7.312
 3246WAT     H1 9980   9.407   1.469   7.252
 3246WAT     H2 9981   9.254   1.443   7.301
 3247WAT      O 9982   5.729   8.101   1.643
 3247WAT     H1 9983   5.720   8.192   1.684
 3247WAT     H2 9984   5.747   8.112   1.545
 3248WAT      O 9985   6.763   3.778   4.563
 3248WAT     H1 9986   6.673   3.802   4.600
 3248WAT     H2 9987   6.793   3.848   4.498
 3249WAT      O 9988   2.516   1.121   7.044
 3249WAT     H1 9989   2.561   1.174   7.116
 3249WAT     H2 9990   2.418   1.143   7.043
 3250WAT      O 9991   2.438   4.963   3.710
 3250WAT     H1 9992   2.535   4.976   3.691
 3250WAT     H2 9993   2.426   4.883   3.769
 3251WAT      O 9994   3.797   5.625   2.620
 3251WAT     H1 9995   3.737   5.635   2.541
 3251WAT     H2 9996   3.807   5.528   2.643
 3252WAT      O 9997   8.694   8.520   1.656
 3252WAT     H1 9998   8.709   8.495   1.751
 3252WAT     H2 9999   8.773   8.572   1.623
 3253WAT      O10000   5.912   0.091   9.612
 3253WAT     H110001   5.914   0.137   9.523
 3253WAT     H210002   6.004   0.086   9.649
 3254WAT      O10003   1.471   4.934   1.388
 3254WAT     H110004   1.430   4.995   1.456
 3254WAT     H210005   1.563   4.965   1.366
 3255WAT      O10006   4.188   1.192   5.378
 3255WAT     H110007   4.206   1.118   5.444
 3255WAT     H210008   4.089   1.201   5.366
 3256WAT      O10009   7.987   5.025   1.602
 3256WAT     H110010   7.952   5.041   1.694
 3256WAT     H210011   7.914   5.041   1.535
 3257WAT      O10012   5.436   1.723   5.223
 3257WAT     H110013   5.431   1.669   5.139
 3257WAT     H210014   5.532   1.734   5.250
 3258WAT      O10015   2.075   7.705   6.544
 3258WAT     H110016   2.117   7.727   6.632
 3258WAT     H210017   2.024   7.619   6.552
 3259WAT      O10018   3.535   5.163   5.672
 3259WAT     H110019   3.543   5.165   5.572
 3259WAT     H210020   3.537   5.256   5.707
 3260WAT      O10021   9.139   2.320   0.118
 3260WAT     H110022   9.110   2.237   0.166
 3260WAT     H210023   9.076   2.395   0.140
 3261WAT      O10024   4.725   9.078   1.897
 3261WAT     H110025   4.668   9.155   1.926
 3261WAT     H210026   4.716   9.003   1.963
 3262WAT      O10027   2.299   4.318   2.704
 3262WAT     H110028   2.342   4.254   2.640
 3262WAT     H210029   2.351   4.319   2.789
 3263WAT      O10030   4.196   3.445   2.913
 3263WAT     H110031   4.181   3.544   2.910
 3263WAT     H210032   4.254   3.418   2.836
 3264WAT      O10033   9.675   1.022   4.594
 3264WAT     H110034   9.775   1.027   4.599
 3264WAT     H210035   9.636   1.064   4.676
 3265WAT      O10036   5.497   0.831   5.747
 3265WAT     H110037   5.441   0.901   5.704
 3265WAT     H210038   5.440   0.778   5.811
 3266WAT      O10039   8.906   9.225   6.463
 3266WAT     H110040   9.004   9.227   6.486
 3266WAT     H210041   8.892   9.269   6.375
 3267WAT      O10042   6.685   6.428   4.293
 3267WAT     H110043   6.783   6.438   4.278
 3267WAT     H210044   6.654   6.340   4.255
 3268WAT      O10045   4.775   1.004   7.447
 3268WAT     H110046   4.800   0.908   7.458
 3268WAT     H210047   4.717   1.033   7.524
 3269WAT      O10048   2.498   6.389   5.546
 3269WAT     H110049   2.562   6.313   5.535
 3269WAT     H210050   2.416   6.371   5.490
 3270WAT      O10051   8.314   7.081   1.995
 3270WAT     H110052   8.316   7.169   1.950
 3270WAT     H210053   8.405   7.038   1.989
 3271WAT      O10054   1.031   4.832   1.079
 3271WAT     H110055   1.020   4.928   1.053
 3271WAT     H210056   1.099   4.824   1.152
 3272WAT      O10057   4.234   7.602   6.184
 3272WAT     H110058   4.210   7.687   6.137
 3272WAT     H210059   4.333   7.589   6.179
 3273WAT      O10060   7.208   5.107   3.231
 3273WAT     H110061   7.179   5.043   3.302
 3273WAT     H210062   7.205   5.200   3.267
 3274WAT      O10063   0.785   1.846   4.138
 3274WAT     H110064   0.702   1.821   4.089
 3274WAT     H210065   0.847   1.894   4.075
 3275WAT      O10066   8.602   8.803   3.332
 3275WAT     H110067   8.618   8.887   3.281
 3275WAT     H210068   8.537   8.820   3.406
 3276WAT      O10069   2.147   0.360   5.466
 3276WAT     H110070   2.079   0.411   5.414
 3276WAT     H210071   2.101   0.302   5.534
 3277WAT      O10072   7.872   0.307   1.247
 3277WAT     H110073   7.880   0.406   1.236
 3277WAT     H210074   7.961   0.265   1.229
 3278WAT      O10075   4.262   8.857   1.223
 3278WAT     H110076   4.362   8.859   1.229
 3278WAT     H210077   4.223   8.888   1.310
 3279WAT      O10078   2.401   4.629   5.118
 3279WAT     H110079   2.460   4.627   5.038
 3279WAT     H210080   2.315   4.583   5.098
 3280WAT      O10081   9.599   4.239   8.622
 3280WAT     H110082   9.571   4.182   8.545
 3280WAT     H210083   9.547   4.213   8.704
 3281WAT      O10084   7.291   8.905   9.519
 3281WAT     H110085   7.223   8.834   9.541
 3281WAT     H210086   7.374   8.862   9.484
 3282WAT      O10087   9.875   2.786   9.259
 3282WAT     H110088   9.905   2.732   9.180
 3282WAT     H210089   9.781   2.816   9.245
 3283WAT      O10090   6.364   2.819   9.678
 3283WAT     H110091   6.314   2.732   9.685
 3283WAT     H210092   6.405   2.827   9.588
 3284WAT      O10093   8.371   7.693   3.733
 3284WAT     H110094   8.430   7.766   3.769
 3284WAT     H210095   8.298   7.674   3.799
 3285WAT      O10096   4.166   3.041   5.791
 3285WAT     H110097   4.094   2.992   5.741
 3285WAT     H210098   4.153   3.030   5.889
 3286WAT      O10099   4.301   4.247   7.854
 3286WAT     H110100   4.209   4.278   7.831
 3286WAT     H210101   4.311   4.151   7.829
 3287WAT      O10102   3.475   9.572   4.544
 3287WAT     H110103   3.391   9.627   4.544
 3287WAT     H210104   3.537   9.605   4.615
 3288WAT      O10105   2.282   0.421   9.056
 3288WAT     H110106   2.372   0.380   9.067
 3288WAT     H210107   2.215   0.371   9.111
 3289WAT      O10108   5.387   1.286   2.552
 3289WAT     H110109   5.449   1.210   2.534
 3289WAT     H210110   5.354   1.322   2.465
 3290WAT      O10111   1.285   3.627   6.807
 3290WAT     H110112   1.260   3.678   6.890
 3290WAT     H210113   1.260   3.531   6.819
 3291WAT      O10114   6.620   4.129   6.491
 3291WAT     H110115   6.615   4.034   6.525
 3291WAT     H210116   6.665   4.130   6.401
 3292WAT      O10117   3.845   9.169   9.440
 3292WAT     H110118   3.936   9.209   9.438
 3292WAT     H210119   3.777   9.240   9.460
 3293WAT      O10120   6.669   9.537   8.306
 3293WAT     H110121   6.603   9.609   8.283
 3293WAT     H210122   6.761   9.575   8.305
 3294WAT      O10123   4.271   2.574   2.462
 3294WAT     H110124   4.235   2.501   2.403
 3294WAT     H210125   4.331   2.633   2.408
 3295WAT      O10126   1.461   6.209   7.903
 3295WAT     H110127   1.413   6.239   7.820
 3295WAT     H210128   1.403   6.145   7.954
 3296WAT      O10129   9.018   0.642   6.323
 3296WAT     H110130   9.108   0.648   6.367
 3296WAT     H210131   8.963   0.572   6.367
 3297WAT      O10132   7.911   8.373   2.634
 3297WAT     H110133   7.993   8.410   2.589
 3297WAT     H210134   7.838   8.363   2.567
 3298WAT      O10135   0.936   5.886   6.395
 3298WAT     H110136   0.957   5.888   6.298
 3298WAT     H210137   0.927   5.791   6.425
 3299WAT      O10138   3.474   9.215   0.770
 3299WAT     H110139   3.534   9.137   0.752
 3299WAT     H210140   3.437   9.208   0.863
 3300WAT      O10141   4.703   2.798   3.118
 3300WAT     H110142   4.654   2.803   3.031
 3300WAT     H210143   4.638   2.797   3.194
 3301WAT      O10144   4.111   8.009   4.824
 3301WAT     H110145   4.089   7.987   4.729
 3301WAT     H210146   4.208   7.992   4.841
 3302WAT      O10147   5.190   5.083   9.585
 3302WAT     H110148   5.180   5.075   9.486
 3302WAT     H210149   5.132   5.015   9.631
 3303WAT      O10150   7.916   4.677   1.741
 3303WAT     H110151   7.958   4.589   1.761
 3303WAT     H210152   7.929   4.739   1.818
 3304WAT      O10153   1.844   4.459   2.634
 3304WAT     H110154   1.871   4.365   2.615
 3304WAT     H210155   1.843   4.474   2.733
 3305WAT      O10156   5.809   2.680   1.445
 3305WAT     H110157   5.765   2.740   1.379
 3305WAT     H210158   5.908   2.693   1.440
 3306WAT      O10159   9.282   1.215   4.568
 3306WAT     H110160   9.184   1.203   4.584
 3306WAT     H210161   9.323   1.128   4.544
 3307WAT      O10162   0.534   6.414   7.587
 3307WAT     H110163   0.576   6.502   7.567
 3307WAT     H210164   0.434   6.425   7.588
 3308WAT      O10165   4.832   3.045   8.223
 3308WAT     H110166   4.905   2.999   8.173
 3308WAT     H210167   4.852   3.142   8.230
 3309WAT      O10168   1.802   7.769   5.542
 3309WAT     H110169   1.848   7.843   5.492
 3309WAT     H210170   1.707   7.762   5.511
 3310WAT      O10171   8.119   2.664   0.825
 3310WAT     H110172   8.202   2.610   0.817
 3310WAT     H210173   8.042   2.603   0.848
 3311WAT      O10174   6.973   4.771   8.518
 3311WAT     H110175   6.939   4.840   8.582
 3311WAT     H210176   6.911   4.764   8.440
 3312WAT      O10177   1.498   7.389   0.399
 3312WAT     H110178   1.464   7.474   0.438
 3312WAT     H210179   1.425   7.320   0.401
 3313WAT      O10180   6.469   0.254   5.500
 3313WAT     H110181   6.483   0.171   5.447
 3313WAT     H210182   6.464   0.232   5.597
 3314WAT      O10183   8.790   0.501   3.611
 3314WAT     H110184   8.708   0.512   3.554
 3314WAT     H210185   8.813   0.404   3.618
 3315WAT      O10186   3.761   2.932   6.720
 3315WAT     H110187   3.816   2.923   6.803
 3315WAT     H210188   3.822   2.938   6.641
 3316WAT      O10189   7.190   4.636   3.866
 3316WAT     H110190   7.126   4.647   3.941
 3316WAT     H210191   7.178   4.711   3.801
 3317WAT      O10192   1.946   7.027   2.053
 3317WAT     H110193   1.848   7.032   2.034
 3317WAT     H210194   1.960   7.026   2.152
 3318WAT      O10195   2.276   6.069   7.373
 3318WAT     H110196   2.227   6.035   7.453
 3318WAT     H210197   2.248   6.163   7.354
 3319WAT      O10198   5.745   7.976   4.174
 3319WAT     H110199   5.669   7.911   4.179
 3319WAT     H210200   5.731   8.036   4.095
 3320WAT      O10201   5.021   7.241   0.073
 3320WAT     H110202   4.951   7.196   0.128
 3320WAT     H210203   4.979   7.310   0.014
 3321WAT      O10204   3.309   1.819   4.486
 3321WAT     H110205   3.304   1.804   4.387
 3321WAT     H210206   3.348   1.738   4.530
 3322WAT      O10207   3.762   4.214   9.017
 3322WAT     H110208   3.829   4.142   8.999
 3322WAT     H210209   3.723   4.201   9.109
 3323WAT      O10210   7.496   1.583   5.181
 3323WAT     H110211   7.563   1.650   5.214
 3323WAT     H210212   7.473   1.603   5.086
 3324WAT      O10213   5.386   5.852   8.333
 3324WAT     H110214   5.352   5.804   8.252
 3324WAT     H210215   5.485   5.838   8.341
 3325WAT      O10216   6.840   2.803   8.943
 3325WAT     H110217   6.844   2.715   8.991
 3325WAT     H210218   6.747   2.839   8.947
 3326WAT      O10219   5.602   0.854   3.833
 3326WAT     H110220   5.565   0.940   3.869
 3326WAT     H210221   5.693   0.870   3.796
 3327WAT      O10222   6.605   1.271   4.404
 3327WAT     H110223   6.603   1.309   4.312
 3327WAT     H210224   6.661   1.187   4.404
 3328WAT      O10225   1.108   1.065   1.087
 3328WAT     H110226   1.104   1.033   0.993
 3328WAT     H210227   1.182   1.131   1.097
 3329WAT      O10228   5.146   6.412   1.191
 3329WAT     H110229   5.158   6.486   1.124
 3329WAT     H210230   5.101   6.334   1.147
 3330WAT      O10231   4.531   6.532   6.133
 3330WAT     H110232   4.585   6.449   6.146
 3330WAT     H210233   4.447   6.526   6.187
 3331WAT      O10234   6.556   5.694   6.948
 3331WAT     H110235   6.654   5.682   6.961
 3331WAT     H210236   6.520   5.758   7.016
 3332WAT      O10237   7.218   0.563   5.944
 3332WAT     H110238   7.262   0.592   6.030
 3332WAT     H210239   7.233   0.466   5.930
 3333WAT      O10240   5.609   5.014   9.032
 3333WAT     H110241   5.666   5.083   9.076
 3333WAT     H210242   5.579   4.947   9.100
 3334WAT      O10243   1.815   9.825   6.884
 3334WAT     H110244   1.800   9.921   6.907
 3334WAT     H210245   1.828   9.771   6.967
 3335WAT      O10246   7.735   8.379   9.550
 3335WAT     H110247   7.812   8.413   9.603
 3335WAT     H210248   7.726   8.433   9.466
 3336WAT      O10249   9.338   6.365   8.667
 3336WAT     H110250   9.388   6.405   8.590
 3336WAT     H210251   9.280   6.435   8.710
 3337WAT      O10252   0.410   5.441   0.187
 3337WAT     H110253   0.314   5.424   0.165
 3337WAT     H210254   0.467   5.415   0.109
 3338WAT      O10255   8.605   7.890   3.724
 3338WAT     H110256   8.565   7.942   3.649
 3338WAT     H210257   8.704   7.885   3.712
 3339WAT      O10258   7.206   5.882   2.621
 3339WAT     H110259   7.229   5.812   2.689
 3339WAT     H210260   7.286   5.939   2.603
 3340WAT      O10261   8.791   9.653   7.945
 3340WAT     H110262   8.837   9.569   7.918
 3340WAT     H210263   8.692   9.638   7.948
 3341WAT      O10264   2.008   6.115   7.841
 3341WAT     H110265   1.958   6.055   7.903
 3341WAT     H210266   1.942   6.165   7.784
 3342WAT      O10267   5.121   8.658   3.144
 3342WAT     H110268   5.115   8.640   3.046
 3342WAT     H210269   5.043   8.615   3.191
 3343WAT      O10270   5.380   0.232   9.059
 3343WAT     H110271   5.353   0.327   9.074
 3343WAT     H210272   5.435   0.226   8.976
 3344WAT      O10273   7.115   2.663   8.597
 3344WAT     H110274   7.057   2.621   8.666
 3344WAT     H210275   7.177   2.595   8.559
 3345WAT      O10276   3.158   9.041   3.722
 3345WAT     H110277   3.171   8.963   3.783
 3345WAT     H210278   3.075   9.029   3.669
 3346WAT      O10279   8.778   7.514   5.687
 3346WAT     H110280   8.855   7.532   5.626
 3346WAT     H210281   8.780   7.418   5.715
 3347WAT      O10282   5.297   7.330   2.880
 3347WAT     H110283   5.276   7.371   2.791
 3347WAT     H210284   5.389   7.357   2.908
 3348WAT      O10285   5.494   1.784   5.667
 3348WAT     H110286   5.468   1.879   5.683
 3348WAT     H210287   5.590   1.781   5.640
 3349WAT      O10288   6.175   6.628   9.373
 3349WAT     H110289   6.249   6.561   9.369
 3349WAT     H210290   6.104   6.596   9.436
 3350WAT      O10291   6.426   4.784   5.507
 3350WAT     H110292   6.519   4.818   5.518
 3350WAT     H210293   6.383   4.776   5.596
 3351WAT      O10294   2.824   8.298   1.492
 3351WAT     H110295   2.806   8.357   1.571
 3351WAT     H210296   2.892   8.342   1.433
 3352WAT      O10297   0.305   8.395   6.365
 3352WAT     H110298   0.216   8.357   6.340
 3352WAT     H210299   0.334   8.355   6.452
 3353WAT      O10300   5.027   3.413   8.449
 3353WAT     H110301   5.059   3.415   8.544
 3353WAT     H210302   4.994   3.505   8.424
 3354WAT      O10303   9.665   9.282   1.941
 3354WAT     H110304   9.621   9.205   1.987
 3354WAT     H210305   9.632   9.367   1.980
 3355WAT      O10306   0.413   7.168   3.088
 3355WAT     H110307   0.325   7.203   3.119
 3355WAT     H210308   0.425   7.189   2.991
 3356WAT      O10309   8.286   3.134   9.201
 3356WAT     H110310   8.292   3.227   9.165
 3356WAT     H210311   8.312   3.133   9.297
 3357WAT      O10312   1.728   7.914   9.127
 3357WAT     H110313   1.781   7.937   9.209
 3357WAT     H210314   1.737   7.816   9.108
 3358WAT      O10315   9.063   6.351   2.964
 3358WAT     H110316   9.015   6.280   2.913
 3358WAT     H210317   9.006   6.380   3.042
 3359WAT      O10318   7.850   9.840   7.080
 3359WAT     H110319   7.852   9.940   7.082
 3359WAT     H210320   7.805   9.806   7.162
 3360WAT      O10321   6.020   3.334   3.384
 3360WAT     H110322   5.981   3.400   3.447
 3360WAT     H210323   6.111   3.306   3.416
 3361WAT      O10324   4.635   1.921   7.717
 3361WAT     H110325   4.651   1.919   7.619
 3361WAT     H210326   4.546   1.882   7.738
 3362WAT      O10327   7.139   9.571   8.696
 3362WAT     H110328   7.236   9.585   8.674
 3362WAT     H210329   7.126   9.579   8.794
 3363WAT      O10330   7.581   9.670   7.175
 3363WAT     H110331   7.597   9.695   7.270
 3363WAT     H210332   7.483   9.657   7.160
 3364WAT      O10333   8.117   4.838   4.638
 3364WAT     H110334   8.046   4.908   4.636
 3364WAT     H210335   8.075   4.747   4.633
 3365WAT      O10336   4.419   7.767   9.002
 3365WAT     H110337   4.425   7.704   8.925
 3365WAT     H210338   4.503   7.821   9.009
 3366WAT      O10339   9.034   3.479   1.058
 3366WAT     H110340   8.983   3.393   1.064
 3366WAT     H210341   9.080   3.484   0.969
 3367WAT      O10342   3.399   0.330   1.095
 3367WAT     H110343   3.411   0.335   1.195
 3367WAT     H210344   3.402   0.422   1.057
 3368WAT      O10345   9.862   9.405   6.547
 3368WAT     H110346   9.929   9.342   6.586
 3368WAT     H210347   9.839   9.475   6.614
 3369WAT      O10348   4.195   7.320   3.097
 3369WAT     H110349   4.120   7.264   3.062
 3369WAT     H210350   4.208   7.400   3.038
 3370WAT      O10351   1.273   1.676   4.370
 3370WAT     H110352   1.198   1.713   4.424
 3370WAT     H210353   1.237   1.621   4.295
 3371WAT      O10354   0.778   2.310   6.772
 3371WAT     H110355   0.713   2.362   6.718
 3371WAT     H210356   0.732   2.271   6.852
 3372WAT      O10357   6.295   7.590   3.386
 3372WAT     H110358   6.326   7.527   3.315
 3372WAT     H210359   6.359   7.667   3.393
 3373WAT      O10360   8.220   7.956   3.551
 3373WAT     H110361   8.144   7.990   3.496
 3373WAT     H210362   8.202   7.975   3.647
 3374WAT      O10363   4.099   1.589   4.321
 3374WAT     H110364   4.160   1.529   4.373
 3374WAT     H210365   4.009   1.546   4.311
 3375WAT      O10366   2.208   6.095   3.808
 3375WAT     H110367   2.150   6.119   3.730
 3375WAT     H210368   2.276   6.167   3.822
 3376WAT      O10369   2.037   1.845   9.307
 3376WAT     H110370   2.120   1.832   9.252
 3376WAT     H210371   1.970   1.898   9.255
 3377WAT      O10372   8.947   2.653   4.605
 3377WAT     H110373   8.929   2.556   4.588
 3377WAT     H210374   8.875   2.691   4.662
 3378WAT      O10375   4.342   6.892   1.388
 3378WAT     H110376   4.313   6.926   1.477
 3378WAT     H210377   4.310   6.953   1.316
 3379WAT      O10378   3.995   5.288   0.447
 3379WAT     H110379   4.068   5.223   0.469
 3379WAT     H210380   3.974   5.283   0.349
 3380WAT      O10381   6.281   6.001   3.378
 3380WAT     H110382   6.334   6.027   3.458
 3380WAT     H210383   6.289   6.071   3.308
 3381WAT      O10384   2.975   1.300   2.871
 3381WAT     H110385   2.948   1.350   2.789
 3381WAT     H210386   3.053   1.346   2.914
 3382WAT      O10387   6.524   0.604   4.823
 3382WAT     H110388   6.588   0.677   4.848
 3382WAT     H210389   6.490   0.560   4.906
 3383WAT      O10390   3.004   4.229   7.074
 3383WAT     H110391   2.977   4.179   6.992
 3383WAT     H210392   2.957   4.190   7.154
 3384WAT      O10393   1.168   2.802   4.265
 3384WAT     H110394   1.198   2.708   4.284
 3384WAT     H210395   1.068   2.805   4.265
 3385WAT      O10396   9.590   1.986   6.962
 3385WAT     H110397   9.568   1.903   6.911
 3385WAT     H210398   9.507   2.041   6.975
 3386WAT      O10399   8.826   4.493   2.219
 3386WAT     H110400   8.816   4.472   2.316
 3386WAT     H210401   8.736   4.507   2.178
 3387WAT      O10402   6.353   2.515   0.085
 3387WAT     H110403   6.451   2.517   0.105
 3387WAT     H210404   6.303   2.477   0.163
 3388WAT      O10405   8.574   2.907   6.237
 3388WAT     H110406   8.611   2.956   6.316
 3388WAT     H210407   8.482   2.941   6.217
 3389WAT      O10408   4.388   2.633   2.050
 3389WAT     H110409   4.289   2.646   2.054
 3389WAT     H210410   4.431   2.681   2.126
 3390WAT      O10411   1.576   1.738   9.548
 3390WAT     H110412   1.656   1.689   9.514
 3390WAT     H210413   1.496   1.710   9.495
 3391WAT      O10414   4.866   9.448   9.842
 3391WAT     H110415   4.844   9.351   9.844
 3391WAT     H210416   4.837   9.487   9.754
 3392WAT      O10417   1.772   4.707   7.559
 3392WAT     H110418   1.848   4.760   7.521
 3392WAT     H210419   1.771   4.616   7.518
 3393WAT      O10420   0.564   5.178   3.981
 3393WAT     H110421   0.626   5.101   3.995
 3393WAT     H210422   0.501   5.157   3.906
 3394WAT      O10423   1.356   4.692   5.997
 3394WAT     H110424   1.399   4.740   5.921
 3394WAT     H210425   1.314   4.759   6.059
 3395WAT      O10426   5.484   0.061   9.254
 3395WAT     H110427   5.443   0.141   9.210
 3395WAT     H210428   5.425   0.029   9.328
 3396WAT      O10429   3.570   0.455   7.416
 3396WAT     H110430   3.606   0.381   7.360
 3396WAT     H210431   3.637   0.528   7.422
 3397WAT      O10432   2.865   7.366   5.881
 3397WAT     H110433   2.917   7.281   5.880
 3397WAT     H210434   2.839   7.389   5.787
 3398WAT      O10435   1.133   5.634   2.806
 3398WAT     H110436   1.091   5.564   2.864
 3398WAT     H210437   1.063   5.698   2.774
 3399WAT      O10438   5.945   8.508   1.372
 3399WAT     H110439   6.042   8.531   1.378
 3399WAT     H210440   5.905   8.553   1.293
 3400WAT      O10441   8.360   6.713   7.115
 3400WAT     H110442   8.339   6.806   7.145
 3400WAT     H210443   8.410   6.665   7.187
 3401WAT      O10444   3.421   2.888   4.471
 3401WAT     H110445   3.398   2.954   4.400
 3401WAT     H210446   3.509   2.911   4.511
 3402WAT      O10447   9.165   4.476   5.983
 3402WAT     H110448   9.239   4.495   6.048
 3402WAT     H210449   9.176   4.534   5.902
 3403WAT      O10450   1.818   2.171   3.488
 3403WAT     H110451   1.851   2.158   3.395
 3403WAT     H210452   1.872   2.116   3.551
 3404WAT      O10453   1.433   4.003   4.601
 3404WAT     H110454   1.336   4.030   4.602
 3404WAT     H210455   1.465   3.993   4.695
 3405WAT      O10456   2.088   1.710   6.964
 3405WAT     H110457   2.069   1.646   6.889
 3405WAT     H210458   2.011   1.710   7.028
 3406WAT      O10459   7.024   5.851   5.289
 3406WAT     H110460   7.001   5.882   5.381
 3406WAT     H210461   7.008   5.752   5.281
 3407WAT      O10462   3.605   4.784   2.457
 3407WAT     H110463   3.667   4.709   2.434
 3407WAT     H210464   3.658   4.867   2.477
 3408WAT      O10465   8.286   2.534   8.720
 3408WAT     H110466   8.193   2.500   8.708
 3408WAT     H210467   8.287   2.633   8.709
 3409WAT      O10468   4.048   2.335   0.524
 3409WAT     H110469   3.983   2.279   0.473
 3409WAT     H210470   4.022   2.337   0.620
 3410WAT      O10471   2.015   9.383   9.441
 3410WAT     H110472   2.014   9.449   9.366
 3410WAT     H210473   1.922   9.367   9.474
 3411WAT      O10474   2.253   6.386   0.032
 3411WAT     H110475   2.313   6.420   0.104
 3411WAT     H210476   2.240   6.288   0.042
 3412WAT      O10477   4.395   6.018   9.283
 3412WAT     H110478   4.435   5.926   9.285
 3412WAT     H210479   4.345   6.034   9.368
 3413WAT      O10480   9.445   0.287   0.107
 3413WAT     H110481   9.537   0.253   0.124
 3413WAT     H210482   9.432   0.372   0.158
 3414WAT      O10483   0.144   0.106   4.777
 3414WAT     H110484   0.195   0.140   4.698
 3414WAT     H210485   0.141   0.177   4.847
 3415WAT      O10486   9.275   1.984   3.633
 3415WAT     H110487   9.343   1.987   3.707
 3415WAT     H210488   9.263   1.890   3.603
 3416WAT      O10489   1.434   8.250   7.437
 3416WAT     H110490   1.496   8.320   7.401
 3416WAT     H210491   1.487   8.182   7.488
 3417WAT      O10492   1.115   9.458   0.837
 3417WAT     H110493   1.116   9.410   0.925
 3417WAT     H210494   1.133   9.556   0.852
 3418WAT      O10495   6.648   1.718   8.201
 3418WAT     H110496   6.738   1.689   8.231
 3418WAT     H210497   6.599   1.639   8.162
 3419WAT      O10498   7.011   7.101   7.111
 3419WAT     H110499   6.956   7.181   7.136
 3419WAT     H210500   7.046   7.112   7.018
 3420WAT      O10501   6.733   7.489   9.370
 3420WAT     H110502   6.825   7.456   9.391
 3420WAT     H210503   6.722   7.494   9.271
 3421WAT      O10504   0.115   1.339   0.598
 3421WAT     H110505   0.048   1.396   0.551
 3421WAT     H210506   0.146   1.266   0.537
 3422WAT      O10507   4.404   5.251   2.090
 3422WAT     H110508   4.398   5.153   2.071
 3422WAT     H210509   4.463   5.265   2.170
 3423WAT      O10510   4.710   5.252   5.230
 3423WAT     H110511   4.778   5.270   5.158
 3423WAT     H210512   4.641   5.189   5.195
 3424WAT      O10513   2.916   4.686   3.829
 3424WAT     H110514   3.006   4.645   3.849
 3424WAT     H210515   2.857   4.677   3.909
 3425WAT      O10516   7.834   9.320   0.049
 3425WAT     H110517   7.846   9.347   0.144
 3425WAT     H210518   7.737   9.310   0.029
 3426WAT      O10519   0.659   2.290   0.101
 3426WAT     H110520   0.758   2.306   0.101
 3426WAT     H210521   0.627   2.274   0.008
 3427WAT      O10522   2.665   0.629   2.829
 3427WAT     H110523   2.750   0.673   2.856
 3427WAT     H210524   2.620   0.684   2.758
 3428WAT      O10525   8.584   4.319   4.528
 3428WAT     H110526   8.607   4.308   4.625
 3428WAT     H210527   8.494   4.361   4.520
 3429WAT      O10528   4.655   4.306   3.963
 3429WAT     H110529   4.623   4.230   4.019
 3429WAT     H210530   4.667   4.387   4.020
 3430WAT      O10531   4.520   2.816   0.680
 3430WAT     H110532   4.525   2.746   0.751
 3430WAT     H210533   4.585   2.889   0.700
 3431WAT      O10534   6.448   2.405   5.250
 3431WAT     H110535   6.535   2.357   5.247
 3431WAT     H210536   6.403   2.400   5.161
 3432WAT      O10537   4.435   3.748   5.134
 3432WAT     H110538   4.515   3.761   5.193
 3432WAT     H210539   4.425   3.828   5.074
 3433WAT      O10540   5.211   2.592   7.776
 3433WAT     H110541   5.119   2.555   7.772
 3433WAT     H210542   5.253   2.589   7.685
 3434WAT      O10543   3.425   2.893   1.730
 3434WAT     H110544   3.520   2.865   1.747
 3434WAT     H210545   3.365   2.813   1.740
 3435WAT      O10546   9.866   7.221   8.793
 3435WAT     H110547   9.951   7.260   8.827
 3435WAT     H210548   9.866   7.220   8.693
 3436WAT      O10549   0.878   7.241   2.771
 3436WAT     H110550   0.882   7.151   2.727
 3436WAT     H210551   0.867   7.228   2.870
 3437WAT      O10552   7.371   6.487   5.981
 3437WAT     H110553   7.331   6.551   5.916
 3437WAT     H210554   7.300   6.425   6.015
 3438WAT      O10555   8.522   9.540   7.691
 3438WAT     H110556   8.567   9.521   7.778
 3438WAT     H210557   8.574   9.610   7.642
 3439WAT      O10558   2.467   0.807   1.018
 3439WAT     H110559   2.375   0.775   1.039
 3439WAT     H210560   2.515   0.737   0.965
 3440WAT      O10561   4.738   5.097   0.184
 3440WAT     H110562   4.651   5.135   0.153
 3440WAT     H210563   4.811   5.164   0.169
 3441WAT      O10564   0.940   8.336   2.346
 3441WAT     H110565   0.882   8.411   2.312
 3441WAT     H210566   0.888   8.250   2.344
 3442WAT      O10567   8.749   2.279   7.973
 3442WAT     H110568   8.680   2.281   8.045
 3442WAT     H210569   8.711   2.319   7.890
 3443WAT      O10570   3.852   0.344   8.483
 3443WAT     H110571   3.789   0.285   8.432
 3443WAT     H210572   3.888   0.294   8.562
 3444WAT      O10573   3.413   5.467   6.195
 3444WAT     H110574   3.325   5.504   6.168
 3444WAT     H210575   3.484   5.501   6.133
 3445WAT      O10576   3.517   8.921   9.514
 3445WAT     H110577   3.539   8.826   9.533
 3445WAT     H210578   3.441   8.950   9.573
 3446WAT      O10579   7.202   0.686   4.316
 3446WAT     H110580   7.107   0.664   4.296
 3446WAT     H210581   7.247   0.718   4.233
 3447WAT      O10582   2.882   8.069   1.887
 3447WAT     H110583   2.897   7.970   1.888
 3447WAT     H210584   2.963   8.116   1.925
 3448WAT      O10585   6.163   6.338   6.226
 3448WAT     H110586   6.238   6.287   6.183
 3448WAT     H210587   6.077   6.287   6.214
 3449WAT      O10588   3.215   1.136   2.884
 3449WAT     H110589   3.270   1.179   2.813
 3449WAT     H210590   3.128   1.184   2.893
 3450WAT      O10591   2.851   4.120   0.872
 3450WAT     H110592   2.822   4.082   0.784
 3450WAT     H210593   2.841   4.050   0.943
 3451WAT      O10594   0.858   9.114   9.867
 3451WAT     H110595   0.915   9.166   9.802
 3451WAT     H210596   0.897   9.121   9.959
 3452WAT      O10597   9.444   0.696   4.425
 3452WAT     H110598   9.348   0.665   4.425
 3452WAT     H210599   9.501   0.624   4.464
 3453WAT      O10600   0.744   2.608   7.983
 3453WAT     H110601   0.783   2.602   7.891
 3453WAT     H210602   0.683   2.530   7.999
 3454WAT      O10603   6.044   5.622   9.105
 3454WAT     H110604   5.949   5.591   9.109
 3454WAT     H210605   6.090   5.599   9.190
 3455WAT      O10606   9.256   0.506   5.934
 3455WAT     H110607   9.173   0.473   5.977
 3455WAT     H210608   9.258   0.476   5.838
 3456WAT      O10609   7.993   3.253   0.306
 3456WAT     H110610   8.011   3.184   0.236
 3456WAT     H210611   8.080   3.287   0.343
 3457WAT      O10612   5.974   4.519   8.532
 3457WAT     H110613   6.073   4.507   8.536
 3457WAT     H210614   5.940   4.545   8.622
 3458WAT      O10615   7.827   2.837   1.467
 3458WAT     H110616   7.845   2.776   1.390
 3458WAT     H210617   7.913   2.879   1.496
 3459WAT      O10618   6.238   7.286   6.725
 3459WAT     H110619   6.225   7.286   6.825
 3459WAT     H210620   6.296   7.208   6.700
 3460WAT      O10621   3.727   4.562   2.408
 3460WAT     H110622   3.766   4.506   2.334
 3460WAT     H210623   3.696   4.502   2.482
 3461WAT      O10624   1.527   0.489   8.805
 3461WAT     H110625   1.539   0.424   8.730
 3461WAT     H210626   1.599   0.475   8.873
 3462WAT      O10627   3.324   8.097   4.472
 3462WAT     H110628   3.278   8.170   4.523
 3462WAT     H210629   3.379   8.136   4.398
 3463WAT      O10630   1.140   0.632   7.396
 3463WAT     H110631   1.210   0.617   7.466
 3463WAT     H210632   1.058   0.580   7.420
 3464WAT      O10633   1.099   1.436   7.966
 3464WAT     H110634   1.113   1.393   8.055
 3464WAT     H210635   1.168   1.507   7.952
 3465WAT      O10636   8.355   0.348   3.638
 3465WAT     H110637   8.283   0.301   3.587
 3465WAT     H210638   8.338   0.446   3.638
 3466WAT      O10639   4.788   2.853   1.550
 3466WAT     H110640   4.782   2.940   1.502
 3466WAT     H210641   4.873   2.850   1.602
 3467WAT      O10642   7.860   0.745   9.358
 3467WAT     H110643   7.950   0.723   9.396
 3467WAT     H210644   7.793   0.679   9.392
 3468WAT      O10645   9.680   8.795   8.819
 3468WAT     H110646   9.599   8.776   8.874
 3468WAT     H210647   9.750   8.726   8.837
 3469WAT      O10648   5.747   7.142   9.574
 3469WAT     H110649   5.721   7.158   9.478
 3469WAT     H210650   5.780   7.227   9.614
 3470WAT      O10651   8.806   3.333   6.074
 3470WAT     H110652   8.763   3.398   6.011
 3470WAT     H210653   8.774   3.241   6.053
 3471WAT      O10654   8.721   1.728   6.792
 3471WAT     H110655   8.688   1.634   6.805
 3471WAT     H210656   8.753   1.739   6.698
 3472WAT      O10657   8.901   8.479   6.981
 3472WAT     H110658   8.969   8.518   6.918
 3472WAT     H210659   8.927   8.386   7.006
 3473WAT      O10660   6.811   9.187   8.585
 3473WAT     H110661   6.866   9.216   8.664
 3473WAT     H210662   6.754   9.109   8.610
 3474WAT      O10663   0.344   4.519   5.934
 3474WAT     H110664   0.250   4.552   5.941
 3474WAT     H210665   0.401   4.588   5.890
 3475WAT      O10666   8.917   3.543   1.435
 3475WAT     H110667   8.897   3.569   1.341
 3475WAT     H210668   8.939   3.625   1.488
 3476WAT      O10669   8.044   8.487   1.105
 3476WAT     H110670   8.141   8.467   1.098
 3476WAT     H210671   8.029   8.585   1.092
 3477WAT      O10672   4.621   8.548   7.829
 3477WAT     H110673   4.592   8.463   7.873
 3477WAT     H210674   4.554   8.575   7.760
 3478WAT      O10675   9.778   1.878   7.588
 3478WAT     H110676   9.687   1.843   7.568
 3478WAT     H210677   9.834   1.875   7.505
 3479WAT      O10678   1.252   5.241   0.174
 3479WAT     H110679   1.324   5.310   0.175
 3479WAT     H210680   1.288   5.157   0.133
 3480WAT      O10681   4.037   0.783   8.088
 3480WAT     H110682   3.997   0.746   8.004
 3480WAT     H210683   3.970   0.841   8.134
 3481WAT      O10684   8.655   3.127   2.299
 3481WAT     H110685   8.753   3.118   2.313
 3481WAT     H210686   8.606   3.094   2.380
 3482WAT      O10687   1.254   4.820   6.210
 3482WAT     H110688   1.308   4.872   6.277
 3482WAT     H210689   1.216   4.739   6.254
 3483WAT      O10690   4.815   1.270   6.768
 3483WAT     H110691   4.744   1.216   6.812
 3483WAT     H210692   4.904   1.247   6.808
 3484WAT      O10693   2.277   1.717   0.821
 3484WAT     H110694   2.351   1.653   0.841
 3484WAT     H210695   2.303   1.775   0.743
 3485WAT      O10696   2.300   8.786   9.721
 3485WAT     H110697   2.290   8.865   9.660
 3485WAT     H210698   2.397   8.772   9.741
 3486WAT      O10699   5.605   9.138   6.611
 3486WAT     H110700   5.702   9.163   6.615
 3486WAT     H210701   5.570   9.156   6.519
 3487WAT      O10702   3.726   5.706   8.176
 3487WAT     H110703   3.641   5.759   8.175
 3487WAT     H210704   3.800   5.761   8.135
 3488WAT      O10705   4.993   1.269   7.552
 3488WAT     H110706   5.013   1.214   7.471
 3488WAT     H210707   4.894   1.286   7.557
 3489WAT      O10708   5.687   1.550   9.052
 3489WAT     H110709   5.594   1.588   9.053
 3489WAT     H210710   5.683   1.453   9.078
 3490WAT      O10711   8.344   7.822   8.602
 3490WAT     H110712   8.341   7.829   8.502
 3490WAT     H210713   8.261   7.776   8.635
 3491WAT      O10714   2.074   2.147   7.067
 3491WAT     H110715   2.103   2.234   7.026
 3491WAT     H210716   2.151   2.106   7.116
 3492WAT      O10717   7.149   5.641   4.647
 3492WAT     H110718   7.143   5.604   4.555
 3492WAT     H210719   7.204   5.580   4.704
 3493WAT      O10720   8.584   0.733   4.762
 3493WAT     H110721   8.506   0.785   4.728
 3493WAT     H210722   8.583   0.641   4.722
 3494WAT      O10723   0.707   7.177   8.373
 3494WAT     H110724   0.697   7.092   8.321
 3494WAT     H210725   0.799   7.213   8.360
 3495WAT      O10726   8.594   1.886   7.253
 3495WAT     H110727   8.528   1.839   7.313
 3495WAT     H210728   8.675   1.829   7.240
 3496WAT      O10729   5.369   6.803   8.103
 3496WAT     H110730   5.462   6.800   8.066
 3496WAT     H210731   5.332   6.711   8.107
 3497WAT      O10732   4.765   8.808   6.666
 3497WAT     H110733   4.776   8.820   6.765
 3497WAT     H210734   4.698   8.873   6.631
 3498WAT      O10735   3.264   3.211   8.937
 3498WAT     H110736   3.352   3.192   8.893
 3498WAT     H210737   3.241   3.136   8.999
 3499WAT      O10738   9.501   4.210   6.446
 3499WAT     H110739   9.425   4.249   6.498
 3499WAT     H210740   9.556   4.283   6.407
 3500WAT      O10741   5.975   3.657   9.387
 3500WAT     H110742   6.010   3.681   9.297
 3500WAT     H210743   5.991   3.732   9.451
 3501WAT      O10744   5.192   0.061   0.732
 3501WAT     H110745   5.151   0.127   0.669
 3501WAT     H210746   5.260   0.107   0.789
 3502WAT      O10747   6.540   4.864   4.586
 3502WAT     H110748   6.638   4.876   4.572
 3502WAT     H210749   6.492   4.948   4.563
 3503WAT      O10750   5.434   3.333   0.395
 3503WAT     H110751   5.469   3.424   0.418
 3503WAT     H210752   5.444   3.273   0.474
 3504WAT      O10753   9.274   2.869   8.425
 3504WAT     H110754   9.268   2.851   8.523
 3504WAT     H210755   9.223   2.799   8.375
 3505WAT      O10756   6.187   0.648   2.698
 3505WAT     H110757   6.108   0.624   2.643
 3505WAT     H210758   6.157   0.698   2.780
 3506WAT      O10759   9.007   8.788   2.734
 3506WAT     H110760   9.083   8.795   2.798
 3506WAT     H210761   9.012   8.700   2.685
 3507WAT      O10762   8.957   6.528   2.052
 3507WAT     H110763   9.010   6.611   2.032
 3507WAT     H210764   9.007   6.473   2.120
 3508WAT      O10765   1.528   4.238   5.131
 3508WAT     H110766   1.555   4.144   5.111
 3508WAT     H210767   1.575   4.300   5.069
 3509WAT      O10768   3.036   4.279   1.225
 3509WAT     H110769   3.072   4.296   1.317
 3509WAT     H210770   3.112   4.255   1.164
 3510WAT      O10771   7.783   5.270   4.342
 3510WAT     H110772   7.793   5.174   4.317
 3510WAT     H210773   7.788   5.279   4.442
 3511WAT      O10774   6.944   2.122   6.196
 3511WAT     H110775   7.016   2.190   6.186
 3511WAT     H210776   6.903   2.104   6.107
 3512WAT      O10777   4.894   2.874   5.379
 3512WAT     H110778   4.827   2.801   5.395
 3512WAT     H210779   4.961   2.843   5.312
 3513WAT      O10780   5.053   0.162   3.586
 3513WAT     H110781   5.015   0.238   3.533
 3513WAT     H210782   5.111   0.107   3.527
 3514WAT      O10783   1.529   2.944   3.857
 3514WAT     H110784   1.629   2.947   3.857
 3514WAT     H210785   1.499   2.855   3.823
 3515WAT      O10786   1.994   6.719   5.042
 3515WAT     H110787   1.900   6.751   5.052
 3515WAT     H210788   2.047   6.789   4.994
 3516WAT      O10789   5.752   4.800   7.361
 3516WAT     H110790   5.773   4.885   7.313
 3516WAT     H210791   5.790   4.804   7.453
 3517WAT      O10792   4.479   1.007   1.118
 3517WAT     H110793   4.461   1.062   1.036
 3517WAT     H210794   4.544   1.056   1.177
 3518WAT      O10795   7.665   3.026   6.830
 3518WAT     H110796   7.690   3.105   6.773
 3518WAT     H210797   7.569   3.033   6.855
 3519WAT      O10798   8.718   9.150   8.698
 3519WAT     H110799   8.801   9.129   8.645
 3519WAT     H210800   8.672   9.065   8.722
 3520WAT      O10801   8.631   4.268   6.138
 3520WAT     H110802   8.577   4.352   6.145
 3520WAT     H210803   8.570   4.191   6.122
 3521WAT      O10804   9.842   7.871   6.140
 3521WAT     H110805   9.806   7.960   6.114
 3521WAT     H210806   9.770   7.802   6.129
 3522WAT      O10807   5.864   3.520   8.229
 3522WAT     H110808   5.861   3.501   8.131
 3522WAT     H210809   5.890   3.437   8.279
 3523WAT      O10810   4.170   5.786   5.110
 3523WAT     H110811   4.265   5.798   5.080
 3523WAT     H210812   4.167   5.722   5.186
 3524WAT      O10813   4.235   6.388   8.269
 3524WAT     H110814   4.210   6.309   8.326
 3524WAT     H210815   4.158   6.451   8.262
 3525WAT      O10816   5.368   3.727   5.360
 3525WAT     H110817   5.457   3.684   5.372
 3525WAT     H210818   5.340   3.768   5.447
 3526WAT      O10819   8.986   5.180   4.903
 3526WAT     H110820   8.959   5.154   4.996
 3526WAT     H210821   9.077   5.222   4.905
 3527WAT      O10822   4.103   6.218   9.538
 3527WAT     H110823   4.063   6.129   9.517
 3527WAT     H210824   4.083   6.242   9.633
 3528WAT      O10825   9.125   0.620   4.788
 3528WAT     H110826   9.110   0.619   4.887
 3528WAT     H210827   9.215   0.659   4.768
 3529WAT      O10828   6.223   4.480   5.587
 3529WAT     H110829   6.129   4.445   5.586
 3529WAT     H210830   6.284   4.415   5.543
 3530WAT      O10831   3.006   6.953   4.277
 3530WAT     H110832   3.106   6.966   4.275
 3530WAT     H210833   2.985   6.859   4.303
 3531WAT      O10834   8.062   3.184   4.012
 3531WAT     H110835   8.145   3.143   3.972
 3531WAT     H210836   8.077   3.281   4.026
 3532WAT      O10837   7.062   9.025   4.278
 3532WAT     H110838   7.090   8.939   4.321
 3532WAT     H210839   7.028   9.006   4.186
 3533WAT      O10840   3.106   9.485   2.051
 3533WAT     H110841   3.178   9.452   1.992
 3533WAT     H210842   3.132   9.574   2.090
 3534WAT      O10843   7.607   4.218   5.886
 3534WAT     H110844   7.620   4.254   5.793
 3534WAT     H210845   7.584   4.121   5.881
 3535WAT      O10846   6.540   6.880   4.925
 3535WAT     H110847   6.544   6.893   4.826
 3535WAT     H210848   6.565   6.786   4.948
 3536WAT      O10849   7.670   8.907   1.737
 3536WAT     H110850   7.678   8.816   1.696
 3536WAT     H210851   7.655   8.975   1.666
 3537WAT      O10852   9.535   9.170   2.319
 3537WAT     H110853   9.447   9.137   2.353
 3537WAT     H210854   9.603   9.169   2.393
 3538WAT      O10855   2.328   7.901   5.791
 3538WAT     H110856   2.416   7.944   5.811
 3538WAT     H210857   2.260   7.971   5.769
 3539WAT      O10858   2.839   2.935   1.206
 3539WAT     H110859   2.823   3.031   1.182
 3539WAT     H210860   2.769   2.905   1.270
 3540WAT      O10861   7.121   8.142   8.048
 3540WAT     H110862   7.046   8.205   8.031
 3540WAT     H210863   7.180   8.137   7.968
 3541WAT      O10864   6.616   6.792   7.716
 3541WAT     H110865   6.682   6.858   7.754
 3541WAT     H210866   6.563   6.837   7.643
 3542WAT      O10867   3.885   1.844   1.649
 3542WAT     H110868   3.982   1.824   1.654
 3542WAT     H210869   3.845   1.797   1.570
 3543WAT      O10870   8.407   3.033   1.424
 3543WAT     H110871   8.395   3.038   1.523
 3543WAT     H210872   8.495   3.075   1.399
 3544WAT      O10873   6.002   4.352   5.522
 3544WAT     H110874   5.971   4.356   5.427
 3544WAT     H210875   6.060   4.271   5.534
 3545WAT      O10876   9.260   1.312   8.010
 3545WAT     H110877   9.218   1.371   8.079
 3545WAT     H210878   9.256   1.217   8.041
 3546WAT      O10879   9.475   3.810   2.254
 3546WAT     H110880   9.461   3.726   2.201
 3546WAT     H210881   9.482   3.888   2.191
 3547WAT      O10882   5.256   0.798   2.000
 3547WAT     H110883   5.282   0.709   1.962
 3547WAT     H210884   5.156   0.805   2.004
 3548WAT      O10885   6.711   5.141   7.350
 3548WAT     H110886   6.639   5.072   7.338
 3548WAT     H210887   6.673   5.231   7.331
 3549WAT      O10888   2.209   6.807   6.611
 3549WAT     H110889   2.267   6.827   6.690
 3549WAT     H210890   2.154   6.887   6.588
 3550WAT      O10891   4.144   2.411   9.318
 3550WAT     H110892   4.119   2.507   9.305
 3550WAT     H210893   4.232   2.393   9.274
 3551WAT      O10894   7.868   4.247   9.751
 3551WAT     H110895   7.933   4.263   9.676
 3551WAT     H210896   7.838   4.152   9.749
 3552WAT      O10897   3.895   3.260   5.990
 3552WAT     H110898   3.881   3.318   6.071
 3552WAT     H210899   3.875   3.165   6.014
 3553WAT      O10900   8.549   9.482   7.188
 3553WAT     H110901   8.455   9.449   7.180
 3553WAT     H210902   8.612   9.406   7.170
 3554WAT      O10903   8.069   4.760   9.165
 3554WAT     H110904   8.076   4.793   9.259
 3554WAT     H210905   7.975   4.770   9.132
 3555WAT      O10906   7.423   7.636   0.378
 3555WAT     H110907   7.483   7.667   0.304
 3555WAT     H210908   7.327   7.648   0.350
 3556WAT      O10909   9.012   5.142   0.546
 3556WAT     H110910   9.059   5.164   0.461
 3556WAT     H210911   8.985   5.046   0.546
 3557WAT      O10912   7.471   9.287   4.900
 3557WAT     H110913   7.439   9.206   4.852
 3557WAT     H210914   7.535   9.338   4.843
 3558WAT      O10915   6.424   0.074   1.946
 3558WAT     H110916   6.524   0.072   1.934
 3558WAT     H210917   6.390   0.166   1.928
 3559WAT      O10918   3.764   8.366   1.151
 3559WAT     H110919   3.801   8.457   1.165
 3559WAT     H210920   3.757   8.319   1.238
 3560WAT      O10921   1.303   8.980   4.961
 3560WAT     H110922   1.398   8.980   4.991
 3560WAT     H210923   1.255   9.057   5.001
 3561WAT      O10924   3.721   8.054   9.206
 3561WAT     H110925   3.808   8.092   9.236
 3561WAT     H210926   3.657   8.051   9.283
 3562WAT      O10927   4.747   9.490   5.827
 3562WAT     H110928   4.709   9.527   5.742
 3562WAT     H210929   4.752   9.562   5.896
 3563WAT      O10930   2.077   8.184   6.341
 3563WAT     H110931   2.091   8.085   6.348
 3563WAT     H210932   2.162   8.228   6.311
 3564WAT      O10933   8.879   8.400   1.882
 3564WAT     H110934   8.852   8.413   1.977
 3564WAT     H210935   8.966   8.446   1.865
 3565WAT      O10936   3.573   0.311   5.323
 3565WAT     H110937   3.635   0.236   5.346
 3565WAT     H210938   3.580   0.333   5.226
 3566WAT      O10939   0.294   5.669   2.115
 3566WAT     H110940   0.234   5.589   2.110
 3566WAT     H210941   0.361   5.666   2.041
 3567WAT      O10942   6.856   0.461   7.753
 3567WAT     H110943   6.889   0.497   7.666
 3567WAT     H210944   6.757   0.471   7.758
 3568WAT      O10945   0.267   6.445   7.598
 3568WAT     H110946   0.253   6.478   7.691
 3568WAT     H210947   0.251   6.519   7.533
 3569WAT      O10948   0.621   0.086   1.262
 3569WAT     H110949   0.678   0.163   1.291
 3569WAT     H210950   0.654   0.002   1.305
 3570WAT      O10951   0.406   5.442   7.943
 3570WAT     H110952   0.357   5.390   8.012
 3570WAT     H210953   0.492   5.476   7.981
 3571WAT      O10954   9.005   7.199   8.788
 3571WAT     H110955   8.963   7.225   8.701
 3571WAT     H210956   8.981   7.105   8.810
 3572WAT      O10957   3.333   5.246   9.653
 3572WAT     H110958   3.385   5.279   9.732
 3572WAT     H210959   3.371   5.158   9.623
 3573WAT      O10960   5.107   5.501   2.572
 3573WAT     H110961   5.153   5.478   2.486
 3573WAT     H210962   5.099   5.600   2.581
 3574WAT      O10963   0.861   7.026   0.745
 3574WAT     H110964   0.839   6.997   0.838
 3574WAT     H210965   0.916   6.956   0.700
 3575WAT      O10966   3.071   2.956   2.207
 3575WAT     H110967   3.120   2.952   2.119
 3575WAT     H210968   3.073   2.866   2.250
 3576WAT      O10969   9.740   7.751   4.417
 3576WAT     H110970   9.829   7.713   4.393
 3576WAT     H210971   9.670   7.680   4.407
 3577WAT      O10972   6.558   9.828   3.494
 3577WAT     H110973   6.503   9.744   3.491
 3577WAT     H210974   6.653   9.805   3.513
 3578WAT      O10975   0.244   8.854   7.607
 3578WAT     H110976   0.217   8.940   7.650
 3578WAT     H210977   0.243   8.781   7.676
 3579WAT      O10978   0.949   9.753   6.499
 3579WAT     H110979   1.001   9.759   6.584
 3579WAT     H210980   0.919   9.845   6.472
 3580WAT      O10981   9.751   1.244   0.146
 3580WAT     H110982   9.817   1.283   0.082
 3580WAT     H210983   9.730   1.150   0.119
 3581WAT      O10984   1.667   5.065   6.456
 3581WAT     H110985   1.751   5.079   6.509
 3581WAT     H210986   1.680   4.990   6.392
 3582WAT      O10987   7.436   4.324   1.011
 3582WAT     H110988   7.440   4.289   0.917
 3582WAT     H210989   7.521   4.302   1.058
 3583WAT      O10990   1.630   3.088   7.600
 3583WAT     H110991   1.648   2.992   7.583
 3583WAT     H210992   1.639   3.140   7.514
 3584WAT      O10993   4.035   3.844   5.608
 3584WAT     H110994   3.944   3.881   5.591
 3584WAT     H210995   4.068   3.795   5.526
 3585WAT      O10996   9.848   1.636   6.754
 3585WAT     H110997   9.843   1.567   6.682
 3585WAT     H210998   9.823   1.595   6.841
 3586WAT      O10999   0.618   2.023   5.940
 3586WAT     H111000   0.560   1.993   5.864
 3586WAT     H211001   0.612   1.956   6.014
 3587WAT      O11002   4.917   6.034   9.682
 3587WAT     H111003   4.820   6.026   9.705
 3587WAT     H211004   4.935   5.986   9.596
 3588WAT      O11005   4.854   8.933   2.685
 3588WAT     H111006   4.780   8.970   2.740
 3588WAT     H211007   4.817   8.865   2.621
 3589WAT      O11008   1.269   0.871   0.291
 3589WAT     H111009   1.172   0.863   0.313
 3589WAT     H211010   1.297   0.967   0.297
 3590WAT      O11011   2.421   2.905   7.814
 3590WAT     H111012   2.377   2.889   7.726
 3590WAT     H211013   2.352   2.927   7.882
 3591WAT      O11014   3.850   1.133   9.580
 3591WAT     H111015   3.877   1.225   9.552
 3591WAT     H211016   3.847   1.074   9.499
 3592WAT      O11017   0.801   7.217   1.450
 3592WAT     H111018   0.739   7.252   1.380
 3592WAT     H211019   0.841   7.293   1.501
 3593WAT      O11020   9.709   0.166   6.006
 3593WAT     H111021   9.724   0.187   6.102
 3593WAT     H211022   9.704   0.067   5.993
 3594WAT      O11023   5.823   0.823   0.509
 3594WAT     H111024   5.875   0.749   0.465
 3594WAT     H211025   5.794   0.794   0.600
 3595WAT      O11026   7.321   2.568   0.640
 3595WAT     H111027   7.419   2.552   0.625
 3595WAT     H211028   7.309   2.638   0.710
 3596WAT      O11029   4.956   2.469   1.067
 3596WAT     H111030   4.976   2.372   1.071
 3596WAT     H211031   4.959   2.509   1.159
 3597WAT      O11032   3.313   4.055   1.947
 3597WAT     H111033   3.397   4.055   2.001
 3597WAT     H211034   3.258   4.135   1.972
 3598WAT      O11035   4.317   1.095   2.451
 3598WAT     H111036   4.253   1.093   2.529
 3598WAT     H211037   4.403   1.139   2.480
 3599WAT      O11038   0.078   3.450   0.786
 3599WAT     H111039  -0.018   3.459   0.758
 3599WAT     H211040   0.136   3.444   0.704
 3600WAT      O11041   7.764   5.083   8.152
 3600WAT     H111042   7.742   5.127   8.066
 3600WAT     H211043   7.689   5.095   8.217
 3601WAT      O11044   1.621   7.958   3.308
 3601WAT     H111045   1.575   7.901   3.239
 3601WAT     H211046   1.714   7.977   3.278
 3602WAT      O11047   5.212   7.619   3.417
 3602WAT     H111048   5.148   7.543   3.415
 3602WAT     H211049   5.209   7.663   3.506
 3603WAT      O11050   1.148   7.182   1.211
 3603WAT     H111051   1.113   7.276   1.208
 3603WAT     H211052   1.075   7.120   1.242
 3604WAT      O11053   9.041   7.673   2.243
 3604WAT     H111054   9.099   7.707   2.317
 3604WAT     H211055   9.098   7.642   2.167
 3605WAT      O11056   7.683   4.224   8.372
 3605WAT     H111057   7.710   4.319   8.353
 3605WAT     H211058   7.726   4.194   8.457
 3606WAT      O11059   6.554   1.076   5.921
 3606WAT     H111060   6.564   1.175   5.910
 3606WAT     H211061   6.585   1.029   5.838
 3607WAT      O11062   2.841   6.464   4.101
 3607WAT     H111063   2.825   6.409   4.019
 3607WAT     H211064   2.756   6.508   4.130
 3608WAT      O11065   4.493   2.450   5.718
 3608WAT     H111066   4.577   2.397   5.704
 3608WAT     H211067   4.457   2.431   5.810
 3609WAT      O11068   8.219   4.249   1.941
 3609WAT     H111069   8.312   4.218   1.961
 3609WAT     H211070   8.176   4.186   1.876
 3610WAT      O11071   3.996   1.614   6.470
 3610WAT     H111072   4.019   1.700   6.425
 3610WAT     H211073   3.958   1.550   6.403
 3611WAT      O11074   3.837   4.872   9.790
 3611WAT     H111075   3.739   4.875   9.767
 3611WAT     H211076   3.891   4.866   9.706
 3612WAT      O11077   0.988   5.125   6.353
 3612WAT     H111078   0.942   5.207   6.387
 3612WAT     H211079   1.078   5.150   6.316
 3613WAT      O11080   3.203   2.142   9.830
 3613WAT     H111081   3.214   2.218   9.894
 3613WAT     H211082   3.111   2.104   9.839
 3614WAT      O11083   5.658   9.449   1.110
 3614WAT     H111084   5.627   9.355   1.122
 3614WAT     H211085   5.739   9.450   1.051
 3615WAT      O11086   0.629   4.265   3.711
 3615WAT     H111087   0.669   4.212   3.636
 3615WAT     H211088   0.682   4.250   3.794
 3616WAT      O11089   1.578   4.799   9.660
 3616WAT     H111090   1.506   4.865   9.639
 3616WAT     H211091   1.613   4.760   9.575
 3617WAT      O11092   0.074   8.523   6.155
 3617WAT     H111093   0.068   8.600   6.091
 3617WAT     H211094   0.107   8.442   6.106
 3618WAT      O11095   4.394   0.411   1.018
 3618WAT     H111096   4.389   0.448   0.925
 3618WAT     H211097   4.335   0.464   1.078
 3619WAT      O11098   6.475   8.496   1.220
 3619WAT     H111099   6.484   8.473   1.123
 3619WAT     H211100   6.509   8.421   1.276
 3620WAT      O11101   6.814   8.904   3.691
 3620WAT     H111102   6.824   8.899   3.791
 3620WAT     H211103   6.723   8.873   3.665
 3621WAT      O11104   0.856   2.407   5.877
 3621WAT     H111105   0.927   2.478   5.886
 3621WAT     H211106   0.778   2.431   5.934
 3622WAT      O11107   7.116   3.882   9.852
 3622WAT     H111108   7.085   3.894   9.758
 3622WAT     H211109   7.183   3.807   9.855
 3623WAT      O11110   4.956   5.213   7.687
 3623WAT     H111111   5.018   5.274   7.638
 3623WAT     H211112   5.009   5.150   7.744
 3624WAT      O11113   2.108   5.328   2.973
 3624WAT     H111114   2.029   5.389   2.963
 3624WAT     H211115   2.086   5.256   3.039
 3625WAT      O11116   1.653   3.903   8.470
 3625WAT     H111117   1.596   3.830   8.431
 3625WAT     H211118   1.710   3.942   8.398
 3626WAT      O11119   7.210   2.632   7.024
 3626WAT     H111120   7.259   2.608   6.941
 3626WAT     H211121   7.224   2.562   7.093
 3627WAT      O11122   5.552   0.397   1.935
 3627WAT     H111123   5.475   0.352   1.980
 3627WAT     H211124   5.532   0.494   1.923
 3628WAT      O11125   7.577   1.219   8.431
 3628WAT     H111126   7.538   1.219   8.523
 3628WAT     H211127   7.636   1.299   8.420
 3629WAT      O11128   5.430   7.354   8.550
 3629WAT     H111129   5.332   7.337   8.542
 3629WAT     H211130   5.454   7.436   8.497
 3630WAT      O11131   5.482   2.625   5.209
 3630WAT     H111132   5.406   2.562   5.190
 3630WAT     H211133   5.554   2.611   5.140
 3631WAT      O11134   7.266   7.999   6.922
 3631WAT     H111135   7.341   7.950   6.966
 3631WAT     H211136   7.290   8.096   6.914
 3632WAT      O11137   4.110   3.519   7.928
 3632WAT     H111138   4.026   3.468   7.948
 3632WAT     H211139   4.125   3.587   8.000
 3633WAT      O11140   9.242   6.820   8.123
 3633WAT     H111141   9.206   6.903   8.164
 3633WAT     H211142   9.232   6.744   8.187
 3634WAT      O11143   2.185   2.361   6.894
 3634WAT     H111144   2.242   2.432   6.853
 3634WAT     H211145   2.209   2.272   6.856
 3635WAT      O11146   6.696   3.415   9.042
 3635WAT     H111147   6.604   3.454   9.054
 3635WAT     H211148   6.732   3.387   9.130
 3636WAT      O11149   2.841   5.632   4.298
 3636WAT     H111150   2.758   5.672   4.337
 3636WAT     H211151   2.915   5.699   4.301
 3637WAT      O11152   4.076   5.484   1.103
 3637WAT     H111153   4.155   5.466   1.044
 3637WAT     H211154   4.107   5.509   1.194
 3638WAT      O11155   8.132   8.042   6.542
 3638WAT     H111156   8.175   8.132   6.537
 3638WAT     H211157   8.035   8.050   6.520
 3639WAT      O11158   5.282   2.315   1.208
 3639WAT     H111159   5.343   2.367   1.267
 3639WAT     H211160   5.244   2.238   1.260
 3640WAT      O11161   3.421   5.534   0.889
 3640WAT     H111162   3.501   5.479   0.912
 3640WAT     H211163   3.434   5.578   0.801
 3641WAT      O11164   3.982   3.152   1.593
 3641WAT     H111165   3.951   3.071   1.543
 3641WAT     H211166   3.997   3.227   1.528
 3642WAT      O11167   4.017   4.794   7.709
 3642WAT     H111168   4.101   4.765   7.755
 3642WAT     H211169   3.939   4.747   7.751
 3643WAT      O11170   3.256   0.198   6.599
 3643WAT     H111171   3.235   0.129   6.669
 3643WAT     H211172   3.177   0.258   6.587
 3644WAT      O11173   9.008   7.565   4.635
 3644WAT     H111174   9.103   7.544   4.615
 3644WAT     H211175   9.003   7.646   4.693
 3645WAT      O11176   7.738   9.576   2.910
 3645WAT     H111177   7.728   9.562   2.811
 3645WAT     H211178   7.671   9.643   2.941
 3646WAT      O11179   2.998   1.656   4.709
 3646WAT     H111180   2.913   1.624   4.752
 3646WAT     H211181   3.076   1.618   4.758
 3647WAT      O11182   0.353   9.043   3.819
 3647WAT     H111183   0.394   9.076   3.904
 3647WAT     H211184   0.266   9.091   3.803
 3648WAT      O11185   0.093   7.606   9.714
 3648WAT     H111186   0.071   7.630   9.619
 3648WAT     H211187   0.092   7.688   9.771
 3649WAT      O11188   7.912   7.881   3.655
 3649WAT     H111189   7.862   7.799   3.627
 3649WAT     H211190   7.918   7.944   3.577
 3650WAT      O11191   6.453   0.430   9.128
 3650WAT     H111192   6.381   0.500   9.123
 3650WAT     H211193   6.469   0.406   9.224
 3651WAT      O11194   7.134   7.349   1.525
 3651WAT     H111195   7.103   7.441   1.550
 3651WAT     H211196   7.129   7.337   1.426
 3652WAT      O11197   1.119   0.964   1.782
 3652WAT     H111198   1.106   0.901   1.705
 3652WAT     H211199   1.100   0.917   1.868
 3653WAT      O11200   5.674   3.213   0.556
 3653WAT     H111201   5.702   3.288   0.497
 3653WAT     H211202   5.755   3.170   0.596
 3654WAT      O11203   0.469   0.421   8.498
 3654WAT     H111204   0.437   0.412   8.403
 3654WAT     H211205   0.562   0.458   8.498
 3655WAT      O11206   6.371   6.914   7.079
 3655WAT     H111207   6.282   6.960   7.081
 3655WAT     H211208   6.443   6.982   7.095
 3656WAT      O11209   1.860   0.273   1.007
 3656WAT     H111210   1.768   0.265   1.044
 3656WAT     H211211   1.860   0.249   0.910
 3657WAT      O11212   3.648   7.954   5.267
 3657WAT     H111213   3.720   7.960   5.197
 3657WAT     H211214   3.616   8.046   5.289
 3658WAT      O11215   3.705   6.472   0.951
 3658WAT     H111216   3.723   6.407   1.025
 3658WAT     H211217   3.639   6.541   0.983
 3659WAT      O11218   4.092   5.749   2.996
 3659WAT     H111219   4.074   5.668   3.053
 3659WAT     H211220   4.135   5.820   3.052
 3660WAT      O11221   3.523   6.562   5.834
 3660WAT     H111222   3.596   6.497   5.814
 3660WAT     H211223   3.447   6.548   5.770
 3661WAT      O11224   8.236   2.575   3.537
 3661WAT     H111225   8.254   2.626   3.453
 3661WAT     H211226   8.322   2.538   3.572
 3662WAT      O11227   1.892   8.787   5.259
 3662WAT     H111228   1.960   8.814   5.191
 3662WAT     H211229   1.903   8.689   5.280
 3663WAT      O11230   8.709   9.071   2.605
 3663WAT     H111231   8.682   9.086   2.510
 3663WAT     H211232   8.716   8.973   2.623
 3664WAT      O11233   7.877   4.359   2.010
 3664WAT     H111234   7.960   4.380   1.957
 3664WAT     H211235   7.854   4.437   2.068
 3665WAT      O11236   4.563   5.153   4.311
 3665WAT     H111237   4.537   5.057   4.318
 3665WAT     H211238   4.590   5.187   4.402
 3666WAT      O11239   6.020   7.961   8.784
 3666WAT     H111240   6.000   7.970   8.687
 3666WAT     H211241   5.962   8.024   8.836
 3667WAT      O11242   1.474   5.153   5.855
 3667WAT     H111243   1.506   5.237   5.898
 3667WAT     H211244   1.411   5.175   5.781
 3668WAT      O11245   2.887   7.162   0.856
 3668WAT     H111246   2.899   7.262   0.856
 3668WAT     H211247   2.973   7.119   0.829
 3669WAT      O11248   1.056   5.882   5.184
 3669WAT     H111249   1.141   5.884   5.237
 3669WAT     H211250   1.028   5.787   5.170
 3670WAT      O11251   5.456   5.703   5.435
 3670WAT     H111252   5.361   5.682   5.459
 3670WAT     H211253   5.461   5.793   5.393
 3671WAT      O11254   6.797   0.580   8.838
 3671WAT     H111255   6.733   0.511   8.802
 3671WAT     H211256   6.857   0.537   8.905
 3672WAT      O11257   9.263   2.572   4.409
 3672WAT     H111258   9.348   2.555   4.360
 3672WAT     H211259   9.235   2.667   4.396
 3673WAT      O11260   4.531   4.003   3.602
 3673WAT     H111261   4.513   4.071   3.673
 3673WAT     H211262   4.535   3.912   3.644
 3674WAT      O11263   4.226   4.329   0.517
 3674WAT     H111264   4.292   4.404   0.513
 3674WAT     H211265   4.221   4.283   0.429
 3675WAT      O11266   5.364   3.465   7.511
 3675WAT     H111267   5.400   3.554   7.484
 3675WAT     H211268   5.299   3.476   7.585
 3676WAT      O11269   7.853   1.165   2.738
 3676WAT     H111270   7.780   1.109   2.776
 3676WAT     H211271   7.881   1.129   2.650
 3677WAT      O11272   0.432   2.903   1.064
 3677WAT     H111273   0.348   2.869   1.108
 3677WAT     H211274   0.473   2.829   1.010
 3678WAT      O11275   0.339   0.091   2.476
 3678WAT     H111276   0.376   0.064   2.565
 3678WAT     H211277   0.383   0.174   2.444
 3679WAT      O11278   1.992   9.710   9.686
 3679WAT     H111279   1.974   9.793   9.633
 3679WAT     H211280   2.033   9.735   9.774
 3680WAT      O11281   3.972   5.864   1.824
 3680WAT     H111282   3.942   5.795   1.758
 3680WAT     H211283   4.026   5.820   1.896
 3681WAT      O11284   4.353   4.960   1.628
 3681WAT     H111285   4.272   4.920   1.585
 3681WAT     H211286   4.434   4.906   1.602
 3682WAT      O11287   9.329   5.918   8.226
 3682WAT     H111288   9.299   5.920   8.131
 3682WAT     H211289   9.401   5.850   8.238
 3683WAT      O11290   0.634   9.145   4.759
 3683WAT     H111291   0.563   9.215   4.771
 3683WAT     H211292   0.689   9.167   4.679
 3684WAT      O11293   9.836   3.255   6.998
 3684WAT     H111294   9.833   3.334   7.060
 3684WAT     H211295   9.847   3.171   7.052
 3685WAT      O11296   5.426   9.002   2.998
 3685WAT     H111297   5.447   9.095   3.027
 3685WAT     H211298   5.327   8.988   2.998
 3686WAT      O11299   3.308   0.504   5.262
 3686WAT     H111300   3.270   0.581   5.210
 3686WAT     H211301   3.407   0.513   5.267
 3687WAT      O11302   6.617   0.836   1.990
 3687WAT     H111303   6.594   0.905   2.059
 3687WAT     H211304   6.704   0.793   2.014
 3688WAT      O11305   7.758   8.247   6.045
 3688WAT     H111306   7.822   8.174   6.069
 3688WAT     H211307   7.745   8.249   5.945
 3689WAT      O11308   5.085   2.720   7.325
 3689WAT     H111309   5.109   2.709   7.229
 3689WAT     H211310   4.994   2.760   7.332
 3690WAT      O11311   5.618   6.756   7.989
 3690WAT     H111312   5.678   6.680   8.015
 3690WAT     H211313   5.673   6.839   7.979
 3691WAT      O11314   3.549   9.420   5.069
 3691WAT     H111315   3.473   9.374   5.023
 3691WAT     H211316   3.521   9.511   5.098
 3692WAT      O11317   2.654   9.336   0.360
 3692WAT     H111318   2.587   9.382   0.418
 3692WAT     H211319   2.695   9.402   0.297
 3693WAT      O11320   3.255   7.478   0.567
 3693WAT     H111321   3.302   7.507   0.650
 3693WAT     H211322   3.248   7.378   0.565
 3694WAT      O11323   3.060   7.659   8.929
 3694WAT     H111324   3.072   7.757   8.914
 3694WAT     H211325   3.147   7.618   8.956
 3695WAT      O11326   5.742   8.083   6.869
 3695WAT     H111327   5.818   8.019   6.881
 3695WAT     H211328   5.771   8.175   6.892
 3696WAT      O11329   2.399   1.837   6.721
 3696WAT     H111330   2.356   1.782   6.649
 3696WAT     H211331   2.448   1.914   6.679
 3697WAT      O11332   6.659   1.361   2.379
 3697WAT     H111333   6.617   1.451   2.369
 3697WAT     H211334   6.682   1.325   2.288
 3698WAT      O11335   2.126   2.237   8.712
 3698WAT     H111336   2.170   2.254   8.624
 3698WAT     H211337   2.179   2.170   8.764
 3699WAT      O11338   5.305   2.283   7.788
 3699WAT     H111339   5.362   2.358   7.821
 3699WAT     H211340   5.209   2.304   7.805
 3700WAT      O11341   8.151   9.688   8.797
 3700WAT     H111342   8.234   9.742   8.806
 3700WAT     H211343   8.161   9.602   8.847
 3701WAT      O11344   8.600   9.845   6.259
 3701WAT     H111345   8.618   9.771   6.194
 3701WAT     H211346   8.581   9.806   6.349
 3702WAT      O11347   4.999   5.558   6.718
 3702WAT     H111348   4.940   5.598   6.787
 3702WAT     H211349   4.946   5.495   6.660
 3703WAT      O11350   1.174   0.271   9.147
 3703WAT     H111351   1.215   0.310   9.064
 3703WAT     H211352   1.074   0.272   9.138
 3704WAT      O11353   9.648   9.755   8.667
 3704WAT     H111354   9.748   9.754   8.660
 3704WAT     H211355   9.613   9.844   8.636
 3705WAT      O11356   5.421   3.173   9.362
 3705WAT     H111357   5.510   3.148   9.325
 3705WAT     H211358   5.350   3.117   9.319
 3706WAT      O11359   4.415   4.983   9.791
 3706WAT     H111360   4.468   5.044   9.733
 3706WAT     H211361   4.319   4.985   9.763
 3707WAT      O11362   5.242   3.499   8.699
 3707WAT     H111363   5.308   3.516   8.771
 3707WAT     H211364   5.163   3.450   8.736
 3708WAT      O11365   1.839   4.200   9.720
 3708WAT     H111366   1.815   4.249   9.636
 3708WAT     H211367   1.860   4.266   9.792
 3709WAT      O11368   2.292   1.018   4.923
 3709WAT     H111369   2.359   1.064   4.981
 3709WAT     H211370   2.207   1.072   4.922
 3710WAT      O11371   9.035   3.630   3.042
 3710WAT     H111372   9.089   3.691   3.100
 3710WAT     H211373   8.947   3.673   3.022
 3711WAT      O11374   5.650   2.069   2.834
 3711WAT     H111375   5.616   2.103   2.921
 3711WAT     H211376   5.701   1.985   2.848
 3712WAT      O11377   8.942   8.576   9.277
 3712WAT     H111378   8.849   8.593   9.310
 3712WAT     H211379   9.006   8.589   9.352
 3713WAT      O11380   5.922   2.175   2.249
 3713WAT     H111381   5.873   2.091   2.230
 3713WAT     H211382   5.996   2.157   2.314
 3714WAT      O11383   9.534   6.400   9.415
 3714WAT     H111384   9.515   6.302   9.406
 3714WAT     H211385   9.449   6.449   9.436
 3715WAT      O11386   0.694   9.594   0.761
 3715WAT     H111387   0.735   9.617   0.673
 3715WAT     H211388   0.608   9.546   0.746
 3716WAT      O11389   1.861   3.877   4.674
 3716WAT     H111390   1.861   3.789   4.627
 3716WAT     H211391   1.880   3.950   4.608
 3717WAT      O11392   0.927   3.519   6.268
 3717WAT     H111393   0.969   3.546   6.354
 3717WAT     H211394   0.958   3.580   6.195
 3718WAT      O11395   0.126   4.229   6.027
 3718WAT     H111396   0.166   4.315   5.996
 3718WAT     H211397   0.149   4.215   6.124
 3719WAT      O11398   4.331   6.998   4.142
 3719WAT     H111399   4.380   7.011   4.056
 3719WAT     H211400   4.396   7.007   4.218
 3720WAT      O11401   9.524   8.217   5.948
 3720WAT     H111402   9.624   8.214   5.949
 3720WAT     H211403   9.492   8.289   6.010
 3721WAT      O11404   4.505   4.113   9.158
 3721WAT     H111405   4.408   4.091   9.168
 3721WAT     H211406   4.556   4.073   9.234
 3722WAT      O11407   1.959   4.019   1.071
 3722WAT     H111408   1.889   3.999   1.004
 3722WAT     H211409   2.045   3.974   1.045
 3723WAT      O11410   1.694   7.352   1.465
 3723WAT     H111411   1.764   7.282   1.484
 3723WAT     H211412   1.607   7.324   1.506
 3724WAT      O11413   7.745   2.445   9.656
 3724WAT     H111414   7.749   2.375   9.585
 3724WAT     H211415   7.692   2.410   9.733
 3725WAT      O11416   2.016   7.974   2.209
 3725WAT     H111417   1.970   7.947   2.293
 3725WAT     H211418   2.037   7.893   2.154
 3726WAT      O11419   3.203   1.732   9.191
 3726WAT     H111420   3.189   1.656   9.254
 3726WAT     H211421   3.279   1.789   9.224
 3727WAT      O11422   1.470   2.819   6.027
 3727WAT     H111423   1.493   2.764   6.107
 3727WAT     H211424   1.549   2.821   5.964
 3728WAT      O11425   6.318   0.200   9.439
 3728WAT     H111426   6.299   0.124   9.377
 3728WAT     H211427   6.411   0.190   9.476
 3729WAT      O11428   0.916   1.507   5.667
 3729WAT     H111429   0.901   1.582   5.602
 3729WAT     H211430   0.989   1.533   5.731
 3730WAT      O11431   9.413   8.946   4.839
 3730WAT     H111432   9.479   9.021   4.847
 3730WAT     H211433   9.365   8.954   4.751
 3731WAT      O11434   3.697   0.633   5.097
 3731WAT     H111435   3.788   0.675   5.099
 3731WAT     H211436   3.638   0.685   5.034
 3732WAT      O11437   0.399   0.078   1.976
 3732WAT     H111438   0.487   0.075   1.928
 3732WAT     H211439   0.367   0.172   1.982
 3733WAT      O11440   1.558   4.202   8.070
 3733WAT     H111441   1.606   4.115   8.056
 3733WAT     H211442   1.614   4.277   8.035
 3734WAT      O11443   8.471   3.176   2.038
 3734WAT     H111444   8.527   3.256   2.016
 3734WAT     H211445   8.479   3.156   2.136
 3735WAT      O11446   2.807   8.698   4.852
 3735WAT     H111447   2.905   8.678   4.858
 3735WAT     H211448   2.784   8.773   4.915
 3736WAT      O11449   3.738   6.694   8.550
 3736WAT     H111450   3.797   6.764   8.589
 3736WAT     H211451   3.786   6.649   8.474
 3737WAT      O11452   2.751   8.896   4.308
 3737WAT     H111453   2.794   8.895   4.218
 3737WAT     H211454   2.808   8.845   4.373
 3738WAT      O11455   8.032   9.250   7.338
 3738WAT     H111456   8.042   9.164   7.388
 3738WAT     H211457   8.122   9.279   7.303
 3739WAT      O11458   5.461   4.566   5.279
 3739WAT     H111459   5.432   4.475   5.309
 3739WAT     H211460   5.461   4.629   5.357
 3740WAT      O11461   2.057   4.844   0.588
 3740WAT     H111462   1.973   4.894   0.608
 3740WAT     H211463   2.094   4.805   0.673
 3741WAT      O11464   0.104   3.599   4.647
 3741WAT     H111465   0.157   3.571   4.567
 3741WAT     H211466   0.065   3.690   4.630
 3742WAT      O11467   5.571   7.088   1.607
 3742WAT     H111468   5.548   7.045   1.694
 3742WAT     H211469   5.658   7.137   1.617
 3743WAT      O11470   5.122   2.427   4.857
 3743WAT     H111471   5.099   2.342   4.904
 3743WAT     H211472   5.038   2.473   4.829
 3744WAT      O11473   7.508   2.831   0.526
 3744WAT     H111474   7.412   2.843   0.549
 3744WAT     H211475   7.516   2.769   0.447
 3745WAT      O11476   2.092   2.388   6.560
 3745WAT     H111477   2.088   2.289   6.552
 3745WAT     H211478   2.058   2.430   6.476
 3746WAT      O11479   5.554   5.974   3.178
 3746WAT     H111480   5.557   6.056   3.235
 3746WAT     H211481   5.460   5.940   3.173
 3747WAT      O11482   3.590   5.245   5.944
 3747WAT     H111483   3.634   5.332   5.963
 3747WAT     H211484   3.491   5.258   5.937
 3748WAT      O11485   0.794   8.099   5.480
 3748WAT     H111486   0.769   8.160   5.405
 3748WAT     H211487   0.712   8.057   5.519
 3749WAT      O11488   6.352   8.158   3.481
 3749WAT     H111489   6.302   8.097   3.542
 3749WAT     H211490   6.378   8.108   3.398
 3750WAT      O11491   5.515   9.166   6.362
 3750WAT     H111492   5.569   9.147   6.281
 3750WAT     H211493   5.453   9.242   6.344
 3751WAT      O11494   4.423   9.066   5.878
 3751WAT     H111495   4.340   9.049   5.825
 3751WAT     H211496   4.497   9.009   5.841
 3752WAT      O11497   3.919   2.128   3.822
 3752WAT     H111498   3.931   2.137   3.723
 3752WAT     H211499   4.005   2.151   3.868
 3753WAT      O11500   3.893   3.963   8.925
 3753WAT     H111501   3.889   3.864   8.909
 3753WAT     H211502   3.984   3.996   8.901
 3754WAT      O11503   5.236   1.398   7.914
 3754WAT     H111504   5.176   1.454   7.973
 3754WAT     H211505   5.297   1.343   7.971
 3755WAT      O11506   5.384   0.886   5.244
 3755WAT     H111507   5.471   0.856   5.204
 3755WAT     H211508   5.391   0.981   5.273
 3756WAT      O11509   0.844   4.289   8.785
 3756WAT     H111510   0.773   4.245   8.840
 3756WAT     H211511   0.904   4.219   8.747
 3757WAT      O11512   0.677   6.374   6.342
 3757WAT     H111513   0.612   6.299   6.355
 3757WAT     H211514   0.727   6.360   6.256
 3758WAT      O11515   5.943   8.701   7.717
 3758WAT     H111516   5.931   8.614   7.669
 3758WAT     H211517   5.855   8.747   7.726
 3759WAT      O11518   4.073   1.382   8.656
 3759WAT     H111519   4.034   1.474   8.663
 3759WAT     H211520   4.119   1.359   8.742
 3760WAT      O11521   3.506   0.701   6.045
 3760WAT     H111522   3.590   0.742   6.081
 3760WAT     H211523   3.502   0.605   6.071
 3761WAT      O11524   6.013   5.895   9.095
 3761WAT     H111525   6.036   5.799   9.110
 3761WAT     H211526   5.943   5.901   9.024
 3762WAT      O11527   1.290   1.177   6.139
 3762WAT     H111528   1.290   1.105   6.069
 3762WAT     H211529   1.381   1.218   6.146
 3763WAT      O11530   1.074   2.656   3.676
 3763WAT     H111531   1.008   2.625   3.745
 3763WAT     H211532   1.130   2.729   3.714
 3764WAT      O11533   3.555   6.355   1.489
 3764WAT     H111534   3.550   6.443   1.442
 3764WAT     H211535   3.651   6.331   1.504
 3765WAT      O11536   2.429   8.105   1.361
 3765WAT     H111537   2.524   8.122   1.334
 3765WAT     H211538   2.368   8.141   1.291
 3766WAT      O11539   4.974   4.393   0.825
 3766WAT     H111540   4.969   4.372   0.728
 3766WAT     H211541   4.963   4.491   0.840
 3767WAT      O11542   9.501   4.568   7.809
 3767WAT     H111543   9.410   4.597   7.779
 3767WAT     H211544   9.562   4.646   7.810
 3768WAT      O11545   3.834   9.617   3.725
 3768WAT     H111546   3.841   9.701   3.779
 3768WAT     H211547   3.920   9.602   3.675
 3769WAT      O11548   9.385   8.312   0.229
 3769WAT     H111549   9.466   8.367   0.250
 3769WAT     H211550   9.306   8.352   0.274
 3770WAT      O11551   5.887   5.316   8.961
 3770WAT     H111552   5.862   5.351   8.871
 3770WAT     H211553   5.880   5.390   9.028
 3771WAT      O11554   8.291   4.573   1.697
 3771WAT     H111555   8.350   4.518   1.637
 3771WAT     H211556   8.195   4.557   1.672
 3772WAT      O11557   4.470   4.211   3.788
 3772WAT     H111558   4.533   4.265   3.844
 3772WAT     H211559   4.428   4.271   3.719
 3773WAT      O11560   5.974   6.242   5.226
 3773WAT     H111561   5.875   6.252   5.233
 3773WAT     H211562   6.009   6.305   5.156
 3774WAT      O11563   4.958   3.771   4.671
 3774WAT     H111564   4.864   3.797   4.650
 3774WAT     H211565   4.961   3.674   4.696
 3775WAT      O11566   3.626   7.429   9.735
 3775WAT     H111567   3.530   7.403   9.732
 3775WAT     H211568   3.681   7.361   9.686
 3776WAT      O11569   3.888   2.030   7.110
 3776WAT     H111570   3.826   2.043   7.032
 3776WAT     H211571   3.942   2.113   7.124
 3777WAT      O11572   3.338   7.973   9.209
 3777WAT     H111573   3.243   7.999   9.191
 3777WAT     H211574   3.389   7.975   9.123
 3778WAT      O11575   1.275   8.372   7.075
 3778WAT     H111576   1.330   8.345   6.996
 3778WAT     H211577   1.244   8.291   7.124
 3779WAT      O11578   6.193   5.559   3.118
 3779WAT     H111579   6.119   5.584   3.055
 3779WAT     H211580   6.208   5.460   3.114
 3780WAT      O11581   2.807   1.263   0.756
 3780WAT     H111582   2.805   1.163   0.761
 3780WAT     H211583   2.735   1.294   0.694
 3781WAT      O11584   2.757   2.403   3.186
 3781WAT     H111585   2.721   2.445   3.103
 3781WAT     H211586   2.778   2.474   3.253
 3782WAT      O11587   2.290   0.663   7.726
 3782WAT     H111588   2.347   0.731   7.772
 3782WAT     H211589   2.199   0.662   7.767
 3783WAT      O11590   6.464   6.966   7.485
 3783WAT     H111591   6.391   6.925   7.431
 3783WAT     H211592   6.525   7.018   7.426
 3784WAT      O11593   6.150   2.476   8.165
 3784WAT     H111594   6.102   2.515   8.087
 3784WAT     H211595   6.133   2.533   8.246
 3785WAT      O11596   1.871   4.053   2.725
 3785WAT     H111597   1.909   3.963   2.703
 3785WAT     H211598   1.925   4.124   2.678
 3786WAT      O11599   5.098   3.966   7.346
 3786WAT     H111600   5.194   3.959   7.318
 3786WAT     H211601   5.039   3.931   7.274
 3787WAT      O11602   7.039   1.739   2.494
 3787WAT     H111603   6.998   1.702   2.411
 3787WAT     H211604   7.023   1.677   2.570
 3788WAT      O11605   9.827   1.395   6.323
 3788WAT     H111606   9.819   1.446   6.237
 3788WAT     H211607   9.822   1.297   6.305
 3789WAT      O11608   0.357   8.283   7.236
 3789WAT     H111609   0.436   8.338   7.208
 3789WAT     H211610   0.383   8.187   7.237
 3790WAT      O11611   3.453   6.426   5.035
 3790WAT     H111612   3.522   6.358   5.009
 3790WAT     H211613   3.419   6.404   5.126
 3791WAT      O11614   9.276   2.038   3.348
 3791WAT     H111615   9.271   2.046   3.448
 3791WAT     H211616   9.302   1.945   3.323
 3792WAT      O11617   3.043   8.789   2.067
 3792WAT     H111618   3.086   8.723   2.128
 3792WAT     H211619   2.944   8.780   2.072
 3793WAT      O11620   8.586   1.235   2.808
 3793WAT     H111621   8.662   1.257   2.870
 3793WAT     H211622   8.622   1.190   2.726
 3794WAT      O11623   7.262   9.718   9.796
 3794WAT     H111624   7.316   9.643   9.833
 3794WAT     H211625   7.174   9.683   9.763
 3795WAT      O11626   9.014   8.771   4.108
 3795WAT     H111627   8.996   8.719   4.192
 3795WAT     H211628   8.978   8.863   4.118
 3796WAT      O11629   1.107   5.464   3.948
 3796WAT     H111630   1.111   5.368   3.920
 3796WAT     H211631   1.024   5.480   4.001
 3797WAT      O11632   3.245   5.079   6.062
 3797WAT     H111633   3.291   5.147   6.120
 3797WAT     H211634   3.285   5.080   5.971
 3798WAT      O11635   4.860   7.841   7.514
 3798WAT     H111636   4.924   7.880   7.580
 3798WAT     H211637   4.891   7.751   7.485
 3799WAT      O11638   7.762   5.204   0.671
 3799WAT     H111639   7.712   5.128   0.631
 3799WAT     H211640   7.757   5.200   0.771
 3800WAT      O11641   2.860   5.123   7.338
 3800WAT     H111642   2.878   5.179   7.257
 3800WAT     H211643   2.929   5.051   7.345
 3801WAT      O11644   3.307   8.497   8.214
 3801WAT     H111645   3.322   8.522   8.310
 3801WAT     H211646   3.346   8.406   8.198
 3802WAT      O11647   4.567   4.583   6.581
 3802WAT     H111648   4.586   4.543   6.671
 3802WAT     H211649   4.637   4.651   6.560
 3803WAT      O11650   9.775   8.908   3.953
 3803WAT     H111651   9.779   8.961   4.037
 3803WAT     H211652   9.696   8.938   3.898
 3804WAT      O11653   0.148   5.780   2.486
 3804WAT     H111654   0.107   5.846   2.550
 3804WAT     H211655   0.216   5.725   2.535
 3805WAT      O11656   8.759   5.062   8.569
 3805WAT     H111657   8.822   5.137   8.549
 3805WAT     H211658   8.675   5.075   8.516
 3806WAT      O11659   3.966   8.736   2.446
 3806WAT     H111660   3.899   8.811   2.447
 3806WAT     H211661   3.920   8.650   2.423
 3807WAT      O11662   5.547   2.794   3.132
 3807WAT     H111663   5.613   2.730   3.173
 3807WAT     H211664   5.462   2.792   3.184
 3808WAT      O11665   0.220   3.374   9.602
 3808WAT     H111666   0.158   3.404   9.529
 3808WAT     H211667   0.202   3.427   9.685
 3809WAT      O11668   2.278   1.469   2.661
 3809WAT     H111669   2.182   1.488   2.640
 3809WAT     H211670   2.290   1.459   2.759
 3810WAT      O11671   0.496   2.815   7.469
 3810WAT     H111672   0.565   2.745   7.486
 3810WAT     H211673   0.410   2.788   7.511
 3811WAT      O11674   4.398   7.513   7.613
 3811WAT     H111675   4.478   7.528   7.554
 3811WAT     H211676   4.361   7.422   7.597
 3812WAT      O11677   5.261   9.303   2.976
 3812WAT     H111678   5.205   9.370   2.926
 3812WAT     H211679   5.214   9.215   2.976
 3813WAT      O11680   4.461   7.276   2.761
 3813WAT     H111681   4.553   7.310   2.743
 3813WAT     H211682   4.456   7.239   2.854
 3814WAT      O11683   7.026   6.019   1.644
 3814WAT     H111684   7.035   5.921   1.632
 3814WAT     H211685   7.029   6.042   1.741
 3815WAT      O11686   4.200   3.682   6.428
 3815WAT     H111687   4.292   3.648   6.448
 3815WAT     H211688   4.138   3.656   6.502
 3816WAT      O11689   5.495   7.339   1.075
 3816WAT     H111690   5.554   7.371   1.149
 3816WAT     H211691   5.457   7.417   1.026
 3817WAT      O11692   7.156   7.420   1.230
 3817WAT     H111693   7.112   7.503   1.264
 3817WAT     H211694   7.138   7.410   1.132
 3818WAT      O11695   5.158   2.528   1.461
 3818WAT     H111696   5.078   2.512   1.403
 3818WAT     H211697   5.238   2.545   1.404
 3819WAT      O11698   5.145   7.313   5.237
 3819WAT     H111699   5.141   7.408   5.206
 3819WAT     H211700   5.237   7.293   5.270
 3820WAT      O11701   0.108   0.809   9.389
 3820WAT     H111702   0.069   0.827   9.299
 3820WAT     H211703   0.042   0.761   9.446
 3821WAT      O11704   3.208   6.699   3.887
 3821WAT     H111705   3.250   6.672   3.800
 3821WAT     H211706   3.280   6.723   3.952
 3822WAT      O11707   7.549   7.787   2.311
 3822WAT     H111708   7.499   7.849   2.251
 3822WAT     H211709   7.530   7.809   2.406
 3823WAT      O11710   4.809   6.988   7.156
 3823WAT     H111711   4.780   6.925   7.228
 3823WAT     H211712   4.805   6.941   7.067
 3824WAT      O11713   3.842   0.826   1.052
 3824WAT     H111714   3.938   0.799   1.044
 3824WAT     H211715   3.832   0.923   1.031
 3825WAT      O11716   0.950   1.711   5.971
 3825WAT     H111717   0.921   1.806   5.962
 3825WAT     H211718   0.874   1.651   5.947
 3826WAT      O11719   4.887   4.715   2.020
 3826WAT     H111720   4.974   4.674   1.996
 3826WAT     H211721   4.831   4.727   1.938
 3827WAT      O11722   1.567   5.616   4.587
 3827WAT     H111723   1.535   5.675   4.514
 3827WAT     H211724   1.492   5.600   4.652
 3828WAT      O11725   3.737   0.108   8.941
 3828WAT     H111726   3.703   0.200   8.963
 3828WAT     H211727   3.805   0.081   9.009
 3829WAT      O11728   2.301   1.616   7.496
 3829WAT     H111729   2.391   1.575   7.509
 3829WAT     H211730   2.256   1.573   7.417
 3830WAT      O11731   5.692   1.134   0.860
 3830WAT     H111732   5.772   1.120   0.802
 3830WAT     H211733   5.617   1.075   0.829
 3831WAT      O11734   6.456   6.412   0.491
 3831WAT     H111735   6.489   6.493   0.539
 3831WAT     H211736   6.369   6.383   0.530
 3832WAT      O11737   5.892   3.392   0.023
 3832WAT     H111738   5.938   3.325   0.081
 3832WAT     H211739   5.794   3.390   0.041
 3833WAT      O11740   3.620   9.610   7.785
 3833WAT     H111741   3.673   9.529   7.759
 3833WAT     H211742   3.672   9.664   7.851
 3834WAT      O11743   7.688   9.457   2.143
 3834WAT     H111744   7.767   9.452   2.205
 3834WAT     H211745   7.643   9.368   2.140
 3835WAT      O11746   4.987   6.449   9.147
 3835WAT     H111747   5.017   6.510   9.220
 3835WAT     H211748   5.058   6.445   9.076
 3836WAT      O11749   6.670   4.357   2.839
 3836WAT     H111750   6.745   4.356   2.905
 3836WAT     H211751   6.701   4.315   2.753
 3837WAT      O11752   9.113   6.409   9.034
 3837WAT     H111753   9.204   6.395   9.074
 3837WAT     H211754   9.052   6.448   9.103
 3838WAT      O11755   3.409   6.687   3.305
 3838WAT     H111756   3.339   6.633   3.258
 3838WAT     H211757   3.442   6.760   3.244
 3839WAT      O11758   6.042   7.429   3.243
 3839WAT     H111759   6.105   7.353   3.227
 3839WAT     H211760   6.008   7.426   3.337
 3840WAT      O11761   0.187   1.943   7.147
 3840WAT     H111762   0.269   2.000   7.140
 3840WAT     H211763   0.119   1.977   7.082
 3841WAT      O11764   7.818   4.257   2.653
 3841WAT     H111765   7.759   4.248   2.733
 3841WAT     H211766   7.772   4.311   2.583
 3842WAT      O11767   4.481   3.066   0.043
 3842WAT     H111768   4.393   3.074  -0.004
 3842WAT     H211769   4.488   2.976   0.086
 3843WAT      O11770   5.949   7.691   8.932
 3843WAT     H111771   5.943   7.765   8.866
 3843WAT     H211772   5.987   7.610   8.888
 3844WAT      O11773   1.953   7.665   5.729
 3844WAT     H111774   1.908   7.708   5.650
 3844WAT     H211775   1.957   7.566   5.715
 3845WAT      O11776   8.897   1.239   3.999
 3845WAT     H111777   8.847   1.304   4.055
 3845WAT     H211778   8.844   1.156   3.988
 3846WAT      O11779   5.099   7.285   3.064
 3846WAT     H111780   5.022   7.279   3.000
 3846WAT     H211781   5.185   7.286   3.014
 3847WAT      O11782   0.787   7.258   9.183
 3847WAT     H111783   0.854   7.308   9.239
 3847WAT     H211784   0.695   7.280   9.214
 3848WAT      O11785   4.801   4.600   0.591
 3848WAT     H111786   4.725   4.660   0.564
 3848WAT     H211787   4.866   4.652   0.646
 3849WAT      O11788   3.794   8.224   2.075
 3849WAT     H111789   3.764   8.274   2.156
 3849WAT     H211790   3.742   8.256   1.995
 3850WAT      O11791   6.392   8.969   4.022
 3850WAT     H111792   6.312   8.960   3.962
 3850WAT     H211793   6.469   9.004   3.969
 3851WAT      O11794   1.690   4.933   8.259
 3851WAT     H111795   1.763   4.984   8.213
 3851WAT     H211796   1.699   4.836   8.238
 3852WAT      O11797   3.903   4.333   1.128
 3852WAT     H111798   3.929   4.290   1.215
 3852WAT     H211799   3.945   4.423   1.122
 3853WAT      O11800   5.636   7.591   6.257
 3853WAT     H111801   5.540   7.601   6.229
 3853WAT     H211802   5.685   7.676   6.239
 3854WAT      O11803   8.411   7.758   3.483
 3854WAT     H111804   8.320   7.795   3.463
 3854WAT     H211805   8.411   7.715   3.574
 3855WAT      O11806   3.621   8.776   2.608
 3855WAT     H111807   3.656   8.683   2.597
 3855WAT     H211808   3.581   8.786   2.699
 3856WAT      O11809   3.807   0.113   1.649
 3856WAT     H111810   3.753   0.073   1.575
 3856WAT     H211811   3.864   0.187   1.612
 3857WAT      O11812   1.813   7.507   4.286
 3857WAT     H111813   1.729   7.539   4.331
 3857WAT     H211814   1.889   7.512   4.351
 3858WAT      O11815   9.309   2.964   0.691
 3858WAT     H111816   9.313   3.029   0.616
 3858WAT     H211817   9.213   2.944   0.713
 3859WAT      O11818   4.571   3.811   1.921
 3859WAT     H111819   4.615   3.748   1.858
 3859WAT     H211820   4.634   3.832   1.996
 3860WAT      O11821   8.735   6.272   2.609
 3860WAT     H111822   8.703   6.316   2.693
 3860WAT     H211823   8.663   6.214   2.572
 3861WAT      O11824   0.741   6.803   6.313
 3861WAT     H111825   0.813   6.737   6.291
 3861WAT     H211826   0.655   6.754   6.328
 3862WAT      O11827   6.933   2.473   2.592
 3862WAT     H111828   6.890   2.489   2.503
 3862WAT     H211829   6.912   2.549   2.653
 3863WAT      O11830   7.154   4.884   8.995
 3863WAT     H111831   7.166   4.870   9.094
 3863WAT     H211832   7.238   4.856   8.948
 3864WAT      O11833   9.474   5.882   4.473
 3864WAT     H111834   9.531   5.950   4.427
 3864WAT     H211835   9.428   5.826   4.405
 3865WAT      O11836   6.726   0.024   2.644
 3865WAT     H111837   6.698  -0.001   2.551
 3865WAT     H211838   6.646   0.031   2.703
 3866WAT      O11839   0.217   7.069   6.694
 3866WAT     H111840   0.143   7.043   6.632
 3866WAT     H211841   0.181   7.081   6.787
 3867WAT      O11842   7.441   7.942   2.127
 3867WAT     H111843   7.515   7.983   2.075
 3867WAT     H211844   7.391   8.013   2.177
 3868WAT      O11845   9.192   0.346   0.498
 3868WAT     H111846   9.287   0.345   0.528
 3868WAT     H211847   9.135   0.299   0.566
 3869WAT      O11848   3.854   8.211   4.625
 3869WAT     H111849   3.926   8.141   4.629
 3869WAT     H211850   3.771   8.171   4.589
 3870WAT      O11851   5.892   5.814   7.652
 3870WAT     H111852   5.834   5.872   7.709
 3870WAT     H211853   5.912   5.861   7.566
 3871WAT      O11854   8.777   2.186   4.891
 3871WAT     H111855   8.875   2.201   4.905
 3871WAT     H211856   8.744   2.118   4.956
 3872WAT      O11857   0.257   2.802   8.238
 3872WAT     H111858   0.286   2.765   8.326
 3872WAT     H211859   0.186   2.744   8.199
 3873WAT      O11860   0.095   5.307   6.134
 3873WAT     H111861   0.089   5.216   6.092
 3873WAT     H211862   0.005   5.333   6.170
 3874WAT      O11863   0.992   3.792   7.126
 3874WAT     H111864   0.909   3.832   7.089
 3874WAT     H211865   0.969   3.731   7.202
 3875WAT      O11866   5.355   8.406   9.248
 3875WAT     H111867   5.293   8.484   9.240
 3875WAT     H211868   5.425   8.411   9.178
 3876WAT      O11869   5.202   2.557   9.163
 3876WAT     H111870   5.162   2.563   9.254
 3876WAT     H211871   5.129   2.542   9.096
 3877WAT      O11872   7.872   5.995   1.351
 3877WAT     H111873   7.774   5.985   1.364
 3877WAT     H211874   7.918   5.907   1.366
 3878WAT      O11875   6.973   0.449   0.403
 3878WAT     H111876   6.893   0.400   0.438
 3878WAT     H211877   6.952   0.487   0.312
 3879WAT      O11878   1.656   6.583   1.784
 3879WAT     H111879   1.716   6.552   1.710
 3879WAT     H211880   1.681   6.676   1.810
 3880WAT      O11881   9.354   9.262   6.793
 3880WAT     H111882   9.350   9.180   6.850
 3880WAT     H211883   9.440   9.310   6.810
 3881WAT      O11884   6.395   5.918   2.452
 3881WAT     H111885   6.419   6.008   2.489
 3881WAT     H211886   6.479   5.870   2.427
 3882WAT      O11887   0.382   8.383   9.470
 3882WAT     H111888   0.422   8.353   9.384
 3882WAT     H211889   0.319   8.458   9.453
 3883WAT      O11890   3.802   0.447   4.805
 3883WAT     H111891   3.867   0.487   4.740
 3883WAT     H211892   3.711   0.483   4.787
 3884WAT      O11893   4.712   6.308   6.221
 3884WAT     H111894   4.799   6.331   6.263
 3884WAT     H211895   4.695   6.210   6.230
 3885WAT      O11896   6.562   5.601   4.641
 3885WAT     H111897   6.514   5.531   4.588
 3885WAT     H211898   6.571   5.684   4.586
 3886WAT      O11899   1.876   5.693   4.019
 3886WAT     H111900   1.854   5.724   3.927
 3886WAT     H211901   1.896   5.771   4.078
 3887WAT      O11902   7.566   7.657   3.856
 3887WAT     H111903   7.584   7.609   3.942
 3887WAT     H211904   7.468   7.662   3.840
 3888WAT      O11905   2.840   3.462   4.788
 3888WAT     H111906   2.870   3.558   4.795
 3888WAT     H211907   2.911   3.402   4.824
 3889WAT      O11908   7.521   0.476   8.955
 3889WAT     H111909   7.585   0.401   8.971
 3889WAT     H211910   7.517   0.535   9.036
 3890WAT      O11911   9.312   3.174   9.219
 3890WAT     H111912   9.393   3.202   9.168
 3890WAT     H211913   9.253   3.119   9.161
 3891WAT      O11914   1.359   3.659   1.197
 3891WAT     H111915   1.356   3.684   1.294
 3891WAT     H211916   1.268   3.670   1.157
 3892WAT      O11917   5.857   3.726   5.585
 3892WAT     H111918   5.901   3.651   5.633
 3892WAT     H211919   5.777   3.757   5.637
 3893WAT      O11920   5.155   1.774   5.552
 3893WAT     H111921   5.172   1.773   5.454
 3893WAT     H211922   5.079   1.712   5.573
 3894WAT      O11923   8.561   3.327   4.670
 3894WAT     H111924   8.574   3.398   4.739
 3894WAT     H211925   8.496   3.259   4.704
 3895WAT      O11926   9.654   9.747   5.928
 3895WAT     H111927   9.724   9.682   5.960
 3895WAT     H211928   9.568   9.699   5.914
 3896WAT      O11929   6.369   0.327   1.907
 3896WAT     H111930   6.396   0.415   1.947
 3896WAT     H211931   6.270   0.326   1.891
 3897WAT      O11932   1.396   0.727   0.128
 3897WAT     H111933   1.356   0.756   0.215
 3897WAT     H211934   1.444   0.641   0.140
 3898WAT      O11935   9.072   2.392   4.355
 3898WAT     H111936   9.023   2.357   4.435
 3898WAT     H211937   9.148   2.449   4.385
 3899WAT      O11938   0.979   2.591   9.063
 3899WAT     H111939   0.956   2.600   9.160
 3899WAT     H211940   1.072   2.557   9.053
 3900WAT      O11941   6.813   7.569   5.013
 3900WAT     H111942   6.838   7.543   4.920
 3900WAT     H211943   6.716   7.552   5.027
 3901WAT      O11944   6.818   0.505   0.982
 3901WAT     H111945   6.899   0.509   1.041
 3901WAT     H211946   6.749   0.569   1.015
 3902WAT      O11947   8.951   2.814   3.589
 3902WAT     H111948   9.046   2.824   3.617
 3902WAT     H211949   8.899   2.771   3.662
 3903WAT      O11950   6.069   7.127   5.671
 3903WAT     H111951   6.088   7.169   5.760
 3903WAT     H211952   6.135   7.160   5.604
 3904WAT      O11953   9.021   5.459   8.316
 3904WAT     H111954   9.001   5.465   8.219
 3904WAT     H211955   9.119   5.468   8.331
 3905WAT      O11956   1.879   8.020   5.468
 3905WAT     H111957   1.817   8.098   5.483
 3905WAT     H211958   1.971   8.054   5.452
 3906WAT      O11959   8.426   6.004   3.836
 3906WAT     H111960   8.488   6.051   3.898
 3906WAT     H211961   8.334   6.043   3.845
 3907WAT      O11962   4.539   5.787   9.269
 3907WAT     H111963   4.638   5.799   9.281
 3907WAT     H211964   4.520   5.753   9.177
 3908WAT      O11965   4.062   7.517   0.742
 3908WAT     H111966   4.112   7.437   0.777
 3908WAT     H211967   4.096   7.600   0.786
 3909WAT      O11968   9.800   6.330   8.372
 3909WAT     H111969   9.812   6.396   8.298
 3909WAT     H211970   9.858   6.355   8.450
 3910WAT      O11971   5.967   1.297   8.703
 3910WAT     H111972   5.923   1.366   8.760
 3910WAT     H211973   5.910   1.215   8.699
 3911WAT      O11974   6.226   9.490   6.672
 3911WAT     H111975   6.227   9.399   6.713
 3911WAT     H211976   6.153   9.495   6.603
 3912WAT      O11977   5.855   6.192   2.039
 3912WAT     H111978   5.787   6.119   2.050
 3912WAT     H211979   5.859   6.220   1.943
 3913WAT      O11980   2.319   0.556   6.792
 3913WAT     H111981   2.325   0.533   6.889
 3913WAT     H211982   2.312   0.473   6.738
 3914WAT      O11983   6.867   8.045   0.469
 3914WAT     H111984   6.838   8.112   0.400
 3914WAT     H211985   6.806   8.049   0.548
 3915WAT      O11986   3.731   6.187   8.829
 3915WAT     H111987   3.638   6.216   8.849
 3915WAT     H211988   3.729   6.099   8.782
 3916WAT      O11989   2.100   4.173   3.678
 3916WAT     H111990   2.077   4.174   3.580
 3916WAT     H211991   2.016   4.162   3.731
 3917WAT      O11992   7.823   0.266   9.662
 3917WAT     H111993   7.901   0.210   9.633
 3917WAT     H211994   7.849   0.363   9.655
 3918WAT      O11995   5.605   9.628   4.269
 3918WAT     H111996   5.654   9.662   4.188
 3918WAT     H211997   5.525   9.685   4.286
 3919WAT      O11998   3.139   5.237   7.546
 3919WAT     H111999   3.112   5.235   7.642
 3919WAT     H212000   3.137   5.331   7.512
 3920WAT      O12001   0.728   9.298   7.808
 3920WAT     H112002   0.773   9.269   7.893
 3920WAT     H212003   0.741   9.396   7.795
 3921WAT      O12004   4.225   7.140   8.730
 3921WAT     H112005   4.171   7.057   8.744
 3921WAT     H212006   4.285   7.154   8.809
 3922WAT      O12007   9.264   1.971   8.994
 3922WAT     H112008   9.295   2.006   8.905
 3922WAT     H212009   9.206   2.039   9.039
 3923WAT      O12010   0.871   1.378   7.517
 3923WAT     H112011   0.930   1.425   7.452
 3923WAT     H212012   0.860   1.282   7.491
 3924WAT      O12013   1.562   2.923   0.980
 3924WAT     H112014   1.583   2.857   1.052
 3924WAT     H212015   1.583   3.015   1.012
 3925WAT      O12016   3.373   8.245   1.199
 3925WAT     H112017   3.417   8.157   1.182
 3925WAT     H212018   3.312   8.237   1.278
 3926WAT      O12019   3.092   5.239   5.754
 3926WAT     H112020   3.000   5.214   5.783
 3926WAT     H212021   3.133   5.164   5.702
 3927WAT      O12022   9.708   2.850   4.517
 3927WAT     H112023   9.609   2.858   4.532
 3927WAT     H212024   9.757   2.911   4.579
 3928WAT      O12025   5.247   1.983   2.295
 3928WAT     H112026   5.188   2.005   2.217
 3928WAT     H212027   5.229   2.046   2.370
 3929WAT      O12028   4.427   5.172   4.019
 3929WAT     H112029   4.453   5.173   4.116
 3929WAT     H212030   4.335   5.133   4.010
 3930WAT      O12031   6.976   5.071   8.080
 3930WAT     H112032   6.913   4.993   8.074
 3930WAT     H212033   7.022   5.083   7.993
 3931WAT      O12034   4.981   9.045   0.807
 3931WAT     H112035   4.944   9.088   0.725
 3931WAT     H212036   4.928   9.074   0.887
 3932WAT      O12037   1.705   6.643   8.885
 3932WAT     H112038   1.649   6.722   8.911
 3932WAT     H212039   1.661   6.560   8.919
 3933WAT      O12040   9.007   7.841   2.647
 3933WAT     H112041   8.992   7.796   2.735
 3933WAT     H212042   8.920   7.879   2.614
 3934WAT      O12043   7.482   6.749   5.570
 3934WAT     H112044   7.456   6.666   5.521
 3934WAT     H212045   7.467   6.736   5.668
 3935WAT      O12046   3.125   5.877   4.573
 3935WAT     H112047   3.079   5.963   4.592
 3935WAT     H212048   3.106   5.812   4.647
 3936WAT      O12049   3.563   2.204   5.840
 3936WAT     H112050   3.508   2.135   5.887
 3936WAT     H212051   3.657   2.172   5.831
 3937WAT      O12052   3.559   4.068   4.723
 3937WAT     H112053   3.591   4.012   4.799
 3937WAT     H212054   3.628   4.138   4.701
 3938WAT      O12055   5.187   6.803   5.900
 3938WAT     H112056   5.186   6.712   5.942
 3938WAT     H212057   5.102   6.816   5.848
 3939WAT      O12058   0.628   7.971   9.367
 3939WAT     H112059   0.624   7.942   9.271
 3939WAT     H212060   0.645   7.891   9.425
 3940WAT      O12061   6.559   5.796   1.415
 3940WAT     H112062   6.474   5.753   1.445
 3940WAT     H212063   6.555   5.810   1.316
 3941WAT      O12064   8.559   7.662   4.091
 3941WAT     H112065   8.483   7.622   4.141
 3941WAT     H212066   8.645   7.625   4.125
 3942WAT      O12067   6.267   7.193   4.511
 3942WAT     H112068   6.357   7.168   4.548
 3942WAT     H212069   6.219   7.249   4.578
 3943WAT      O12070   5.529   8.223   1.129
 3943WAT     H112071   5.477   8.222   1.044
 3943WAT     H212072   5.593   8.301   1.128
 3944WAT      O12073   0.792   2.954   7.727
 3944WAT     H112074   0.857   2.905   7.785
 3944WAT     H212075   0.701   2.951   7.769
 3945WAT      O12076   6.203   5.096   7.339
 3945WAT     H112077   6.272   5.125   7.272
 3945WAT     H212078   6.154   5.017   7.303
 3946WAT      O12079   5.836   1.207   6.382
 3946WAT     H112080   5.801   1.298   6.406
 3946WAT     H212081   5.829   1.147   6.461
 3947WAT      O12082   0.885   4.667   2.571
 3947WAT     H112083   0.972   4.642   2.613
 3947WAT     H212084   0.897   4.748   2.514
 3948WAT      O12085   5.078   0.853   7.196
 3948WAT     H112086   5.105   0.768   7.242
 3948WAT     H212087   4.992   0.838   7.148
 3949WAT      O12088   8.054   7.930   6.270
 3949WAT     H112089   8.146   7.959   6.297
 3949WAT     H212090   8.044   7.832   6.285
 3950WAT      O12091   6.307   7.909   8.743
 3950WAT     H112092   6.213   7.945   8.736
 3950WAT     H212093   6.350   7.944   8.826
 3951WAT      O12094   0.819   0.209   6.992
 3951WAT     H112095   0.818   0.184   6.895
 3951WAT     H212096   0.840   0.306   7.002
 3952WAT      O12097   1.302   3.667   4.608
 3952WAT     H112098   1.225   3.721   4.572
 3952WAT     H212099   1.384   3.724   4.610
 3953WAT      O12100   8.771   1.087   7.246
 3953WAT     H112101   8.869   1.067   7.244
 3953WAT     H212102   8.753   1.174   7.201
 3954WAT      O12103   8.207   9.477   8.945
 3954WAT     H112104   8.279   9.445   8.883
 3954WAT     H212105   8.219   9.434   9.034
 3955WAT      O12106   2.620   8.374   1.139
 3955WAT     H112107   2.652   8.386   1.045
 3955WAT     H212108   2.673   8.301   1.183
 3956WAT      O12109   4.657   9.286   5.993
 3956WAT     H112110   4.655   9.365   5.933
 3956WAT     H212111   4.576   9.229   5.977
 3957WAT      O12112   7.749   8.519   3.561
 3957WAT     H112113   7.683   8.566   3.620
 3957WAT     H212114   7.842   8.534   3.596
 3958WAT      O12115   4.458   2.410   2.866
 3958WAT     H112116   4.547   2.365   2.859
 3958WAT     H212117   4.397   2.356   2.923
 3959WAT      O12118   3.708   9.101   2.186
 3959WAT     H112119   3.614   9.126   2.207
 3959WAT     H212120   3.754   9.179   2.142
 3960WAT      O12121   4.380   7.277   3.637
 3960WAT     H112122   4.316   7.338   3.684
 3960WAT     H212123   4.365   7.284   3.538
 3961WAT      O12124   7.472   3.248   0.797
 3961WAT     H112125   7.380   3.224   0.826
 3961WAT     H212126   7.479   3.241   0.697
 3962WAT      O12127   6.157   8.595   4.309
 3962WAT     H112128   6.189   8.678   4.356
 3962WAT     H212129   6.101   8.541   4.372
 3963WAT      O12130   5.208   6.002   1.106
 3963WAT     H112131   5.253   5.933   1.050
 3963WAT     H212132   5.158   5.958   1.181
 3964WAT      O12133   2.144   6.093   4.560
 3964WAT     H112134   2.110   5.999   4.563
 3964WAT     H212135   2.069   6.156   4.578
 3965WAT      O12136   0.550   4.851   0.697
 3965WAT     H112137   0.616   4.795   0.747
 3965WAT     H212138   0.591   4.939   0.674
 3966WAT      O12139   1.655   4.183   6.967
 3966WAT     H112140   1.570   4.131   6.975
 3966WAT     H212141   1.726   4.137   7.020
 3967WAT      O12142   3.616   4.166   7.559
 3967WAT     H112143   3.552   4.205   7.626
 3967WAT     H212144   3.643   4.236   7.493
 3968WAT      O12145   2.812   9.669   2.209
 3968WAT     H112146   2.783   9.611   2.133
 3968WAT     H212147   2.766   9.639   2.293
 3969WAT      O12148   1.416   1.676   4.844
 3969WAT     H112149   1.384   1.655   4.936
 3969WAT     H212150   1.356   1.631   4.777
 3970WAT      O12151   7.237   8.507   8.467
 3970WAT     H112152   7.270   8.464   8.383
 3970WAT     H212153   7.143   8.478   8.486
 3971WAT      O12154   8.697   7.841   8.100
 3971WAT     H112155   8.669   7.752   8.064
 3971WAT     H212156   8.790   7.862   8.071
 3972WAT      O12157   2.051   3.799   9.038
 3972WAT     H112158   1.955   3.822   9.029
 3972WAT     H212159   2.062   3.699   9.040
 3973WAT      O12160   8.146   5.446   3.803
 3973WAT     H112161   8.226   5.504   3.819
 3973WAT     H212162   8.162   5.356   3.843
 3974WAT      O12163   4.501   1.709   5.009
 3974WAT     H112164   4.487   1.797   4.963
 3974WAT     H212165   4.599   1.694   5.022
 3975WAT      O12166   3.188   6.150   0.798
 3975WAT     H112167   3.240   6.069   0.825
 3975WAT     H212168   3.238   6.232   0.827
 3976WAT      O12169   8.404   7.562   2.578
 3976WAT     H112170   8.433   7.524   2.666
 3976WAT     H212171   8.308   7.541   2.562
 3977WAT      O12172   9.709   8.730   5.849
 3977WAT     H112173   9.679   8.825   5.835
 3977WAT     H212174   9.677   8.699   5.938
 3978WAT      O12175   4.975   7.882   8.514
 3978WAT     H112176   5.067   7.916   8.533
 3978WAT     H212177   4.930   7.857   8.600
 3979WAT      O12178   9.024   9.185   5.202
 3979WAT     H112179   8.978   9.156   5.118
 3979WAT     H212180   8.970   9.257   5.246
 3980WAT      O12181   6.186   2.116   7.529
 3980WAT     H112182   6.158   2.209   7.505
 3980WAT     H212183   6.274   2.096   7.487
 3981WAT      O12184   7.702   2.940   6.091
 3981WAT     H112185   7.629   2.954   6.024
 3981WAT     H212186   7.736   2.846   6.085
 3982WAT      O12187   6.036   5.699   4.699
 3982WAT     H112188   5.962   5.632   4.693
 3982WAT     H212189   6.117   5.657   4.741
 3983WAT      O12190   5.714   2.638   7.985
 3983WAT     H112191   5.625   2.655   7.943
 3983WAT     H212192   5.765   2.572   7.930
 3984WAT      O12193   5.907   1.053   5.406
 3984WAT     H112194   5.897   1.111   5.326
 3984WAT     H212195   5.817   1.017   5.433
 3985WAT      O12196   9.766   2.820   2.747
 3985WAT     H112197   9.699   2.885   2.783
 3985WAT     H212198   9.857   2.846   2.778
 3986WAT      O12199   0.096   2.216   6.632
 3986WAT     H112200   0.099   2.198   6.533
 3986WAT     H212201   0.024   2.160   6.673
 3987WAT      O12202   6.809   4.570   7.593
 3987WAT     H112203   6.885   4.506   7.581
 3987WAT     H212204   6.727   4.534   7.550
 3988WAT      O12205   2.299   5.582   8.578
 3988WAT     H112206   2.222   5.573   8.514
 3988WAT     H212207   2.379   5.618   8.530
 3989WAT      O12208   7.156   0.642   0.497
 3989WAT     H112209   7.139   0.679   0.589
 3989WAT     H212210   7.081   0.581   0.472
 3990WAT      O12211   1.371   5.471   6.941
 3990WAT     H112212   1.330   5.389   6.982
 3990WAT     H212213   1.306   5.546   6.945
 3991WAT      O12214   3.691   1.992   6.571
 3991WAT     H112215   3.628   2.038   6.634
 3991WAT     H212216   3.779   1.978   6.617
 3992WAT      O12217   8.080   3.193   3.071
 3992WAT     H112218   8.079   3.120   3.140
 3992WAT     H212219   8.126   3.159   2.988
 3993WAT      O12220   4.933   4.168   8.591
 3993WAT     H112221   5.011   4.147   8.533
 3993WAT     H212222   4.875   4.236   8.545
 3994WAT      O12223   1.088   5.671   3.669
 3994WAT     H112224   1.079   5.689   3.766
 3994WAT     H212225   1.097   5.572   3.654
 3995WAT      O12226   4.841   6.270   1.899
 3995WAT     H112227   4.896   6.196   1.939
 3995WAT     H212228   4.745   6.241   1.894
 3996WAT      O12229   4.483   2.384   3.846
 3996WAT     H112230   4.563   2.365   3.903
 3996WAT     H212231   4.434   2.464   3.882
 3997WAT      O12232   3.447   7.143   3.343
 3997WAT     H112233   3.432   7.044   3.331
 3997WAT     H212234   3.481   7.160   3.436
 3998WAT      O12235   5.296   3.730   8.559
 3998WAT     H112236   5.264   3.646   8.602
 3998WAT     H212237   5.218   3.786   8.532
 3999WAT      O12238   8.298   9.737   6.181
 3999WAT     H112239   8.326   9.755   6.275
 3999WAT     H212240   8.259   9.645   6.174
 4000WAT      O12241   9.322   5.567   2.856
 4000WAT     H112242   9.234   5.575   2.902
 4000WAT     H212243   9.327   5.634   2.782
 4001WAT      O12244   2.691   0.266   0.458
 4001WAT     H112245   2.735   0.331   0.520
 4001WAT     H212246   2.719   0.173   0.483
 4002WAT      O12247   3.555   4.835   9.736
 4002WAT     H112248   3.539   4.826   9.834
 4002WAT     H212249   3.552   4.744   9.694
 4003WAT      O12250   1.310   8.701   7.170
 4003WAT     H112251   1.273   8.618   7.129
 4003WAT     H212252   1.374   8.744   7.106
 4004WAT      O12253   9.089   6.450   2.667
 4004WAT     H112254   9.094   6.491   2.758
 4004WAT     H212255   9.155   6.376   2.659
 4005WAT      O12256   7.091   6.179   6.379
 4005WAT     H112257   7.108   6.090   6.338
 4005WAT     H212258   7.137   6.185   6.467
 4006WAT      O12259   0.618   2.417   1.339
 4006WAT     H112260   0.685   2.478   1.382
 4006WAT     H212261   0.528   2.435   1.377
 4007WAT      O12262   9.313   3.423   7.075
 4007WAT     H112263   9.323   3.514   7.034
 4007WAT     H212264   9.219   3.412   7.108
 4008WAT      O12265   4.766   9.611   0.163
 4008WAT     H112266   4.831   9.579   0.094
 4008WAT     H212267   4.809   9.678   0.222
 4009WAT      O12268   3.661   1.635   6.112
 4009WAT     H112269   3.690   1.674   6.199
 4009WAT     H212270   3.561   1.642   6.104
 4010WAT      O12271   0.478   0.164   8.588
 4010WAT     H112272   0.438   0.238   8.534
 4010WAT     H212273   0.408   0.123   8.647
 4011WAT      O12274   2.104   9.652   6.512
 4011WAT     H112275   2.147   9.740   6.529
 4011WAT     H212276   2.016   9.648   6.559
 4012WAT      O12277   1.603   2.072   5.424
 4012WAT     H112278   1.689   2.089   5.471
 4012WAT     H212279   1.603   1.978   5.389
 4013WAT      O12280   3.468   6.235   8.862
 4013WAT     H112281   3.411   6.191   8.931
 4013WAT     H212282   3.483   6.330   8.888
 4014WAT      O12283   4.752   1.330   9.632
 4014WAT     H112284   4.798   1.304   9.718
 4014WAT     H212285   4.818   1.375   9.572
 4015WAT      O12286   6.288   2.749   6.690
 4015WAT     H112287   6.316   2.737   6.594
 4015WAT     H212288   6.288   2.847   6.712
 4016WAT      O12289   1.772   8.520   6.002
 4016WAT     H112290   1.871   8.512   5.998
 4016WAT     H212291   1.747   8.613   6.031
 4017WAT      O12292   7.624   0.819   8.416
 4017WAT     H112293   7.672   0.905   8.398
 4017WAT     H212294   7.577   0.789   8.334
 4018WAT      O12295   6.537   2.112   8.670
 4018WAT     H112296   6.584   2.094   8.584
 4018WAT     H212297   6.594   2.082   8.746
 4019WAT      O12298   4.422   7.969   5.413
 4019WAT     H112299   4.513   7.927   5.410
 4019WAT     H212300   4.353   7.901   5.389
 4020WAT      O12301   1.867   0.295   8.682
 4020WAT     H112302   1.872   0.233   8.760
 4020WAT     H212303   1.944   0.278   8.621
 4021WAT      O12304   5.782   0.221   0.383
 4021WAT     H112305   5.835   0.137   0.373
 4021WAT     H212306   5.697   0.202   0.431
 4022WAT      O12307   7.367   3.972   3.224
 4022WAT     H112308   7.306   4.041   3.185
 4022WAT     H212309   7.353   3.884   3.178
 4023WAT      O12310   3.432   3.501   8.432
 4023WAT     H112311   3.385   3.580   8.392
 4023WAT     H212312   3.472   3.527   8.520
 4024WAT      O12313   8.621   7.081   0.088
 4024WAT     H112314   8.667   7.164   0.056
 4024WAT     H212315   8.667   7.001   0.049
 4025WAT      O12316   3.560   0.129   0.462
 4025WAT     H112317   3.648   0.171   0.485
 4025WAT     H212318   3.567   0.029   0.471
 4026WAT      O12319   0.079   2.926   7.470
 4026WAT     H112320  -0.009   2.967   7.494
 4026WAT     H212321   0.121   2.979   7.395
 4027WAT      O12322   4.090   0.020   8.876
 4027WAT     H112323   4.136  -0.068   8.880
 4027WAT     H212324   4.058   0.045   8.967
 4028WAT      O12325   2.395   0.959   2.938
 4028WAT     H112326   2.440   0.915   3.015
 4028WAT     H212327   2.315   0.906   2.911
 4029WAT      O12328   2.025   4.363   6.378
 4029WAT     H112329   2.110   4.403   6.413
 4029WAT     H212330   1.958   4.356   6.452
 4030WAT      O12331   0.721   9.562   5.152
 4030WAT     H112332   0.709   9.638   5.087
 4030WAT     H212333   0.779   9.493   5.111
 4031WAT      O12334   0.278   8.947   3.478
 4031WAT     H112335   0.365   8.970   3.436
 4031WAT     H212336   0.240   9.029   3.522
 4032WAT      O12337   6.835   2.473   3.413
 4032WAT     H112338   6.761   2.539   3.424
 4032WAT     H212339   6.922   2.517   3.434
 4033WAT      O12340   4.742   1.117   4.576
 4033WAT     H112341   4.722   1.214   4.589
 4033WAT     H212342   4.824   1.092   4.628
 4034WAT      O12343   6.616   0.736   1.388
 4034WAT     H112344   6.712   0.746   1.417
 4034WAT     H212345   6.594   0.806   1.321
 4035WAT      O12346   2.959   6.863   7.886
 4035WAT     H112347   2.910   6.931   7.832
 4035WAT     H212348   3.057   6.873   7.872
 4036WAT      O12349   0.351   2.586   6.093
 4036WAT     H112350   0.293   2.605   6.014
 4036WAT     H212351   0.324   2.645   6.169
 4037WAT      O12352   6.651   5.576   3.022
 4037WAT     H112353   6.656   5.520   3.105
 4037WAT     H212354   6.716   5.542   2.954
 4038WAT      O12355   2.671   6.923   1.137
 4038WAT     H112356   2.723   7.006   1.160
 4038WAT     H212357   2.622   6.938   1.051
 4039WAT      O12358   9.477   9.629   6.638
 4039WAT     H112359   9.538   9.685   6.581
 4039WAT     H212360   9.474   9.667   6.731
 4040WAT      O12361   3.416   0.371   2.713
 4040WAT     H112362   3.510   0.341   2.695
 4040WAT     H212363   3.414   0.471   2.717
 4041WAT      O12364   9.324   3.989   2.625
 4041WAT     H112365   9.311   3.932   2.543
 4041WAT     H212366   9.334   3.930   2.705
 4042WAT      O12367   3.815   3.169   3.690
 4042WAT     H112368   3.862   3.195   3.606
 4042WAT     H212369   3.880   3.128   3.753
 4043WAT      O12370   3.487   2.973   6.700
 4043WAT     H112371   3.463   2.926   6.615
 4043WAT     H212372   3.584   2.958   6.720
 4044WAT      O12373   5.121   1.347   6.430
 4044WAT     H112374   5.168   1.292   6.498
 4044WAT     H212375   5.045   1.395   6.472
 4045WAT      O12376   7.135   8.463   2.940
 4045WAT     H112377   7.217   8.492   2.889
 4045WAT     H212378   7.113   8.369   2.914
 4046WAT      O12379   5.826   5.067   2.206
 4046WAT     H112380   5.845   5.157   2.166
 4046WAT     H212381   5.890   5.050   2.280
 4047WAT      O12382   7.958   8.662   8.096
 4047WAT     H112383   7.883   8.711   8.051
 4047WAT     H212384   7.930   8.569   8.118
 4048WAT      O12385   3.982   5.007   0.892
 4048WAT     H112386   4.080   4.990   0.900
 4048WAT     H212387   3.935   4.924   0.862
 4049WAT      O12388   7.633   6.592   5.998
 4049WAT     H112389   7.542   6.563   5.970
 4049WAT     H212390   7.692   6.601   5.918
 4050WAT      O12391   0.948   1.479   7.259
 4050WAT     H112392   0.875   1.535   7.221
 4050WAT     H212393   0.936   1.384   7.229
 4051WAT      O12394   7.459   6.488   2.617
 4051WAT     H112395   7.405   6.408   2.645
 4051WAT     H212396   7.527   6.508   2.687
 4052WAT      O12397   5.115   9.610   1.510
 4052WAT     H112398   5.067   9.680   1.564
 4052WAT     H212399   5.213   9.630   1.509
 4053WAT      O12400   2.113   2.921   8.764
 4053WAT     H112401   2.204   2.882   8.748
 4053WAT     H212402   2.045   2.848   8.760
 4054WAT      O12403   1.722   1.163   6.206
 4054WAT     H112404   1.731   1.074   6.249
 4054WAT     H212405   1.684   1.229   6.271
 4055WAT      O12406   0.094   4.960   7.437
 4055WAT     H112407   0.069   5.057   7.435
 4055WAT     H212408   0.176   4.948   7.493
 4056WAT      O12409   5.223   8.330   1.791
 4056WAT     H112410   5.195   8.418   1.830
 4056WAT     H212411   5.145   8.267   1.792
 4057WAT      O12412   5.246   2.117   7.207
 4057WAT     H112413   5.277   2.054   7.278
 4057WAT     H212414   5.184   2.069   7.145
 4058WAT      O12415   6.060   0.070   8.410
 4058WAT     H112416   6.142   0.058   8.355
 4058WAT     H212417   6.033  -0.018   8.450
 4059WAT      O12418   5.123   3.394   7.973
 4059WAT     H112419   5.187   3.403   7.897
 4059WAT     H212420   5.123   3.478   8.027
 4060WAT      O12421   3.514   9.148   2.646
 4060WAT     H112422   3.609   9.118   2.649
 4060WAT     H212423   3.464   9.091   2.581
 4061WAT      O12424   1.250   0.649   9.085
 4061WAT     H112425   1.202   0.729   9.121
 4061WAT     H212426   1.256   0.656   8.985
 4062WAT      O12427   7.532   3.210   1.613
 4062WAT     H112428   7.434   3.191   1.613
 4062WAT     H212429   7.581   3.133   1.573
 4063WAT      O12430   3.891   7.280   7.121
 4063WAT     H112431   3.792   7.267   7.109
 4063WAT     H212432   3.917   7.257   7.215
 4064WAT      O12433   0.311   3.812   8.083
 4064WAT     H112434   0.216   3.843   8.088
 4064WAT     H212435   0.371   3.892   8.076
 4065WAT      O12436   1.386   6.852   7.923
 4065WAT     H112437   1.394   6.755   7.899
 4065WAT     H212438   1.467   6.901   7.890
 4066WAT      O12439   3.003   6.059   4.204
 4066WAT     H112440   3.040   6.115   4.278
 4066WAT     H212441   3.039   5.966   4.210
 4067WAT      O12442   3.540   4.576   9.646
 4067WAT     H112443   3.608   4.519   9.693
 4067WAT     H212444   3.550   4.565   9.547
 4068WAT      O12445   4.295   1.431   2.930
 4068WAT     H112446   4.312   1.465   2.838
 4068WAT     H212447   4.197   1.415   2.942
 4069WAT      O12448   2.513   7.520   7.008
 4069WAT     H112449   2.455   7.512   6.927
 4069WAT     H212450   2.592   7.577   6.988
 4070WAT      O12451   4.178   3.679   8.148
 4070WAT     H112452   4.242   3.637   8.213
 4070WAT     H212453   4.224   3.754   8.101
 4071WAT      O12454   0.808   5.996   9.490
 4071WAT     H112455   0.882   6.005   9.423
 4071WAT     H212456   0.754   6.080   9.492
 4072WAT      O12457   5.839   6.104   8.285
 4072WAT     H112458   5.845   6.175   8.355
 4072WAT     H212459   5.922   6.048   8.288
 4073WAT      O12460   4.139   2.323   2.876
 4073WAT     H112461   4.061   2.338   2.936
 4073WAT     H212462   4.214   2.281   2.928
 4074WAT      O12463   7.977   8.189   3.029
 4074WAT     H112464   7.922   8.137   2.964
 4074WAT     H212465   7.919   8.256   3.077
 4075WAT      O12466   7.370   1.245   0.116
 4075WAT     H112467   7.302   1.309   0.151
 4075WAT     H212468   7.411   1.281   0.032
 4076WAT      O12469   8.080   6.545   8.927
 4076WAT     H112470   8.050   6.455   8.958
 4076WAT     H212471   8.162   6.571   8.978
 4077WAT      O12472   1.612   8.602   5.559
 4077WAT     H112473   1.631   8.572   5.466
 4077WAT     H212474   1.680   8.564   5.621
 4078WAT      O12475   9.383   5.681   5.845
 4078WAT     H112476   9.428   5.738   5.914
 4078WAT     H212477   9.285   5.676   5.865
 4079WAT      O12478   7.956   1.103   6.903
 4079WAT     H112479   7.963   1.003   6.903
 4079WAT     H212480   8.033   1.142   6.854
 4080WAT      O12481   3.550   0.594   4.440
 4080WAT     H112482   3.533   0.502   4.474
 4080WAT     H212483   3.564   0.591   4.341
 4081WAT      O12484   4.792   2.307   2.612
 4081WAT     H112485   4.810   2.382   2.676
 4081WAT     H212486   4.711   2.256   2.643
 4082WAT      O12487   3.428   3.125   5.353
 4082WAT     H112488   3.349   3.072   5.321
 4082WAT     H212489   3.447   3.101   5.449
 4083WAT      O12490   2.938   6.918   7.500
 4083WAT     H112491   2.885   6.941   7.419
 4083WAT     H212492   2.963   6.821   7.497
 4084WAT      O12493   2.335   0.673   4.532
 4084WAT     H112494   2.420   0.644   4.488
 4084WAT     H212495   2.259   0.659   4.469
 4085WAT      O12496   7.863   5.756   1.695
 4085WAT     H112497   7.775   5.731   1.736
 4085WAT     H212498   7.937   5.711   1.746
 4086WAT      O12499   8.193   7.667   3.947
 4086WAT     H112500   8.211   7.728   4.025
 4086WAT     H212501   8.094   7.666   3.929
 4087WAT      O12502   3.990   0.638   6.061
 4087WAT     H112503   3.970   0.604   5.969
 4087WAT     H212504   4.074   0.691   6.061
 4088WAT      O12505   5.868   0.797   9.319
 4088WAT     H112506   5.846   0.811   9.415
 4088WAT     H212507   5.951   0.846   9.295
 4089WAT      O12508   0.678   6.077   1.364
 4089WAT     H112509   0.634   6.083   1.453
 4089WAT     H212510   0.777   6.087   1.375
 4090WAT      O12511   8.243   7.072   5.005
 4090WAT     H112512   8.316   7.135   4.979
 4090WAT     H212513   8.175   7.120   5.060
 4091WAT      O12514   6.959   8.047   9.331
 4091WAT     H112515   6.934   8.103   9.410
 4091WAT     H212516   6.950   7.950   9.354
 4092WAT      O12517   7.115   9.396   5.161
 4092WAT     H112518   7.163   9.344   5.091
 4092WAT     H212519   7.016   9.391   5.145
 4093WAT      O12520   2.305   8.622   5.027
 4093WAT     H112521   2.336   8.530   5.047
 4093WAT     H212522   2.382   8.686   5.033
 4094WAT      O12523   7.172   7.653   3.779
 4094WAT     H112524   7.241   7.585   3.806
 4094WAT     H212525   7.158   7.648   3.680
 4095WAT      O12526   6.367   5.262   0.133
 4095WAT     H112527   6.333   5.348   0.095
 4095WAT     H212528   6.435   5.281   0.203
 4096WAT      O12529   2.387   8.928   5.573
 4096WAT     H112530   2.335   8.978   5.504
 4096WAT     H212531   2.484   8.931   5.550
 4097WAT      O12532   1.212   7.625   3.375
 4097WAT     H112533   1.156   7.645   3.456
 4097WAT     H212534   1.283   7.559   3.399
 4098WAT      O12535   3.712   7.235   9.509
 4098WAT     H112536   3.647   7.290   9.459
 4098WAT     H212537   3.675   7.143   9.524
 4099WAT      O12538   3.490   5.550   2.802
 4099WAT     H112539   3.416   5.504   2.850
 4099WAT     H212540   3.534   5.616   2.863
 4100WAT      O12541   4.229   9.639   8.979
 4100WAT     H112542   4.169   9.600   9.049
 4100WAT     H212543   4.268   9.566   8.924
 4101WAT      O12544   5.278   8.782   4.953
 4101WAT     H112545   5.199   8.782   4.890
 4101WAT     H212546   5.251   8.825   5.039
 4102WAT      O12547   4.156   5.631   0.348
 4102WAT     H112548   4.159   5.702   0.278
 4102WAT     H212549   4.216   5.555   0.320
 4103WAT      O12550   9.846   4.641   2.034
 4103WAT     H112551   9.748   4.627   2.025
 4103WAT     H212552   9.878   4.599   2.119
 4104WAT      O12553   4.301   9.446   8.780
 4104WAT     H112554   4.208   9.438   8.745
 4104WAT     H212555   4.365   9.456   8.704
 4105WAT      O12556   5.343   4.183   5.940
 4105WAT     H112557   5.353   4.242   5.860
 4105WAT     H212558   5.322   4.239   6.020
 4106WAT      O12559   7.437   4.767   5.366
 4106WAT     H112560   7.348   4.731   5.393
 4106WAT     H212561   7.426   4.860   5.330
 4107WAT      O12562   8.631   9.529   6.494
 4107WAT     H112563   8.693   9.605   6.509
 4107WAT     H212564   8.552   9.538   6.555
 4108WAT      O12565   0.653   2.349   8.479
 4108WAT     H112566   0.618   2.353   8.572
 4108WAT     H212567   0.699   2.435   8.456
 4109WAT      O12568   1.602   9.680   7.502
 4109WAT     H112569   1.612   9.772   7.541
 4109WAT     H212570   1.576   9.687   7.406
 4110WAT      O12571   7.067   1.189   1.114
 4110WAT     H112572   7.161   1.198   1.148
 4110WAT     H212573   7.013   1.268   1.144
 4111WAT      O12574   1.419   2.300   1.009
 4111WAT     H112575   1.425   2.399   1.002
 4111WAT     H212576   1.468   2.258   0.932
 4112WAT      O12577   8.143   6.118   7.566
 4112WAT     H112578   8.153   6.103   7.467
 4112WAT     H212579   8.080   6.194   7.582
 4113WAT      O12580   7.533   1.910   2.011
 4113WAT     H112581   7.540   1.905   2.111
 4113WAT     H212582   7.581   1.833   1.970
 4114WAT      O12583   3.665   7.863   9.528
 4114WAT     H112584   3.590   7.840   9.589
 4114WAT     H212585   3.638   7.938   9.468
 4115WAT      O12586   2.930   3.859   2.942
 4115WAT     H112587   2.859   3.829   3.007
 4115WAT     H212588   2.888   3.910   2.868
 4116WAT      O12589   2.505   0.838   3.153
 4116WAT     H112590   2.542   0.922   3.193
 4116WAT     H212591   2.569   0.763   3.168
 4117WAT      O12592   7.801   5.230   1.434
 4117WAT     H112593   7.765   5.142   1.402
 4117WAT     H212594   7.867   5.264   1.368
 4118WAT      O12595   3.303   3.400   3.566
 4118WAT     H112596   3.290   3.315   3.617
 4118WAT     H212597   3.257   3.475   3.614
 4119WAT      O12598   7.406   2.928   2.097
 4119WAT     H112599   7.403   2.999   2.027
 4119WAT     H212600   7.496   2.883   2.096
 4120WAT      O12601   4.167   1.903   9.461
 4120WAT     H112602   4.197   1.998   9.454
 4120WAT     H212603   4.245   1.842   9.449
 4121WAT      O12604   2.160   5.930   6.195
 4121WAT     H112605   2.065   5.953   6.178
 4121WAT     H212606   2.165   5.850   6.255
 4122WAT      O12607   9.478   6.938   5.690
 4122WAT     H112608   9.379   6.950   5.705
 4122WAT     H212609   9.528   6.974   5.768
 4123WAT      O12610   9.863   6.789   0.033
 4123WAT     H112611   9.870   6.881  -0.006
 4123WAT     H212612   9.905   6.788   0.124
 4124WAT      O12613   6.889   4.642   9.456
 4124WAT     H112614   6.932   4.574   9.516
 4124WAT     H212615   6.857   4.719   9.510
 4125WAT      O12616   5.496   6.899   7.578
 4125WAT     H112617   5.499   6.839   7.658
 4125WAT     H212618   5.485   6.843   7.495
 4126WAT      O12619   0.292   2.509   5.393
 4126WAT     H112620   0.277   2.565   5.475
 4126WAT     H212621   0.241   2.548   5.316
 4127WAT      O12622   0.056   4.539   9.458
 4127WAT     H112623  -0.029   4.551   9.407
 4127WAT     H212624   0.134   4.539   9.395
 4128WAT      O12625   4.483   5.540   4.210
 4128WAT     H112626   4.496   5.522   4.308
 4128WAT     H212627   4.392   5.511   4.182
 4129WAT      O12628   9.675   4.824   5.224
 4129WAT     H112629   9.719   4.757   5.284
 4129WAT     H212630   9.576   4.814   5.229
 4130WAT      O12631   4.161   2.229   1.684
 4130WAT     H112632   4.220   2.187   1.753
 4130WAT     H212633   4.206   2.225   1.595
 4131WAT      O12634   5.265   1.911   5.023
 4131WAT     H112635   5.239   1.868   4.937
 4131WAT     H212636   5.184   1.947   5.069
 4132WAT      O12637   2.602   2.563   8.510
 4132WAT     H112638   2.576   2.493   8.444
 4132WAT     H212639   2.596   2.653   8.468
 4133WAT      O12640   8.474   5.864   5.647
 4133WAT     H112641   8.399   5.871   5.713
 4133WAT     H212642   8.476   5.772   5.608
 4134WAT      O12643   8.690   7.185   7.387
 4134WAT     H112644   8.665   7.138   7.472
 4134WAT     H212645   8.777   7.150   7.354
 4135WAT      O12646   8.446   1.367   8.380
 4135WAT     H112647   8.427   1.426   8.458
 4135WAT     H212648   8.520   1.304   8.402
 4136WAT      O12649   1.903   1.017   1.353
 4136WAT     H112650   1.892   0.978   1.262
 4136WAT     H212651   1.999   1.037   1.370
 4137WAT      O12652   5.784   4.681   3.398
 4137WAT     H112653   5.740   4.672   3.309
 4137WAT     H212654   5.848   4.758   3.396
 4138WAT      O12655   2.120   5.005   5.569
 4138WAT     H112656   2.061   4.943   5.517
 4138WAT     H212657   2.090   5.100   5.554
 4139WAT      O12658   1.713   6.803   7.176
 4139WAT     H112659   1.685   6.757   7.091
 4139WAT     H212660   1.645   6.872   7.201
 4140WAT      O12661   5.110   1.058   8.053
 4140WAT     H112662   5.125   1.101   7.963
 4140WAT     H212663   5.105   0.959   8.042
 4141WAT      O12664   0.890   7.264   1.841
 4141WAT     H112665   0.849   7.190   1.788
 4141WAT     H212666   0.828   7.292   1.914
 4142WAT      O12667   7.878   6.148   4.996
 4142WAT     H112668   7.972   6.176   5.015
 4142WAT     H212669   7.823   6.229   4.975
 4143WAT      O12670   0.281   9.070   5.859
 4143WAT     H112671   0.335   9.008   5.916
 4143WAT     H212672   0.335   9.096   5.778
 4144WAT      O12673   1.175   7.489   7.060
 4144WAT     H112674   1.190   7.394   7.032
 4144WAT     H212675   1.183   7.549   6.981
 4145WAT      O12676   4.124   4.195   9.398
 4145WAT     H112677   4.139   4.179   9.496
 4145WAT     H212678   4.047   4.139   9.367
 4146WAT      O12679   0.796   7.101   7.244
 4146WAT     H112680   0.786   7.008   7.210
 4146WAT     H212681   0.821   7.098   7.341
 4147WAT      O12682   2.890   7.370   8.514
 4147WAT     H112683   2.908   7.380   8.612
 4147WAT     H212684   2.791   7.372   8.498
 4148WAT      O12685   5.395   5.307   7.028
 4148WAT     H112686   5.343   5.387   6.996
 4148WAT     H212687   5.427   5.323   7.121
 4149WAT      O12688   7.201   7.607   5.963
 4149WAT     H112689   7.191   7.685   6.025
 4149WAT     H212690   7.298   7.595   5.940
 4150WAT      O12691   5.636   3.426   7.744
 4150WAT     H112692   5.710   3.484   7.710
 4150WAT     H212693   5.644   3.415   7.843
 4151WAT      O12694   8.093   2.309   1.377
 4151WAT     H112695   8.107   2.210   1.374
 4151WAT     H212696   8.168   2.355   1.330
 4152WAT      O12697   7.394   5.594   2.134
 4152WAT     H112698   7.340   5.654   2.075
 4152WAT     H212699   7.473   5.643   2.169
 4153WAT      O12700   7.054   0.834   7.044
 4153WAT     H112701   7.078   0.738   7.061
 4153WAT     H212702   7.062   0.854   6.947
 4154WAT      O12703   3.483   8.783   2.364
 4154WAT     H112704   3.496   8.685   2.350
 4154WAT     H212705   3.513   8.808   2.456
 4155WAT      O12706   3.210   1.756   7.347
 4155WAT     H112707   3.288   1.806   7.383
 4155WAT     H212708   3.125   1.793   7.387
 4156WAT      O12709   9.035   0.511   5.065
 4156WAT     H112710   8.949   0.497   5.113
 4156WAT     H212711   9.109   0.463   5.113
 4157WAT      O12712   5.499   1.292   3.406
 4157WAT     H112713   5.555   1.375   3.396
 4157WAT     H212714   5.441   1.281   3.326
 4158WAT      O12715   4.115   0.180   7.083
 4158WAT     H112716   4.103   0.093   7.035
 4158WAT     H212717   4.090   0.255   7.023
 4159WAT      O12718   7.999   7.203   5.973
 4159WAT     H112719   7.944   7.199   6.056
 4159WAT     H212720   8.008   7.298   5.943
 4160WAT      O12721   6.344   0.333   9.819
 4160WAT     H112722   6.322   0.386   9.736
 4160WAT     H212723   6.303   0.377   9.898
 4161WAT      O12724   4.594   8.728   6.214
 4161WAT     H112725   4.638   8.767   6.133
 4161WAT     H212726   4.499   8.705   6.193
 4162WAT      O12727   5.066   4.266   6.559
 4162WAT     H112728   5.148   4.310   6.596
 4162WAT     H212729   4.991   4.333   6.557
 4163WAT      O12730   9.725   4.077   9.091
 4163WAT     H112731   9.798   4.057   9.026
 4163WAT     H212732   9.654   4.007   9.084
 4164WAT      O12733   6.228   5.775   8.474
 4164WAT     H112734   6.248   5.682   8.503
 4164WAT     H212735   6.268   5.792   8.384
 4165WAT      O12736   1.059   5.771   4.692
 4165WAT     H112737   1.120   5.807   4.763
 4165WAT     H212738   1.026   5.846   4.636
 4166WAT      O12739   3.744   8.309   6.909
 4166WAT     H112740   3.664   8.361   6.881
 4166WAT     H212741   3.721   8.250   6.987
 4167WAT      O12742   7.220   0.209   3.348
 4167WAT     H112743   7.257   0.280   3.408
 4167WAT     H212744   7.229   0.120   3.393
 4168WAT      O12745   4.472   4.763   8.622
 4168WAT     H112746   4.401   4.765   8.551
 4168WAT     H212747   4.452   4.833   8.691
 4169WAT      O12748   7.541   9.243   5.691
 4169WAT     H112749   7.448   9.208   5.681
 4169WAT     H212750   7.597   9.211   5.614
 4170WAT      O12751   6.444   1.173   3.990
 4170WAT     H112752   6.495   1.112   3.930
 4170WAT     H212753   6.375   1.222   3.937
 4171WAT      O12754   3.310   9.357   4.630
 4171WAT     H112755   3.398   9.381   4.590
 4171WAT     H212756   3.272   9.277   4.584
 4172WAT      O12757   5.452   2.470   3.424
 4172WAT     H112758   5.522   2.437   3.486
 4172WAT     H212759   5.389   2.395   3.401
 4173WAT      O12760   8.441   2.869   9.206
 4173WAT     H112761   8.406   2.828   9.122
 4173WAT     H212762   8.427   2.968   9.204
 4174WAT      O12763   1.392   3.861   7.461
 4174WAT     H112764   1.353   3.909   7.539
 4174WAT     H212765   1.371   3.764   7.467
 4175WAT      O12766   6.789   2.778   6.286
 4175WAT     H112767   6.754   2.848   6.223
 4175WAT     H212768   6.733   2.695   6.278
 4176WAT      O12769   4.645   7.885   9.064
 4176WAT     H112770   4.694   7.934   8.992
 4176WAT     H212771   4.630   7.947   9.142
 4177WAT      O12772   8.611   0.565   5.206
 4177WAT     H112773   8.573   0.523   5.123
 4177WAT     H212774   8.543   0.560   5.279
 4178WAT      O12775   7.876   4.753   1.194
 4178WAT     H112776   7.793   4.704   1.221
 4178WAT     H212777   7.957   4.703   1.226
 4179WAT      O12778   6.994   9.337   0.342
 4179WAT     H112779   6.968   9.300   0.253
 4179WAT     H212780   7.084   9.301   0.368
 4180WAT      O12781   7.339   0.762   0.036
 4180WAT     H112782   7.279   0.798  -0.035
 4180WAT     H212783   7.284   0.732   0.114
 4181WAT      O12784   6.004   7.067   3.856
 4181WAT     H112785   5.942   7.145   3.840
 4181WAT     H212786   6.004   7.044   3.953
 4182WAT      O12787   8.736   7.089   2.193
 4182WAT     H112788   8.718   7.143   2.275
 4182WAT     H212789   8.762   6.996   2.220
 4183WAT      O12790   7.754   1.864   9.510
 4183WAT     H112791   7.798   1.774   9.502
 4183WAT     H212792   7.737   1.901   9.419
 4184WAT      O12793   0.469   8.338   4.471
 4184WAT     H112794   0.443   8.244   4.493
 4184WAT     H212795   0.429   8.364   4.383
 4185WAT      O12796   0.779   4.134   5.635
 4185WAT     H112797   0.750   4.214   5.582
 4185WAT     H212798   0.757   4.051   5.585
 4186WAT      O12799   3.330   2.739   4.736
 4186WAT     H112800   3.241   2.693   4.730
 4186WAT     H212801   3.348   2.788   4.651
 4187WAT      O12802   3.485   5.289   4.432
 4187WAT     H112803   3.391   5.319   4.418
 4187WAT     H212804   3.519   5.323   4.520
 4188WAT      O12805   9.116   2.751   9.843
 4188WAT     H112806   9.029   2.713   9.810
 4188WAT     H212807   9.100   2.797   9.930
 4189WAT      O12808   2.779   8.562   8.804
 4189WAT     H112809   2.724   8.642   8.828
 4189WAT     H212810   2.800   8.510   8.886
 4190WAT      O12811   4.577   8.574   6.726
 4190WAT     H112812   4.597   8.501   6.792
 4190WAT     H212813   4.659   8.630   6.712
 4191WAT      O12814   8.724   3.933   1.094
 4191WAT     H112815   8.675   3.848   1.079
 4191WAT     H212816   8.821   3.921   1.070
 4192WAT      O12817   9.072   9.439   8.690
 4192WAT     H112818   8.991   9.487   8.656
 4192WAT     H212819   9.043   9.358   8.741
 4193WAT      O12820   2.223   0.702   1.071
 4193WAT     H112821   2.142   0.756   1.052
 4193WAT     H212822   2.224   0.620   1.013
 4194WAT      O12823   2.248   3.225   6.871
 4194WAT     H112824   2.192   3.216   6.953
 4194WAT     H212825   2.291   3.316   6.870
 4195WAT      O12826   1.100   2.693   7.607
 4195WAT     H112827   1.178   2.631   7.606
 4195WAT     H212828   1.099   2.747   7.523
 4196WAT      O12829   2.767   3.958   9.320
 4196WAT     H112830   2.778   3.886   9.250
 4196WAT     H212831   2.806   4.043   9.286
 4197WAT      O12832   7.910   1.457   9.696
 4197WAT     H112833   7.830   1.398   9.687
 4197WAT     H212834   7.990   1.402   9.718
 4198WAT      O12835   0.083   2.978   6.624
 4198WAT     H112836  -0.003   2.940   6.589
 4198WAT     H212837   0.120   3.042   6.557
 4199WAT      O12838   1.069   1.233   9.692
 4199WAT     H112839   1.035   1.162   9.754
 4199WAT     H212840   1.150   1.198   9.644
 4200WAT      O12841   7.022   1.014   4.209
 4200WAT     H112842   7.022   0.964   4.123
 4200WAT     H212843   7.030   1.112   4.192
 4201WAT      O12844   0.774   4.633   0.064
 4201WAT     H112845   0.819   4.609   0.150
 4201WAT     H212846   0.727   4.721   0.074
 4202WAT      O12847   0.335   7.086   5.632
 4202WAT     H112848   0.256   7.056   5.685
 4202WAT     H212849   0.305   7.114   5.541
 4203WAT      O12850   5.274   7.052   7.577
 4203WAT     H112851   5.352   6.991   7.590
 4203WAT     H212852   5.304   7.147   7.576
 4204WAT      O12853   0.209   1.446   1.381
 4204WAT     H112854   0.299   1.490   1.377
 4204WAT     H212855   0.158   1.467   1.297
 4205WAT      O12856   9.578   3.447   6.303
 4205WAT     H112857   9.676   3.465   6.298
 4205WAT     H212858   9.551   3.441   6.399
 4206WAT      O12859   2.184   4.753   9.585
 4206WAT     H112860   2.094   4.716   9.562
 4206WAT     H212861   2.211   4.821   9.516
 4207WAT      O12862   7.636   6.411   7.741
 4207WAT     H112863   7.540   6.388   7.758
 4207WAT     H212864   7.686   6.412   7.828
 4208WAT      O12865   0.935   4.159   5.888
 4208WAT     H112866   0.874   4.157   5.809
 4208WAT     H212867   0.993   4.241   5.883
 4209WAT      O12868   1.345   2.566   0.992
 4209WAT     H112869   1.302   2.525   0.912
 4209WAT     H212870   1.287   2.641   1.026
 4210WAT      O12871   3.727   7.005   6.975
 4210WAT     H112872   3.687   7.006   7.067
 4210WAT     H212873   3.766   6.915   6.957
 4211WAT      O12874   9.386   5.656   1.963
 4211WAT     H112875   9.334   5.694   2.040
 4211WAT     H212876   9.375   5.557   1.962
 4212WAT      O12877   4.291   9.344   9.266
 4212WAT     H112878   4.218   9.410   9.246
 4212WAT     H212879   4.305   9.286   9.186
 4213WAT      O12880   8.563   8.092   4.188
 4213WAT     H112881   8.566   8.007   4.136
 4213WAT     H212882   8.505   8.080   4.268
 4214WAT      O12883   4.255   6.566   6.216
 4214WAT     H112884   4.209   6.491   6.168
 4214WAT     H212885   4.197   6.647   6.215
 4215WAT      O12886   4.512   6.823   3.752
 4215WAT     H112887   4.599   6.836   3.799
 4215WAT     H212888   4.477   6.731   3.771
 4216WAT      O12889   0.436   3.346   2.381
 4216WAT     H112890   0.401   3.416   2.319
 4216WAT     H212891   0.423   3.375   2.475
 4217WAT      O12892   0.636   5.217   1.990
 4217WAT     H112893   0.563   5.253   1.932
 4217WAT     H212894   0.600   5.201   2.082
 4218WAT      O12895   2.129   7.209   4.564
 4218WAT     H112896   2.075   7.144   4.510
 4218WAT     H212897   2.196   7.254   4.505
 4219WAT      O12898   4.945   2.910   8.675
 4219WAT     H112899   4.946   2.991   8.733
 4219WAT     H212900   4.854   2.870   8.676
 4220WAT      O12901   2.452   1.243   1.101
 4220WAT     H112902   2.472   1.251   1.003
 4220WAT     H212903   2.481   1.327   1.147
 4221WAT      O12904   0.310   7.658   4.062
 4221WAT     H112905   0.375   7.617   4.126
 4221WAT     H212906   0.289   7.593   3.989
 4222WAT      O12907   1.623   4.689   6.995
 4222WAT     H112908   1.564   4.672   6.916
 4222WAT     H212909   1.634   4.604   7.047
 4223WAT      O12910   8.033   2.814   8.538
 4223WAT     H112911   8.091   2.757   8.480
 4223WAT     H212912   8.023   2.770   8.628
 4224WAT      O12913   0.607   6.246   0.525
 4224WAT     H112914   0.556   6.162   0.506
 4224WAT     H212915   0.670   6.230   0.601
 4225WAT      O12916   4.487   4.352   1.836
 4225WAT     H112917   4.563   4.354   1.901
 4225WAT     H212918   4.518   4.384   1.747
 4226WAT      O12919   8.524   9.536   5.887
 4226WAT     H112920   8.506   9.481   5.969
 4226WAT     H212921   8.437   9.556   5.842
 4227WAT      O12922   7.407   5.753   8.292
 4227WAT     H112923   7.400   5.850   8.317
 4227WAT     H212924   7.464   5.705   8.359
 4228WAT      O12925   6.891   4.744   1.898
 4228WAT     H112926   6.905   4.843   1.905
 4228WAT     H212927   6.801   4.721   1.933
 4229WAT      O12928   7.431   1.771   8.071
 4229WAT     H112929   7.351   1.829   8.090
 4229WAT     H212930   7.477   1.804   7.988
 4230WAT      O12931   5.962   2.059   5.602
 4230WAT     H112932   5.995   2.120   5.530
 4230WAT     H212933   5.978   2.101   5.692
 4231WAT      O12934   2.752   8.770   8.574
 4231WAT     H112935   2.653   8.780   8.572
 4231WAT     H212936   2.777   8.692   8.632
 4232WAT      O12937   4.345   7.395   0.167
 4232WAT     H112938   4.277   7.350   0.109
 4232WAT     H212939   4.304   7.478   0.206
 4233WAT      O12940   4.089   3.616   3.380
 4233WAT     H112941   4.161   3.653   3.439
 4233WAT     H212942   4.000   3.636   3.421
 4234WAT      O12943   6.440   6.099   1.749
 4234WAT     H112944   6.509   6.095   1.677
 4234WAT     H212945   6.442   6.015   1.802
 4235WAT      O12946   5.354   2.989   1.070
 4235WAT     H112947   5.369   3.050   1.147
 4235WAT     H212948   5.432   2.994   1.007
 4236WAT      O12949   0.701   3.385   7.696
 4236WAT     H112950   0.729   3.478   7.675
 4236WAT     H212951   0.628   3.357   7.633
 4237WAT      O12952   5.800   6.756   3.118
 4237WAT     H112953   5.888   6.738   3.162
 4237WAT     H212954   5.815   6.786   3.024
 4238WAT      O12955   7.344   7.483   9.338
 4238WAT     H112956   7.384   7.530   9.259
 4238WAT     H212957   7.388   7.393   9.348
 4239WAT      O12958   0.357   9.070   1.444
 4239WAT     H112959   0.449   9.036   1.464
 4239WAT     H212960   0.313   9.100   1.529
 4240WAT      O12961   8.959   1.684   3.983
 4240WAT     H112962   8.970   1.759   4.049
 4240WAT     H212963   8.906   1.716   3.905
 4241WAT      O12964   2.414   8.626   8.628
 4241WAT     H112965   2.316   8.648   8.629
 4241WAT     H212966   2.425   8.528   8.641
 4242WAT      O12967   4.057   4.030   4.230
 4242WAT     H112968   4.053   4.014   4.329
 4242WAT     H212969   4.124   3.968   4.189
 4243WAT      O12970   8.835   2.502   3.953
 4243WAT     H112971   8.839   2.432   4.024
 4243WAT     H212972   8.823   2.459   3.863
 4244WAT      O12973   6.176   9.201   4.234
 4244WAT     H112974   6.253   9.230   4.290
 4244WAT     H212975   6.200   9.207   4.137
 4245WAT      O12976   6.965   3.158   5.364
 4245WAT     H112977   6.980   3.177   5.461
 4245WAT     H212978   7.053   3.151   5.318
 4246WAT      O12979   4.403   7.910   6.996
 4246WAT     H112980   4.356   7.985   6.950
 4246WAT     H212981   4.356   7.824   6.975
 4247WAT      O12982   0.461   1.382   3.287
 4247WAT     H112983   0.465   1.326   3.204
 4247WAT     H212984   0.404   1.336   3.355
 4248WAT      O12985   9.584   8.984   0.950
 4248WAT     H112986   9.683   8.991   0.961
 4248WAT     H212987   9.539   9.000   1.038
 4249WAT      O12988   2.269   2.387   2.812
 4249WAT     H112989   2.300   2.449   2.740
 4249WAT     H212990   2.319   2.301   2.805
 4250WAT      O12991   4.069   5.827   4.001
 4250WAT     H112992   4.099   5.761   4.069
 4250WAT     H212993   4.148   5.874   3.962
 4251WAT      O12994   1.074   9.224   2.073
 4251WAT     H112995   1.112   9.153   2.014
 4251WAT     H212996   1.055   9.306   2.019
 4252WAT      O12997   3.407   7.599   1.216
 4252WAT     H112998   3.447   7.508   1.214
 4252WAT     H212999   3.467   7.663   1.167
 4253WAT      O13000   5.239   7.068   0.047
 4253WAT     H113001   5.209   7.015  -0.033
 4253WAT     H213002   5.171   7.139   0.068
 4254WAT      O13003   1.052   8.191   9.088
 4254WAT     H113004   1.136   8.178   9.140
 4254WAT     H213005   0.974   8.195   9.151
 4255WAT      O13006   6.291   6.605   4.027
 4255WAT     H113007   6.344   6.520   4.038
 4255WAT     H213008   6.319   6.671   4.096
 4256WAT      O13009   8.013   2.174   9.203
 4256WAT     H113010   8.028   2.236   9.280
 4256WAT     H213011   8.099   2.131   9.176
 4257WAT      O13012   2.928   8.396   6.473
 4257WAT     H113013   3.017   8.365   6.506
 4257WAT     H213014   2.924   8.496   6.478
 4258WAT      O13015   5.158   5.304   4.860
 4258WAT     H113016   5.240   5.289   4.805
 4258WAT     H213017   5.138   5.402   4.865
 4259WAT      O13018   9.432   9.294   2.903
 4259WAT     H113019   9.445   9.301   3.001
 4259WAT     H213020   9.336   9.315   2.881
 4260WAT      O13021   6.634   1.249   3.001
 4260WAT     H113022   6.709   1.185   2.985
 4260WAT     H213023   6.624   1.308   2.921
 4261WAT      O13024   6.249   6.941   9.204
 4261WAT     H113025   6.248   6.873   9.131
 4261WAT     H213026   6.258   7.033   9.165
 4262WAT      O13027   2.478   9.462   2.675
 4262WAT     H113028   2.509   9.534   2.737
 4262WAT     H213029   2.379   9.472   2.660
 4263WAT      O13030   8.145   2.899   4.187
 4263WAT     H113031   8.201   2.978   4.212
 4263WAT     H213032   8.174   2.820   4.240
 4264WAT      O13033   1.016   6.200   2.065
 4264WAT     H113034   0.964   6.257   2.128
 4264WAT     H213035   1.111   6.231   2.062
 4265WAT      O13036   6.163   9.740   4.245
 4265WAT     H113037   6.239   9.793   4.207
 4265WAT     H213038   6.199   9.665   4.300
 4266WAT      O13039   7.626   5.659   7.811
 4266WAT     H113040   7.635   5.758   7.821
 4266WAT     H213041   7.561   5.639   7.738
 4267WAT      O13042   3.808   3.293   5.383
 4267WAT     H113043   3.879   3.284   5.313
 4267WAT     H213044   3.850   3.325   5.468
 4268WAT      O13045   9.337   4.708   4.691
 4268WAT     H113046   9.354   4.667   4.601
 4268WAT     H213047   9.246   4.749   4.692
 4269WAT      O13048   2.658   6.247   1.107
 4269WAT     H113049   2.645   6.301   1.190
 4269WAT     H213050   2.754   6.220   1.100
 4270WAT      O13051   5.804   6.186   3.496
 4270WAT     H113052   5.828   6.243   3.575
 4270WAT     H213053   5.751   6.241   3.431
 4271WAT      O13054   1.748   8.509   8.500
 4271WAT     H113055   1.774   8.508   8.404
 4271WAT     H213056   1.650   8.531   8.508
 4272WAT      O13057   8.310   6.915   1.450
 4272WAT     H113058   8.236   6.851   1.433
 4272WAT     H213059   8.331   6.916   1.548
 4273WAT      O13060   4.770   1.290   0.424
 4273WAT     H113061   4.804   1.214   0.481
 4273WAT     H213062   4.771   1.374   0.478
 4274WAT      O13063   2.238   6.138   0.787
 4274WAT     H113064   2.271   6.210   0.849
 4274WAT     H213065   2.237   6.172   0.693
 4275WAT      O13066   0.661   5.092   9.262
 4275WAT     H113067   0.592   5.164   9.259
 4275WAT     H213068   0.701   5.087   9.354
 4276WAT      O13069   3.956   8.045   2.198
 4276WAT     H113070   3.938   8.039   2.296
 4276WAT     H213071   3.914   8.129   2.162
 4277WAT      O13072   5.550   7.135   2.962
 4277WAT     H113073   5.583   7.222   2.925
 4277WAT     H213074   5.509   7.150   3.052
 4278WAT      O13075   7.317   8.724   3.411
 4278WAT     H113076   7.245   8.658   3.432
 4278WAT     H213077   7.397   8.676   3.375
 4279WAT      O13078   6.388   5.019   6.771
 4279WAT     H113079   6.348   4.928   6.762
 4279WAT     H213080   6.392   5.062   6.681
 4280WAT      O13081   1.282   2.669   1.890
 4280WAT     H113082   1.365   2.724   1.885
 4280WAT     H213083   1.291   2.601   1.963
 4281WAT      O13084   0.887   3.390   6.789
 4281WAT     H113085   0.896   3.472   6.733
 4281WAT     H213086   0.868   3.311   6.730
 4282WAT      O13087   6.742   1.484   4.044
 4282WAT     H113088   6.673   1.424   4.083
 4282WAT     H213089   6.813   1.501   4.114
 4283WAT      O13090   9.565   6.647   6.506
 4283WAT     H113091   9.584   6.582   6.579
 4283WAT     H213092   9.517   6.726   6.543
 4284WAT      O13093   1.490   6.084   0.496
 4284WAT     H113094   1.463   6.017   0.564
 4284WAT     H213095   1.512   6.037   0.410
 4285WAT      O13096   4.281   4.174   1.774
 4285WAT     H113097   4.275   4.086   1.821
 4285WAT     H213098   4.369   4.216   1.792
 4286WAT      O13099   9.156   8.008   3.701
 4286WAT     H113100   9.208   8.047   3.778
 4286WAT     H213101   9.062   8.040   3.706
 4287WAT      O13102   0.819   0.761   7.849
 4287WAT     H113103   0.850   0.853   7.825
 4287WAT     H213104   0.861   0.694   7.788
 4288WAT      O13105   2.910   5.990   3.281
 4288WAT     H113106   2.907   6.053   3.204
 4288WAT     H213107   2.911   6.042   3.367
 4289WAT      O13108   4.301   1.303   8.042
 4289WAT     H113109   4.274   1.215   8.001
 4289WAT     H213110   4.341   1.361   7.972
 4290WAT      O13111   1.949   0.078   5.578
 4290WAT     H113112   1.971   0.025   5.496
 4290WAT     H213113   1.879   0.146   5.557
 4291WAT      O13114   4.919   0.612   7.093
 4291WAT     H113115   4.822   0.610   7.070
 4291WAT     H213116   4.935   0.554   7.173
 4292WAT      O13117   7.307   6.846   9.649
 4292WAT     H113118   7.214   6.811   9.643
 4292WAT     H213119   7.338   6.841   9.744
 4293WAT      O13120   3.552   8.737   0.834
 4293WAT     H113121   3.637   8.699   0.798
 4293WAT     H213122   3.474   8.693   0.789
 4294WAT      O13123   8.723   7.127   7.885
 4294WAT     H113124   8.677   7.163   7.966
 4294WAT     H213125   8.803   7.183   7.865
 4295WAT      O13126   8.761   5.896   3.257
 4295WAT     H113127   8.770   5.859   3.349
 4295WAT     H213128   8.848   5.936   3.228
 4296WAT      O13129   9.195   5.598   7.701
 4296WAT     H113130   9.194   5.502   7.672
 4296WAT     H213131   9.198   5.603   7.801
 4297WAT      O13132   7.588   9.703   8.871
 4297WAT     H113133   7.639   9.776   8.915
 4297WAT     H213134   7.581   9.624   8.932
 4298WAT      O13135   0.083   1.740   3.802
 4298WAT     H113136   0.113   1.658   3.755
 4298WAT     H213137   0.014   1.716   3.871
 4299WAT      O13138   0.699   2.640   0.602
 4299WAT     H113139   0.603   2.614   0.611
 4299WAT     H213140   0.727   2.689   0.685
 4300WAT      O13141   3.551   2.239   5.396
 4300WAT     H113142   3.493   2.277   5.468
 4300WAT     H213143   3.497   2.222   5.314
 4301WAT      O13144   4.518   9.494   8.293
 4301WAT     H113145   4.423   9.518   8.315
 4301WAT     H213146   4.538   9.402   8.327
 4302WAT      O13147   8.311   8.614   5.954
 4302WAT     H113148   8.274   8.634   6.045
 4302WAT     H213149   8.333   8.517   5.948
 4303WAT      O13150   0.502   5.484   9.091
 4303WAT     H113151   0.496   5.397   9.141
 4303WAT     H213152   0.447   5.553   9.139
 4304WAT      O13153   2.688   9.385   9.725
 4304WAT     H113154   2.692   9.291   9.759
 4304WAT     H213155   2.775   9.431   9.743
 4305WAT      O13156   0.293   4.011   5.593
 4305WAT     H113157   0.237   3.937   5.630
 4305WAT     H213158   0.387   4.002   5.626
 4306WAT      O13159   1.023   4.675   8.768
 4306WAT     H113160   0.945   4.629   8.726
 4306WAT     H213161   1.039   4.638   8.859
 4307WAT      O13162   3.168   8.666   2.283
 4307WAT     H113163   3.151   8.630   2.375
 4307WAT     H213164   3.234   8.741   2.288
 4308WAT      O13165   4.309   8.051   8.840
 4308WAT     H113166   4.358   8.077   8.924
 4308WAT     H213167   4.212   8.076   8.850
 4309WAT      O13168   0.929   3.873   2.266
 4309WAT     H113169   0.931   3.773   2.267
 4309WAT     H213170   0.914   3.907   2.359
 4310WAT      O13171   1.967   6.785   5.424
 4310WAT     H113172   1.877   6.770   5.383
 4310WAT     H213173   1.989   6.709   5.486
 4311WAT      O13174   3.454   3.881   4.301
 4311WAT     H113175   3.459   3.783   4.281
 4311WAT     H213176   3.543   3.914   4.333
 4312WAT      O13177   5.247   5.908   6.708
 4312WAT     H113178   5.302   5.860   6.776
 4312WAT     H213179   5.219   5.843   6.637
 4313WAT      O13180   5.835   1.624   2.807
 4313WAT     H113181   5.822   1.644   2.904
 4313WAT     H213182   5.755   1.653   2.755
 4314WAT      O13183   3.301   0.692   6.474
 4314WAT     H113184   3.260   0.717   6.386
 4314WAT     H213185   3.389   0.649   6.459
 4315WAT      O13186   4.000   9.371   3.129
 4315WAT     H113187   4.043   9.399   3.043
 4315WAT     H213188   3.912   9.418   3.139
 4316WAT      O13189   6.317   4.150   9.610
 4316WAT     H113190   6.330   4.227   9.547
 4316WAT     H213191   6.384   4.156   9.684
 4317WAT      O13192   2.635   0.860   0.458
 4317WAT     H113193   2.622   0.829   0.553
 4317WAT     H213194   2.549   0.897   0.423
 4318WAT      O13195   2.696   8.724   6.831
 4318WAT     H113196   2.722   8.804   6.778
 4318WAT     H213197   2.600   8.732   6.858
 4319WAT      O13198   2.950   1.643   7.900
 4319WAT     H113199   2.950   1.620   7.803
 4319WAT     H213200   2.857   1.634   7.937
 4320WAT      O13201   5.066   2.859   7.857
 4320WAT     H113202   5.155   2.832   7.819
 4320WAT     H213203   5.024   2.927   7.797
 4321WAT      O13204   2.221   2.718   3.536
 4321WAT     H113205   2.255   2.800   3.581
 4321WAT     H213206   2.255   2.716   3.442
 4322WAT      O13207   1.175   8.837   8.973
 4322WAT     H113208   1.220   8.754   9.006
 4322WAT     H213209   1.150   8.895   9.050
 4323WAT      O13210   6.531   3.935   5.954
 4323WAT     H113211   6.515   4.018   5.901
 4323WAT     H213212   6.563   3.862   5.894
 4324WAT      O13213   7.553   7.951   3.365
 4324WAT     H113214   7.574   8.034   3.416
 4324WAT     H213215   7.526   7.975   3.271
 4325WAT      O13216   3.990   2.378   5.676
 4325WAT     H113217   3.952   2.468   5.654
 4325WAT     H213218   3.917   2.316   5.702
 4326WAT      O13219   4.518   1.966   4.190
 4326WAT     H113220   4.426   1.997   4.210
 4326WAT     H213221   4.514   1.890   4.125
 4327WAT      O13222   7.189   9.022   8.472
 4327WAT     H113223   7.221   8.971   8.392
 4327WAT     H213224   7.156   9.112   8.444
 4328WAT      O13225   2.843   8.049   4.867
 4328WAT     H113226   2.857   8.063   4.965
 4328WAT     H213227   2.931   8.045   4.820
 4329WAT      O13228   1.312   6.969   0.538
 4329WAT     H113229   1.251   6.955   0.616
 4329WAT     H213230   1.266   6.940   0.454
 4330WAT      O13231   2.982   7.301   7.498
 4330WAT     H113232   2.897   7.263   7.535
 4330WAT     H213233   3.005   7.252   7.413
 4331WAT      O13234   5.541   6.319   8.927
 4331WAT     H113235   5.504   6.380   8.997
 4331WAT     H213236   5.592   6.374   8.860
 4332WAT      O13237   0.531   1.548   6.116
 4332WAT     H113238   0.435   1.573   6.103
 4332WAT     H213239   0.542   1.449   6.107
 4333WAT      O13240   8.780   4.596   4.109
 4333WAT     H113241   8.683   4.595   4.130
 4333WAT     H213242   8.825   4.519   4.156
 4334WAT      O13243   4.828   6.181   0.891
 4334WAT     H113244   4.861   6.204   0.800
 4334WAT     H213245   4.805   6.265   0.940
 4335WAT      O13246   3.368   6.852   9.200
 4335WAT     H113247   3.348   6.802   9.285
 4335WAT     H213248   3.286   6.855   9.143
 4336WAT      O13249   9.630   6.834   1.649
 4336WAT     H113250   9.706   6.781   1.613
 4336WAT     H213251   9.559   6.842   1.579
 4337WAT      O13252   1.073   2.416   2.570
 4337WAT     H113253   1.158   2.451   2.609
 4337WAT     H213254   1.022   2.491   2.528
 4338WAT      O13255   2.869   9.219   0.454
 4338WAT     H113256   2.783   9.269   0.441
 4338WAT     H213257   2.940   9.282   0.486
 4339WAT      O13258   3.749   2.177   4.841
 4339WAT     H113259   3.654   2.150   4.856
 4339WAT     H213260   3.801   2.098   4.809
 4340WAT      O13261   5.282   0.523   1.919
 4340WAT     H113262   5.275   0.444   1.980
 4340WAT     H213263   5.210   0.517   1.849
 4341WAT      O13264   3.809   8.407   9.194
 4341WAT     H113265   3.858   8.476   9.142
 4341WAT     H213266   3.749   8.355   9.133
 4342WAT      O13267   4.503   8.374   5.237
 4342WAT     H113268   4.492   8.278   5.263
 4342WAT     H213269   4.581   8.383   5.175
 4343WAT      O13270   0.561   8.270   0.449
 4343WAT     H113271   0.550   8.182   0.494
 4343WAT     H213272   0.491   8.281   0.378
 4344WAT      O13273   3.794   6.706   5.996
 4344WAT     H113274   3.733   6.752   5.931
 4344WAT     H213275   3.860   6.651   5.946
 4345WAT      O13276   4.533   0.502   6.333
 4345WAT     H113277   4.619   0.469   6.293
 4345WAT     H213278   4.492   0.429   6.388
 4346WAT      O13279   5.691   1.093   7.252
 4346WAT     H113280   5.649   1.012   7.294
 4346WAT     H213281   5.760   1.063   7.185
 4347WAT      O13282   5.255   9.283   2.649
 4347WAT     H113283   5.203   9.207   2.688
 4347WAT     H213284   5.234   9.367   2.698
 4348WAT      O13285   5.767   3.174   6.924
 4348WAT     H113286   5.841   3.126   6.877
 4348WAT     H213287   5.747   3.259   6.876
 4349WAT      O13288   6.345   0.229   2.657
 4349WAT     H113289   6.280   0.261   2.588
 4349WAT     H213290   6.438   0.250   2.628
 4350WAT      O13291   8.802   1.378   4.908
 4350WAT     H113292   8.755   1.416   4.828
 4350WAT     H213293   8.741   1.384   4.987
 4351WAT      O13294   7.332   1.270   4.218
 4351WAT     H113295   7.362   1.282   4.313
 4351WAT     H213296   7.408   1.289   4.157
 4352WAT      O13297   2.298   4.033   5.894
 4352WAT     H113298   2.384   4.011   5.849
 4352WAT     H213299   2.287   3.975   5.975
 4353WAT      O13300   9.542   8.664   3.470
 4353WAT     H113301   9.518   8.675   3.373
 4353WAT     H213302   9.466   8.625   3.520
 4354WAT      O13303   7.827   9.729   4.387
 4354WAT     H113304   7.814   9.761   4.481
 4354WAT     H213305   7.755   9.663   4.364
 4355WAT      O13306   4.029   7.799   8.149
 4355WAT     H113307   4.033   7.823   8.246
 4355WAT     H213308   4.120   7.772   8.118
 4356WAT      O13309   1.682   1.707   3.706
 4356WAT     H113310   1.599   1.763   3.704
 4356WAT     H213311   1.740   1.736   3.782
 4357WAT      O13312   1.142   9.602   7.838
 4357WAT     H113313   1.190   9.564   7.759
 4357WAT     H213314   1.190   9.684   7.869
 4358WAT      O13315   4.947   7.410   3.911
 4358WAT     H113316   4.996   7.475   3.968
 4358WAT     H213317   4.855   7.397   3.947
 4359WAT      O13318   9.164   0.817   5.988
 4359WAT     H113319   9.220   0.900   5.993
 4359WAT     H213320   9.075   0.834   6.029
 4360WAT      O13321   3.718   0.586   3.884
 4360WAT     H113322   3.700   0.682   3.859
 4360WAT     H213323   3.650   0.527   3.841
 4361WAT      O13324   8.879   0.404   1.958
 4361WAT     H113325   8.940   0.476   1.926
 4361WAT     H213326   8.786   0.422   1.927
 4362WAT      O13327   1.357   9.453   4.642
 4362WAT     H113328   1.398   9.415   4.725
 4362WAT     H213329   1.406   9.419   4.562
 4363WAT      O13330   4.321   6.363   5.653
 4363WAT     H113331   4.328   6.286   5.589
 4363WAT     H213332   4.304   6.447   5.602
 4364WAT      O13333   7.589   5.593   8.521
 4364WAT     H113334   7.597   5.534   8.441
 4364WAT     H213335   7.504   5.573   8.569
 4365WAT      O13336   1.009   0.112   2.801
 4365WAT     H113337   1.098   0.091   2.840
 4365WAT     H213338   0.972   0.195   2.842
 4366WAT      O13339   2.735   0.557   0.070
 4366WAT     H113340   2.799   0.606   0.011
 4366WAT     H213341   2.783   0.484   0.118
 4367WAT      O13342   0.556   2.354   8.739
 4367WAT     H113343   0.525   2.449   8.747
 4367WAT     H213344   0.483   2.292   8.767
 4368WAT      O13345   6.776   1.794   1.410
 4368WAT     H113346   6.829   1.761   1.332
 4368WAT     H213347   6.836   1.807   1.488
 4369WAT      O13348   7.189   6.638   1.735
 4369WAT     H113349   7.185   6.679   1.643
 4369WAT     H213350   7.151   6.702   1.801
 4370WAT      O13351   8.563   4.550   5.285
 4370WAT     H113352   8.484   4.559   5.345
 4370WAT     H213353   8.561   4.460   5.241
 4371WAT      O13354   2.637   0.722   6.839
 4371WAT     H113355   2.628   0.821   6.834
 4371WAT     H213356   2.598   0.681   6.756
 4372WAT      O13357   4.302   0.757   2.953
 4372WAT     H113358   4.355   0.801   3.026
 4372WAT     H213359   4.286   0.823   2.880
 4373WAT      O13360   2.317   7.499   4.099
 4373WAT     H113361   2.408   7.460   4.083
 4373WAT     H213362   2.264   7.435   4.154
 4374WAT      O13363   8.283   3.261   1.316
 4374WAT     H113364   8.320   3.178   1.358
 4374WAT     H213365   8.259   3.327   1.387
 4375WAT      O13366   5.468   3.075   0.669
 4375WAT     H113367   5.546   3.131   0.639
 4375WAT     H213368   5.448   3.007   0.599
 4376WAT      O13369   7.046   0.425   1.455
 4376WAT     H113370   7.142   0.420   1.482
 4376WAT     H213371   6.990   0.442   1.536
 4377WAT      O13372   6.572   4.796   0.352
 4377WAT     H113373   6.621   4.836   0.274
 4377WAT     H213374   6.473   4.805   0.337
 4378WAT      O13375   7.978   1.395   2.263
 4378WAT     H113376   8.046   1.322   2.257
 4378WAT     H213377   7.915   1.388   2.185
 4379WAT      O13378   8.254   4.949   7.588
 4379WAT     H113379   8.159   4.933   7.615
 4379WAT     H213380   8.273   4.903   7.502
 4380WAT      O13381   9.548   7.235   8.749
 4380WAT     H113382   9.580   7.330   8.744
 4380WAT     H213383   9.610   7.182   8.807
 4381WAT      O13384   8.939   5.668   6.452
 4381WAT     H113385   8.910   5.596   6.515
 4381WAT     H213386   8.893   5.655   6.363
 4382WAT      O13387   5.930   0.635   2.188
 4382WAT     H113388   5.989   0.682   2.123
 4382WAT     H213389   5.835   0.642   2.158
 4383WAT      O13390   2.117   7.153   6.760
 4383WAT     H113391   2.045   7.084   6.769
 4383WAT     H213392   2.153   7.152   6.666
 4384WAT      O13393   3.251   4.904   4.931
 4384WAT     H113394   3.256   4.934   5.026
 4384WAT     H213395   3.246   4.804   4.928
 4385WAT      O13396   2.000   7.468   2.075
 4385WAT     H113397   1.996   7.389   2.013
 4385WAT     H213398   1.975   7.551   2.025
 4386WAT      O13399   3.155   1.333   9.644
 4386WAT     H113400   3.197   1.264   9.702
 4386WAT     H213401   3.109   1.401   9.700
 4387WAT      O13402   9.720   3.222   6.577
 4387WAT     H113403   9.764   3.202   6.490
 4387WAT     H213404   9.774   3.289   6.628
 4388WAT      O13405   1.945   7.037   8.588
 4388WAT     H113406   1.958   6.958   8.649
 4388WAT     H213407   1.985   7.016   8.499
 4389WAT      O13408   7.817   0.332   8.351
 4389WAT     H113409   7.886   0.261   8.359
 4389WAT     H213410   7.729   0.291   8.326
 4390WAT      O13411   3.462   6.164   3.786
 4390WAT     H113412   3.488   6.084   3.840
 4390WAT     H213413   3.536   6.230   3.784
 4391WAT      O13414   9.784   7.601   9.328
 4391WAT     H113415   9.694   7.638   9.303
 4391WAT     H213416   9.827   7.662   9.394
 4392WAT      O13417   7.787   8.629   3.922
 4392WAT     H113418   7.837   8.580   3.995
 4392WAT     H213419   7.826   8.720   3.911
 4393WAT      O13420   5.014   2.623   8.875
 4393WAT     H113421   4.988   2.562   8.950
 4393WAT     H213422   5.020   2.571   8.790
 4394WAT      O13423   3.251   3.379   0.208
 4394WAT     H113424   3.311   3.459   0.202
 4394WAT     H213425   3.262   3.323   0.126
 4395WAT      O13426   9.885   0.158   7.494
 4395WAT     H113427   9.899   0.150   7.593
 4395WAT     H213428   9.797   0.202   7.477
 4396WAT      O13429   0.033   9.102   3.274
 4396WAT     H113430   0.064   9.133   3.364
 4396WAT     H213431   0.111   9.096   3.212
 4397WAT      O13432   6.090   4.770   1.946
 4397WAT     H113433   6.008   4.757   2.003
 4397WAT     H213434   6.141   4.684   1.942
 4398WAT      O13435   5.328   6.333   8.654
 4398WAT     H113436   5.402   6.279   8.615
 4398WAT     H213437   5.303   6.297   8.743
 4399WAT      O13438   4.962   9.157   7.733
 4399WAT     H113439   4.955   9.098   7.813
 4399WAT     H213440   5.031   9.120   7.670
 4400WAT      O13441   5.752   9.361   4.574
 4400WAT     H113442   5.844   9.321   4.579
 4400WAT     H213443   5.684   9.288   4.578
 4401WAT      O13444   5.090   0.217   8.322
 4401WAT     H113445   5.075   0.280   8.399
 4401WAT     H213446   5.127   0.131   8.357
 4402WAT      O13447   5.853   7.553   2.774
 4402WAT     H113448   5.857   7.575   2.676
 4402WAT     H213449   5.911   7.616   2.825
 4403WAT      O13450   8.023   0.667   8.191
 4403WAT     H113451   8.016   0.754   8.240
 4403WAT     H213452   8.073   0.601   8.247
 4404WAT      O13453   8.939   4.848   5.826
 4404WAT     H113454   8.856   4.843   5.770
 4404WAT     H213455   8.917   4.890   5.915
 4405WAT      O13456   3.536   5.589   3.755
 4405WAT     H113457   3.620   5.582   3.808
 4405WAT     H213458   3.554   5.565   3.659
 4406WAT      O13459   4.099   1.566   9.211
 4406WAT     H113460   4.098   1.499   9.137
 4406WAT     H213461   4.078   1.520   9.297
 4407WAT      O13462   9.090   2.829   7.322
 4407WAT     H113463   9.091   2.759   7.394
 4407WAT     H213464   9.160   2.808   7.254
 4408WAT      O13465   1.920   6.790   3.042
 4408WAT     H113466   1.982   6.790   3.121
 4408WAT     H213467   1.827   6.810   3.073
 4409WAT      O13468   1.320   2.789   9.631
 4409WAT     H113469   1.281   2.811   9.720
 4409WAT     H213470   1.250   2.801   9.560
 4410WAT      O13471   6.157   7.756   3.964
 4410WAT     H113472   6.177   7.849   3.996
 4410WAT     H213473   6.099   7.710   4.031
 4411WAT      O13474   6.871   0.466   5.083
 4411WAT     H113475   6.801   0.535   5.099
 4411WAT     H213476   6.831   0.375   5.093
 4412WAT      O13477   3.415   9.572   8.503
 4412WAT     H113478   3.438   9.541   8.595
 4412WAT     H213479   3.352   9.507   8.460
 4413WAT      O13480   9.223   4.526   4.013
 4413WAT     H113481   9.228   4.430   3.985
 4413WAT     H213482   9.304   4.574   3.981
 4414WAT      O13483   2.379   9.204   8.177
 4414WAT     H113484   2.375   9.288   8.123
 4414WAT     H213485   2.357   9.225   8.272
 4415WAT      O13486   7.651   0.059   0.376
 4415WAT     H113487   7.615   0.147   0.346
 4415WAT     H213488   7.685   0.067   0.470
 4416WAT      O13489   2.453   6.757   9.690
 4416WAT     H113490   2.376   6.808   9.727
 4416WAT     H213491   2.427   6.662   9.676
 4417WAT      O13492   2.492   3.155   4.314
 4417WAT     H113493   2.464   3.216   4.240
 4417WAT     H213494   2.526   3.069   4.276
 4418WAT      O13495   3.950   4.095   5.453
 4418WAT     H113496   4.041   4.070   5.421
 4418WAT     H213497   3.951   4.189   5.487
 4419WAT      O13498   3.769   3.117   8.010
 4419WAT     H113499   3.778   3.065   8.095
 4419WAT     H213500   3.747   3.055   7.935
 4420WAT      O13501   3.072   2.786   7.126
 4420WAT     H113502   2.983   2.795   7.081
 4420WAT     H213503   3.144   2.798   7.058
 4421WAT      O13504   1.038   5.984   6.995
 4421WAT     H113505   0.981   6.065   6.984
 4421WAT     H213506   1.035   5.929   6.912
 4422WAT      O13507   5.593   1.687   0.257
 4422WAT     H113508   5.677   1.732   0.228
 4422WAT     H213509   5.538   1.750   0.312
 4423WAT      O13510   4.327   2.935   9.233
 4423WAT     H113511   4.398   2.865   9.234
 4423WAT     H213512   4.359   3.013   9.178
 4424WAT      O13513   2.679   7.765   2.839
 4424WAT     H113514   2.584   7.770   2.871
 4424WAT     H213515   2.733   7.835   2.885
 4425WAT      O13516   5.754   3.314   6.386
 4425WAT     H113517   5.654   3.320   6.397
 4425WAT     H213518   5.798   3.381   6.445
 4426WAT      O13519   6.138   0.897   9.263
 4426WAT     H113520   6.160   0.858   9.353
 4426WAT     H213521   6.194   0.852   9.193
 4427WAT      O13522   0.101   7.788   4.203
 4427WAT     H113523   0.193   7.754   4.185
 4427WAT     H213524   0.104   7.886   4.222
 4428WAT      O13525   5.558   4.426   6.871
 4428WAT     H113526   5.542   4.404   6.775
 4428WAT     H213527   5.534   4.347   6.928
 4429WAT      O13528   8.735   3.008   2.035
 4429WAT     H113529   8.820   2.970   2.072
 4429WAT     H213530   8.713   3.093   2.083
 4430WAT      O13531   9.728   5.868   7.374
 4430WAT     H113532   9.793   5.943   7.358
 4430WAT     H213533   9.651   5.902   7.428
 4431WAT      O13534   0.785   9.432   0.977
 4431WAT     H113535   0.749   9.480   0.897
 4431WAT     H213536   0.803   9.337   0.954
 4432WAT      O13537   5.714   7.987   4.479
 4432WAT     H113538   5.616   7.981   4.459
 4432WAT     H213539   5.764   8.002   4.394
 4433WAT      O13540   5.073   6.715   2.575
 4433WAT     H113541   4.999   6.651   2.592
 4433WAT     H213542   5.040   6.789   2.516
 4434WAT      O13543   5.565   1.428   9.563
 4434WAT     H113544   5.639   1.419   9.630
 4434WAT     H213545   5.587   1.374   9.482
 4435WAT      O13546   1.544   2.450   1.905
 4435WAT     H113547   1.472   2.414   1.847
 4435WAT     H213548   1.566   2.544   1.878
 4436WAT      O13549   0.612   3.751   0.610
 4436WAT     H113550   0.607   3.653   0.629
 4436WAT     H213551   0.632   3.765   0.513
 4437WAT      O13552   5.595   0.741   8.691
 4437WAT     H113553   5.523   0.797   8.730
 4437WAT     H213554   5.560   0.649   8.673
 4438WAT      O13555   3.452   1.773   5.952
 4438WAT     H113556   3.550   1.791   5.941
 4438WAT     H213557   3.405   1.859   5.970
 4439WAT      O13558   7.678   6.982   9.788
 4439WAT     H113559   7.710   7.013   9.698
 4439WAT     H213560   7.750   6.997   9.856
 4440WAT      O13561   4.177   5.138   3.405
 4440WAT     H113562   4.240   5.142   3.483
 4440WAT     H213563   4.087   5.172   3.434
 4441WAT      O13564   9.608   4.416   0.387
 4441WAT     H113565   9.629   4.512   0.368
 4441WAT     H213566   9.512   4.398   0.364
 4442WAT      O13567   9.741   6.209   2.859
 4442WAT     H113568   9.747   6.118   2.900
 4442WAT     H213569   9.695   6.272   2.922
 4443WAT      O13570   4.070   9.414   6.374
 4443WAT     H113571   3.994   9.477   6.358
 4443WAT     H213572   4.132   9.415   6.296
 4444WAT      O13573   1.305   8.937   3.738
 4444WAT     H113574   1.246   8.939   3.658
 4444WAT     H213575   1.345   8.846   3.749
 4445WAT      O13576   5.309   6.967   1.247
 4445WAT     H113577   5.291   7.032   1.321
 4445WAT     H213578   5.228   6.912   1.231
 4446WAT      O13579   1.173   2.377   1.113
 4446WAT     H113580   1.265   2.402   1.083
 4446WAT     H213581   1.132   2.315   1.046
 4447WAT      O13582   5.509   6.801   6.025
 4447WAT     H113583   5.457   6.881   5.995
 4447WAT     H213584   5.545   6.753   5.945
 4448WAT      O13585   3.163   6.285   5.957
 4448WAT     H113586   3.166   6.382   5.982
 4448WAT     H213587   3.183   6.275   5.860
 4449WAT      O13588   8.256   5.827   5.406
 4449WAT     H113589   8.205   5.911   5.388
 4449WAT     H213590   8.346   5.850   5.441
 4450WAT      O13591   0.736   8.622   5.820
 4450WAT     H113592   0.655   8.587   5.771
 4450WAT     H213593   0.739   8.584   5.912
 4451WAT      O13594   0.929   3.865   1.949
 4451WAT     H113595   0.919   3.929   1.872
 4451WAT     H213596   0.910   3.912   2.035
 4452WAT      O13597   7.073   7.789   2.421
 4452WAT     H113598   6.998   7.844   2.457
 4452WAT     H213599   7.141   7.774   2.493
 4453WAT      O13600   3.199   1.693   0.172
 4453WAT     H113601   3.101   1.678   0.180
 4453WAT     H213602   3.247   1.607   0.189
 4454WAT      O13603   7.157   2.628   6.454
 4454WAT     H113604   7.227   2.571   6.412
 4454WAT     H213605   7.067   2.589   6.437
 4455WAT      O13606   4.807   7.750   0.501
 4455WAT     H113607   4.856   7.806   0.568
 4455WAT     H213608   4.869   7.683   0.462
 4456WAT      O13609   0.541   2.970   4.889
 4456WAT     H113610   0.519   3.031   4.812
 4456WAT     H213611   0.632   2.931   4.876
 4457WAT      O13612   5.010   0.552   2.698
 4457WAT     H113613   5.028   0.485   2.626
 4457WAT     H213614   4.937   0.614   2.669
 4458WAT      O13615   3.882   3.447   5.094
 4458WAT     H113616   3.953   3.390   5.135
 4458WAT     H213617   3.862   3.524   5.154
 4459WAT      O13618   8.714   0.207   0.910
 4459WAT     H113619   8.652   0.265   0.964
 4459WAT     H213620   8.799   0.257   0.893
 4460WAT      O13621   6.879   7.629   2.787
 4460WAT     H113622   6.897   7.726   2.772
 4460WAT     H213623   6.815   7.596   2.717
 4461WAT      O13624   0.138   5.312   0.463
 4461WAT     H113625   0.107   5.218   0.478
 4461WAT     H213626   0.228   5.325   0.505
 4462WAT      O13627   1.551   7.910   7.892
 4462WAT     H113628   1.459   7.873   7.879
 4462WAT     H213629   1.548   7.983   7.960
 4463WAT      O13630   0.289   4.489   5.511
 4463WAT     H113631   0.242   4.577   5.521
 4463WAT     H213632   0.235   4.429   5.451
 4464WAT      O13633   6.051   9.569   3.218
 4464WAT     H113634   6.124   9.637   3.218
 4464WAT     H213635   5.965   9.612   3.190
 4465WAT      O13636   8.158   8.019   5.046
 4465WAT     H113637   8.065   8.003   5.079
 4465WAT     H213638   8.222   7.963   5.098
 4466WAT      O13639   0.429   7.277   3.722
 4466WAT     H113640   0.420   7.332   3.805
 4466WAT     H213641   0.442   7.337   3.643
 4467WAT      O13642   5.744   5.000   3.810
 4467WAT     H113643   5.737   5.065   3.886
 4467WAT     H213644   5.811   4.929   3.833
 4468WAT      O13645   8.368   9.798   2.848
 4468WAT     H113646   8.430   9.858   2.900
 4468WAT     H213647   8.408   9.780   2.758
 4469WAT      O13648   9.086   6.236   3.457
 4469WAT     H113649   9.134   6.149   3.474
 4469WAT     H213650   9.006   6.241   3.516
 4470WAT      O13651   0.662   0.120   5.231
 4470WAT     H113652   0.570   0.156   5.221
 4470WAT     H213653   0.713   0.131   5.146
 4471WAT      O13654   8.949   4.405   6.305
 4471WAT     H113655   9.020   4.335   6.305
 4471WAT     H213656   8.896   4.398   6.390
 4472WAT      O13657   0.600   1.693   3.755
 4472WAT     H113658   0.642   1.741   3.678
 4472WAT     H213659   0.647   1.607   3.771
 4473WAT      O13660   5.656   4.870   6.031
 4473WAT     H113661   5.578   4.919   6.068
 4473WAT     H213662   5.634   4.773   6.023
 4474WAT      O13663   3.767   8.651   9.582
 4474WAT     H113664   3.836   8.723   9.578
 4474WAT     H213665   3.686   8.684   9.629
 4475WAT      O13666   6.365   8.465   6.557
 4475WAT     H113667   6.325   8.488   6.469
 4475WAT     H213668   6.375   8.549   6.612
 4476WAT      O13669   1.316   1.374   7.699
 4476WAT     H113670   1.357   1.465   7.692
 4476WAT     H213671   1.246   1.364   7.629
 4477WAT      O13672   8.799   4.823   2.459
 4477WAT     H113673   8.862   4.760   2.413
 4477WAT     H213674   8.803   4.913   2.414
 4478WAT      O13675   6.790   0.099   4.572
 4478WAT     H113676   6.825   0.098   4.478
 4478WAT     H213677   6.808   0.188   4.613
 4479WAT      O13678   6.709   9.532   6.649
 4479WAT     H113679   6.647   9.606   6.676
 4479WAT     H213680   6.756   9.497   6.730
 4480WAT      O13681   0.725   6.218   7.601
 4480WAT     H113682   0.817   6.247   7.625
 4480WAT     H213683   0.666   6.299   7.592
 4481WAT      O13684   2.839   4.982   7.963
 4481WAT     H113685   2.859   5.002   7.867
 4481WAT     H213686   2.898   4.907   7.994
 4482WAT      O13687   2.184   1.641   3.626
 4482WAT     H113688   2.280   1.666   3.618
 4482WAT     H213689   2.171   1.587   3.709
 4483WAT      O13690   7.160   6.719   1.484
 4483WAT     H113691   7.224   6.771   1.428
 4483WAT     H213692   7.103   6.662   1.425
 4484WAT      O13693   9.290   2.417   5.524
 4484WAT     H113694   9.226   2.392   5.452
 4484WAT     H213695   9.263   2.504   5.565
 4485WAT      O13696   0.414   1.145   5.089
 4485WAT     H113697   0.363   1.068   5.052
 4485WAT     H213698   0.352   1.206   5.138
 4486WAT      O13699   6.104   2.849   5.060
 4486WAT     H113700   6.152   2.764   5.038
 4486WAT     H213701   6.008   2.830   5.077
 4487WAT      O13702   0.528   0.878   5.644
 4487WAT     H113703   0.612   0.930   5.656
 4487WAT     H213704   0.534   0.793   5.696
 4488WAT      O13705   3.157   4.207   3.651
 4488WAT     H113706   3.124   4.299   3.629
 4488WAT     H213707   3.142   4.188   3.748
 4489WAT      O13708   4.545   0.459   1.361
 4489WAT     H113709   4.510   0.370   1.390
 4489WAT     H213710   4.469   0.525   1.357
 4490WAT      O13711   0.422   6.047   0.457
 4490WAT     H113712   0.343   6.097   0.490
 4490WAT     H213713   0.432   5.962   0.509
 4491WAT      O13714   1.553   5.494   2.835
 4491WAT     H113715   1.645   5.463   2.810
 4491WAT     H213716   1.553   5.594   2.846
 4492WAT      O13717   1.349   4.565   5.526
 4492WAT     H113718   1.269   4.517   5.563
 4492WAT     H213719   1.335   4.581   5.428
 4493WAT      O13720   9.823   7.809   1.553
 4493WAT     H113721   9.905   7.778   1.505
 4493WAT     H213722   9.744   7.802   1.493
 4494WAT      O13723   3.161   9.457   6.511
 4494WAT     H113724   3.122   9.527   6.571
 4494WAT     H213725   3.253   9.434   6.542
 4495WAT      O13726   3.137   7.185   3.064
 4495WAT     H113727   3.147   7.087   3.079
 4495WAT     H213728   3.181   7.235   3.139
 4496WAT      O13729   0.354   5.817   4.891
 4496WAT     H113730   0.416   5.851   4.962
 4496WAT     H213731   0.315   5.895   4.842
 4497WAT      O13732   3.768   4.426   6.246
 4497WAT     H113733   3.866   4.422   6.223
 4497WAT     H213734   3.719   4.355   6.196
 4498WAT      O13735   7.054   3.256   3.895
 4498WAT     H113736   6.987   3.288   3.828
 4498WAT     H213737   7.061   3.322   3.970
 4499WAT      O13738   6.977   7.021   0.028
 4499WAT     H113739   6.974   7.064  -0.062
 4499WAT     H213740   7.011   6.927   0.020
 4500WAT      O13741   8.597   1.255   4.374
 4500WAT     H113742   8.572   1.164   4.342
 4500WAT     H213743   8.514   1.303   4.406
 4501WAT      O13744   6.496   2.783   5.435
 4501WAT     H113745   6.566   2.724   5.393
 4501WAT     H213746   6.527   2.878   5.432
 4502WAT      O13747   2.953   5.916   7.222
 4502WAT     H113748   2.989   5.974   7.294
 4502WAT     H213749   2.906   5.837   7.263
 4503WAT      O13750   9.408   1.074   0.477
 4503WAT     H113751   9.461   0.997   0.442
 4503WAT     H213752   9.467   1.154   0.487
 4504WAT      O13753   9.115   4.869   4.681
 4504WAT     H113754   9.106   4.911   4.590
 4504WAT     H213755   9.026   4.863   4.724
 4505WAT      O13756   0.516   1.242   8.267
 4505WAT     H113757   0.548   1.331   8.300
 4505WAT     H213758   0.560   1.169   8.320
 4506WAT      O13759   2.522   3.682   4.468
 4506WAT     H113760   2.510   3.690   4.369
 4506WAT     H213761   2.581   3.604   4.488
 4507WAT      O13762   2.047   2.580   2.501
 4507WAT     H113763   1.949   2.572   2.483
 4507WAT     H213764   2.061   2.637   2.582
 4508WAT      O13765   7.966   0.816   6.891
 4508WAT     H113766   8.038   0.747   6.895
 4508WAT     H213767   7.881   0.777   6.925
 4509WAT      O13768   8.446   5.186   2.803
 4509WAT     H113769   8.441   5.277   2.764
 4509WAT     H213770   8.370   5.131   2.768
 4510WAT      O13771   6.942   0.886   5.979
 4510WAT     H113772   6.977   0.937   6.058
 4510WAT     H213773   6.853   0.846   6.002
 4511WAT      O13774   3.144   3.151   1.895
 4511WAT     H113775   3.236   3.167   1.859
 4511WAT     H213776   3.123   3.053   1.889
 4512WAT      O13777   0.435   2.128   6.297
 4512WAT     H113778   0.534   2.138   6.288
 4512WAT     H213779   0.389   2.194   6.238
 4513WAT      O13780   8.003   1.084   9.364
 4513WAT     H113781   7.925   1.025   9.385
 4513WAT     H213782   8.053   1.105   9.448
 4514WAT      O13783   5.056   4.838   9.600
 4514WAT     H113784   5.111   4.785   9.535
 4514WAT     H213785   4.960   4.831   9.575
 4515WAT      O13786   5.389   7.367   1.416
 4515WAT     H113787   5.309   7.411   1.376
 4515WAT     H213788   5.472   7.400   1.369
 4516WAT      O13789   2.830   4.952   4.673
 4516WAT     H113790   2.796   5.032   4.623
 4516WAT     H213791   2.920   4.972   4.711
 4517WAT      O13792   1.689   8.438   5.327
 4517WAT     H113793   1.609   8.384   5.354
 4517WAT     H213794   1.703   8.429   5.229
 4518WAT      O13795   4.262   1.971   8.706
 4518WAT     H113796   4.257   2.045   8.638
 4518WAT     H213797   4.251   2.010   8.798
 4519WAT      O13798   6.210   2.932   5.306
 4519WAT     H113799   6.182   2.886   5.221
 4519WAT     H213800   6.139   2.921   5.375
 4520WAT      O13801   8.965   7.972   8.812
 4520WAT     H113802   9.032   7.908   8.849
 4520WAT     H213803   8.995   8.004   8.722
 4521WAT      O13804   0.122   0.054   5.592
 4521WAT     H113805   0.034   0.012   5.616
 4521WAT     H213806   0.128   0.063   5.493
 4522WAT      O13807   5.581   1.305   5.825
 4522WAT     H113808   5.642   1.384   5.825
 4522WAT     H213809   5.537   1.297   5.915
 4523WAT      O13810   1.672   8.866   1.589
 4523WAT     H113811   1.634   8.783   1.630
 4523WAT     H213812   1.653   8.944   1.650
 4524WAT      O13813   4.901   2.850   6.302
 4524WAT     H113814   4.817   2.796   6.307
 4524WAT     H213815   4.888   2.937   6.351
 4525WAT      O13816   5.554   0.430   5.586
 4525WAT     H113817   5.624   0.502   5.587
 4525WAT     H213818   5.485   0.450   5.655
 4526WAT      O13819   9.527   1.461   1.077
 4526WAT     H113820   9.481   1.542   1.116
 4526WAT     H213821   9.560   1.403   1.151
 4527WAT      O13822   4.956   4.220   1.506
 4527WAT     H113823   4.913   4.253   1.590
 4527WAT     H213824   4.967   4.121   1.510
 4528WAT      O13825   8.238   7.606   2.145
 4528WAT     H113826   8.255   7.520   2.192
 4528WAT     H213827   8.285   7.605   2.056
 4529WAT      O13828   0.610   8.362   6.040
 4529WAT     H113829   0.549   8.284   6.054
 4529WAT     H213830   0.705   8.331   6.041
 4530WAT      O13831   8.145   4.965   5.174
 4530WAT     H113832   8.191   5.010   5.097
 4530WAT     H213833   8.198   4.885   5.202
 4531WAT      O13834   1.913   6.950   7.947
 4531WAT     H113835   1.884   7.026   7.888
 4531WAT     H213836   1.943   6.873   7.891
 4532WAT      O13837   4.120   8.309   5.777
 4532WAT     H113838   4.076   8.229   5.735
 4532WAT     H213839   4.121   8.384   5.711
 4533WAT      O13840   6.822   7.176   2.750
 4533WAT     H113841   6.783   7.089   2.719
 4533WAT     H213842   6.918   7.161   2.776
 4534WAT      O13843   1.415   3.677   1.450
 4534WAT     H113844   1.503   3.630   1.446
 4534WAT     H213845   1.360   3.639   1.525
 4535WAT      O13846   5.724   7.617   3.145
 4535WAT     H113847   5.821   7.631   3.123
 4535WAT     H213848   5.674   7.703   3.132
 4536WAT      O13849   2.985   1.790   8.657
 4536WAT     H113850   3.036   1.740   8.588
 4536WAT     H213851   3.033   1.786   8.745
 4537WAT      O13852   5.862   5.022   7.806
 4537WAT     H113853   5.908   4.997   7.891
 4537WAT     H213854   5.788   5.086   7.825
 4538WAT      O13855   8.031   6.041   3.818
 4538WAT     H113856   7.977   6.123   3.839
 4538WAT     H213857   8.039   6.031   3.719
 4539WAT      O13858   8.174   3.202   1.054
 4539WAT     H113859   8.212   3.235   1.140
 4539WAT     H213860   8.236   3.136   1.013
 4540WAT      O13861   6.762   6.002   9.886
 4540WAT     H113862   6.694   5.969   9.951
 4540WAT     H213863   6.734   5.978   9.793
 4541WAT      O13864   1.280   8.214   7.979
 4541WAT     H113865   1.312   8.219   7.884
 4541WAT     H213866   1.262   8.306   8.013
 4542WAT      O13867   1.058   0.460   8.890
 4542WAT     H113868   1.120   0.533   8.919
 4542WAT     H213869   1.112   0.382   8.857
 4543WAT      O13870   7.093   3.246   0.794
 4543WAT     H113871   7.013   3.242   0.733
 4543WAT     H213872   7.066   3.220   0.886
 4544WAT      O13873   8.867   0.050   3.578
 4544WAT     H113874   8.836   0.117   3.644
 4544WAT     H213875   8.815   0.060   3.493
 4545WAT      O13876   7.445   2.025   3.151
 4545WAT     H113877   7.401   2.054   3.066
 4545WAT     H213878   7.544   2.021   3.138
 4546WAT      O13879   8.454   8.685   1.640
 4546WAT     H113880   8.493   8.776   1.654
 4546WAT     H213881   8.524   8.616   1.658
 4547WAT      O13882   1.564   2.551   8.743
 4547WAT     H113883   1.561   2.651   8.755
 4547WAT     H213884   1.654   2.525   8.708
 4548WAT      O13885   1.479   6.286   6.198
 4548WAT     H113886   1.567   6.260   6.159
 4548WAT     H213887   1.484   6.285   6.298
 4549WAT      O13888   2.639   1.736   6.461
 4549WAT     H113889   2.646   1.716   6.558
 4549WAT     H213890   2.684   1.664   6.408
 4550WAT      O13891   1.917   5.885   9.590
 4550WAT     H113892   1.837   5.940   9.566
 4550WAT     H213893   1.908   5.852   9.684
 4551WAT      O13894   2.793   2.708   8.679
 4551WAT     H113895   2.703   2.710   8.634
 4551WAT     H213896   2.829   2.614   8.676
 4552WAT      O13897   0.700   0.241   2.227
 4552WAT     H113898   0.739   0.187   2.152
 4552WAT     H213899   0.603   0.216   2.238
 4553WAT      O13900   9.042   5.167   6.574
 4553WAT     H113901   8.955   5.193   6.616
 4553WAT     H213902   9.112   5.162   6.645
 4554WAT      O13903   4.249   3.374   8.601
 4554WAT     H113904   4.210   3.281   8.607
 4554WAT     H213905   4.285   3.389   8.509
 4555WAT      O13906   4.601   8.097   8.080
 4555WAT     H113907   4.596   8.025   8.012
 4555WAT     H213908   4.573   8.061   8.169
 4556WAT      O13909   3.562   0.044   2.611
 4556WAT     H113910   3.482   0.055   2.552
 4556WAT     H213911   3.625   0.120   2.596
 4557WAT      O13912   9.232   1.735   2.573
 4557WAT     H113913   9.246   1.794   2.494
 4557WAT     H213914   9.182   1.653   2.545
 4558WAT      O13915   3.668   3.346   4.973
 4558WAT     H113916   3.585   3.377   5.020
 4558WAT     H213917   3.748   3.379   5.022
 4559WAT      O13918   1.954   4.598   6.005
 4559WAT     H113919   1.936   4.678   5.948
 4559WAT     H213920   2.038   4.552   5.975
 4560WAT      O13921   2.373   4.936   5.611
 4560WAT     H113922   2.359   4.860   5.547
 4560WAT     H213923   2.284   4.975   5.636
 4561WAT      O13924   4.915   1.449   4.603
 4561WAT     H113925   4.867   1.537   4.598
 4561WAT     H213926   4.885   1.391   4.527
 4562WAT      O13927   2.339   6.297   4.536
 4562WAT     H113928   2.259   6.237   4.529
 4562WAT     H213929   2.422   6.241   4.540
 4563WAT      O13930   3.092   5.528   4.738
 4563WAT     H113931   3.062   5.506   4.645
 4563WAT     H213932   3.035   5.601   4.775
 4564WAT      O13933   0.181   1.086   2.373
 4564WAT     H113934   0.219   1.120   2.287
 4564WAT     H213935   0.255   1.076   2.440
 4565WAT      O13936   7.259   1.613   7.407
 4565WAT     H113937   7.262   1.539   7.339
 4565WAT     H213938   7.216   1.693   7.365
 4566WAT      O13939   9.667   0.175   0.188
 4566WAT     H113940   9.647   0.109   0.260
 4566WAT     H213941   9.713   0.129   0.112
 4567WAT      O13942   5.439   1.049   0.242
 4567WAT     H113943   5.535   1.024   0.231
 4567WAT     H213944   5.383   0.995   0.180
 4568WAT      O13945   0.991   3.073   1.410
 4568WAT     H113946   1.005   3.109   1.502
 4568WAT     H213947   0.955   3.146   1.351
 4569WAT      O13948   2.042   8.100   8.388
 4569WAT     H113949   2.006   8.007   8.399
 4569WAT     H213950   2.102   8.122   8.465
 4570WAT      O13951   1.800   2.866   1.590
 4570WAT     H113952   1.895   2.879   1.561
 4570WAT     H213953   1.741   2.862   1.509
 4571WAT      O13954   0.032   2.244   3.597
 4571WAT     H113955   0.002   2.235   3.692
 4571WAT     H213956  -0.036   2.202   3.537
 4572WAT      O13957   7.568   9.734   9.265
 4572WAT     H113958   7.596   9.811   9.322
 4572WAT     H213959   7.472   9.713   9.282
 4573WAT      O13960   0.281   7.350   0.259
 4573WAT     H113961   0.277   7.447   0.235
 4573WAT     H213962   0.365   7.310   0.222
 4574WAT      O13963   5.644   3.359   0.171
 4574WAT     H113964   5.561   3.329   0.219
 4574WAT     H213965   5.625   3.443   0.121
 4575WAT      O13966   0.736   0.484   8.520
 4575WAT     H113967   0.739   0.573   8.566
 4575WAT     H213968   0.773   0.414   8.581
 4576WAT      O13969   1.829   4.979   0.610
 4576WAT     H113970   1.743   4.937   0.640
 4576WAT     H213971   1.831   5.074   0.641
 4577WAT      O13972   2.215   4.706   8.528
 4577WAT     H113973   2.169   4.687   8.615
 4577WAT     H213974   2.298   4.651   8.521
 4578WAT      O13975   2.656   1.247   7.244
 4578WAT     H113976   2.624   1.213   7.332
 4578WAT     H213977   2.630   1.343   7.233
 4579WAT      O13978   3.156   7.648   8.462
 4579WAT     H113979   3.227   7.716   8.446
 4579WAT     H213980   3.137   7.599   8.377
 4580WAT      O13981   3.961   1.841   8.379
 4580WAT     H113982   3.899   1.883   8.445
 4580WAT     H213983   3.981   1.906   8.306
 4581WAT      O13984   8.817   7.994   1.932
 4581WAT     H113985   8.847   7.903   1.960
 4581WAT     H213986   8.718   8.003   1.949
 4582WAT      O13987   3.272   2.826   9.875
 4582WAT     H113988   3.214   2.785   9.805
 4582WAT     H213989   3.229   2.910   9.909
 4583WAT      O13990   6.189   6.220   2.094
 4583WAT     H113991   6.223   6.284   2.025
 4583WAT     H213992   6.091   6.205   2.081
 4584WAT      O13993   8.698   6.609   2.330
 4584WAT     H113994   8.791   6.579   2.351
 4584WAT     H213995   8.648   6.624   2.416
 4585WAT      O13996   1.860   0.477   0.625
 4585WAT     H113997   1.763   0.452   0.622
 4585WAT     H213998   1.887   0.494   0.719
 4586WAT      O13999   0.568   7.985   5.084
 4586WAT     H114000   0.506   8.010   5.010
 4586WAT     H214001   0.622   8.065   5.111
 4587WAT      O14002   3.713   2.448   5.204
 4587WAT     H114003   3.650   2.404   5.269
 4587WAT     H214004   3.662   2.508   5.143
 4588WAT      O14005   3.883   4.146   3.611
 4588WAT     H114006   3.899   4.111   3.703
 4588WAT     H214007   3.950   4.107   3.548
 4589WAT      O14008   1.147   5.904   9.062
 4589WAT     H114009   1.211   5.969   9.102
 4589WAT     H214010   1.063   5.952   9.036
 4590WAT      O14011   7.932   6.913   4.900
 4590WAT     H114012   8.026   6.911   4.866
 4590WAT     H214013   7.929   6.956   4.990
 4591WAT      O14014   1.007   5.867   8.771
 4591WAT     H114015   0.915   5.863   8.808
 4591WAT     H214016   1.036   5.776   8.743
 4592WAT      O14017   3.440   6.086   9.645
 4592WAT     H114018   3.379   6.012   9.616
 4592WAT     H214019   3.524   6.047   9.682
 4593WAT      O14020   9.263   4.200   5.023
 4593WAT     H114021   9.193   4.173   4.957
 4593WAT     H214022   9.270   4.300   5.024
 4594WAT      O14023   6.897   9.408   9.327
 4594WAT     H114024   6.943   9.380   9.412
 4594WAT     H214025   6.806   9.443   9.348
 4595WAT      O14026   3.861   1.431   4.375
 4595WAT     H114027   3.892   1.454   4.468
 4595WAT     H214028   3.831   1.336   4.373
 4596WAT      O14029   1.299   9.023   3.352
 4596WAT     H114030   1.247   8.971   3.419
 4596WAT     H214031   1.390   9.044   3.389
 4597WAT      O14032   8.036   3.116   8.767
 4597WAT     H114033   7.972   3.192   8.764
 4597WAT     H214034   7.995   3.040   8.818
 4598WAT      O14035   9.037   4.804   3.535
 4598WAT     H114036   9.110   4.735   3.534
 4598WAT     H214037   9.073   4.891   3.502
 4599WAT      O14038   8.574   1.260   7.638
 4599WAT     H114039   8.569   1.322   7.715
 4599WAT     H214040   8.503   1.283   7.571
 4600WAT      O14041   3.810   3.224   2.093
 4600WAT     H114042   3.847   3.239   2.001
 4600WAT     H214043   3.873   3.262   2.161
 4601WAT      O14044   8.185   8.761   0.902
 4601WAT     H114045   8.264   8.699   0.902
 4601WAT     H214046   8.108   8.717   0.857
 4602WAT      O14047   8.028   6.846   8.853
 4602WAT     H114048   8.027   6.749   8.877
 4602WAT     H214049   7.934   6.877   8.838
 4603WAT      O14050   7.098   3.804   7.868
 4603WAT     H114051   7.022   3.768   7.814
 4603WAT     H214052   7.181   3.750   7.850
 4604WAT      O14053   6.752   2.552   2.386
 4604WAT     H114054   6.654   2.534   2.382
 4604WAT     H214055   6.770   2.644   2.351
 4605WAT      O14056   0.432   3.238   9.471
 4605WAT     H114057   0.378   3.289   9.538
 4605WAT     H214058   0.400   3.143   9.467
 4606WAT      O14059   1.613   5.416   6.684
 4606WAT     H114060   1.580   5.475   6.758
 4606WAT     H214061   1.707   5.388   6.704
 4607WAT      O14062   0.191   2.806   1.138
 4607WAT     H114063   0.165   2.723   1.089
 4607WAT     H214064   0.108   2.853   1.170
 4608WAT      O14065   9.099   5.493   6.799
 4608WAT     H114066   9.156   5.516   6.720
 4608WAT     H214067   9.056   5.576   6.835
 4609WAT      O14068   7.237   6.210   6.617
 4609WAT     H114069   7.331   6.185   6.637
 4609WAT     H214070   7.223   6.307   6.637
 4610WAT      O14071   7.513   9.701   0.974
 4610WAT     H114072   7.476   9.762   1.044
 4610WAT     H214073   7.470   9.721   0.886
 4611WAT      O14074   2.174   6.549   4.656
 4611WAT     H114075   2.240   6.474   4.645
 4611WAT     H214076   2.114   6.530   4.733
 4612WAT      O14077   5.661   5.271   3.317
 4612WAT     H114078   5.585   5.241   3.259
 4612WAT     H214079   5.659   5.220   3.404
 4613WAT      O14080   3.281   7.838   3.605
 4613WAT     H114081   3.206   7.774   3.587
 4613WAT     H214082   3.335   7.850   3.522
 4614WAT      O14083   0.362   7.735   7.442
 4614WAT     H114084   0.419   7.724   7.360
 4614WAT     H214085   0.270   7.700   7.423
 4615WAT      O14086   7.626   1.239   9.369
 4615WAT     H114087   7.551   1.226   9.434
 4615WAT     H214088   7.669   1.151   9.350
 4616WAT      O14089   4.004   8.118   0.741
 4616WAT     H114090   4.088   8.072   0.771
 4616WAT     H214091   3.938   8.049   0.709
 4617WAT      O14092   2.128   5.616   8.370
 4617WAT     H114093   2.132   5.622   8.271
 4617WAT     H214094   2.060   5.681   8.405
 4618WAT      O14095   2.424   1.502   2.235
 4618WAT     H114096   2.436   1.421   2.177
 4618WAT     H214097   2.507   1.558   2.229
 4619WAT      O14098   4.284   3.818   8.798
 4619WAT     H114099   4.305   3.750   8.868
 4619WAT     H214100   4.259   3.904   8.842
 4620WAT      O14101   6.977   3.470   6.473
 4620WAT     H114102   7.019   3.437   6.388
 4620WAT     H214103   6.981   3.570   6.475
 4621WAT      O14104   9.612   7.001   8.592
 4621WAT     H114105   9.612   6.915   8.643
 4621WAT     H214106   9.554   7.067   8.640
 4622WAT      O14107   8.035   7.136   1.104
 4622WAT     H114108   7.935   7.136   1.111
 4622WAT     H214109   8.066   7.228   1.081
 4623WAT      O14110   6.812   3.278   6.597
 4623WAT     H114111   6.733   3.267   6.537
 4623WAT     H214112   6.860   3.362   6.574
 4624WAT      O14113   8.502   3.957   6.238
 4624WAT     H114114   8.410   3.976   6.273
 4624WAT     H214115   8.514   4.001   6.149
 4625WAT      O14116   6.209   9.837   6.304
 4625WAT     H114117   6.270   9.876   6.235
 4625WAT     H214118   6.254   9.841   6.393
 4626WAT      O14119   8.889   2.415   1.643
 4626WAT     H114120   8.827   2.491   1.623
 4626WAT     H214121   8.954   2.404   1.568
 4627WAT      O14122   1.468   4.559   3.440
 4627WAT     H114123   1.415   4.616   3.377
 4627WAT     H214124   1.518   4.490   3.389
 4628WAT      O14125   1.098   0.440   4.303
 4628WAT     H114126   1.077   0.422   4.207
 4628WAT     H214127   1.015   0.467   4.351
 4629WAT      O14128   0.883   3.724   0.973
 4629WAT     H114129   0.854   3.799   1.032
 4629WAT     H214130   0.893   3.757   0.879
 4630WAT      O14131   5.420   5.558   6.486
 4630WAT     H114132   5.395   5.650   6.459
 4630WAT     H214133   5.356   5.492   6.445
 4631WAT      O14134   8.412   3.374   1.055
 4631WAT     H114135   8.355   3.456   1.056
 4631WAT     H214136   8.429   3.343   1.149
 4632WAT      O14137   0.039   7.311   2.231
 4632WAT     H114138   0.051   7.211   2.229
 4632WAT     H214139  -0.040   7.336   2.174
 4633WAT      O14140   3.001   9.342   2.566
 4633WAT     H114141   3.082   9.388   2.528
 4633WAT     H214142   2.967   9.275   2.500
 4634WAT      O14143   5.331   0.903   3.416
 4634WAT     H114144   5.311   0.883   3.319
 4634WAT     H214145   5.306   0.824   3.471
 4635WAT      O14146   5.123   6.909   6.892
 4635WAT     H114147   5.151   7.002   6.915
 4635WAT     H214148   5.203   6.857   6.859
 4636WAT      O14149   2.641   4.776   0.656
 4636WAT     H114150   2.716   4.784   0.590
 4636WAT     H214151   2.675   4.796   0.747
 4637WAT      O14152   8.348   2.662   6.389
 4637WAT     H114153   8.263   2.714   6.394
 4637WAT     H214154   8.425   2.721   6.413
 4638WAT      O14155   8.061   2.995   3.259
 4638WAT     H114156   8.107   2.989   3.348
 4638WAT     H214157   7.974   2.946   3.263
 4639WAT      O14158   9.394   1.508   9.700
 4639WAT     H114159   9.450   1.435   9.660
 4639WAT     H214160   9.407   1.509   9.799
 4640WAT      O14161   6.024   3.298   7.749
 4640WAT     H114162   6.119   3.298   7.719
 4640WAT     H214163   6.014   3.357   7.829
 4641WAT      O14164   1.494   8.409   1.806
 4641WAT     H114165   1.474   8.354   1.886
 4641WAT     H214166   1.410   8.421   1.752
 4642WAT      O14167   1.222   3.057   4.187
 4642WAT     H114168   1.243   2.961   4.201
 4642WAT     H214169   1.285   3.114   4.239
 4643WAT      O14170   0.671   0.442   0.273
 4643WAT     H114171   0.665   0.360   0.216
 4643WAT     H214172   0.626   0.426   0.360
 4644WAT      O14173   9.196   2.790   3.707
 4644WAT     H114174   9.267   2.772   3.639
 4644WAT     H214175   9.186   2.711   3.767
 4645WAT      O14176   6.454   0.220   5.094
 4645WAT     H114177   6.451   0.317   5.069
 4645WAT     H214178   6.372   0.196   5.146
 4646WAT      O14179   9.019   5.723   4.423
 4646WAT     H114180   8.967   5.656   4.370
 4646WAT     H214181   8.982   5.815   4.408
 4647WAT      O14182   2.118   8.196   0.766
 4647WAT     H114183   2.060   8.119   0.792
 4647WAT     H214184   2.124   8.261   0.842
 4648WAT      O14185   1.205   7.958   2.968
 4648WAT     H114186   1.170   8.051   2.983
 4648WAT     H214187   1.162   7.895   3.033
 4649WAT      O14188   4.930   9.363   7.304
 4649WAT     H114189   5.000   9.308   7.259
 4649WAT     H214190   4.861   9.303   7.345
 4650WAT      O14191   5.676   6.277   3.263
 4650WAT     H114192   5.743   6.257   3.191
 4650WAT     H214193   5.605   6.338   3.228
 4651WAT      O14194   2.938   2.965   1.535
 4651WAT     H114195   2.955   2.883   1.589
 4651WAT     H214196   3.024   2.998   1.496
 4652WAT      O14197   0.241   2.699   6.287
 4652WAT     H114198   0.153   2.730   6.251
 4652WAT     H214199   0.248   2.725   6.384
 4653WAT      O14200   2.564   5.393   7.150
 4653WAT     H114201   2.496   5.408   7.079
 4653WAT     H214202   2.573   5.476   7.205
 4654WAT      O14203   4.864   2.442   5.344
 4654WAT     H114204   4.854   2.422   5.247
 4654WAT     H214205   4.797   2.512   5.371
 4655WAT      O14206   2.402   6.662   9.425
 4655WAT     H114207   2.437   6.719   9.352
 4655WAT     H214208   2.319   6.703   9.464
 4656WAT      O14209   4.358   7.897   7.343
 4656WAT     H114210   4.326   7.846   7.422
 4656WAT     H214211   4.454   7.923   7.356
 4657WAT      O14212   2.688   0.807   2.049
 4657WAT     H114213   2.622   0.733   2.034
 4657WAT     H214214   2.756   0.777   2.117
 4658WAT      O14215   2.593   7.420   0.788
 4658WAT     H114216   2.580   7.470   0.873
 4658WAT     H214217   2.690   7.414   0.767
 4659WAT      O14218   7.714   6.138   0.628
 4659WAT     H114219   7.633   6.109   0.680
 4659WAT     H214220   7.777   6.061   0.618
 4660WAT      O14221   6.284   5.135   1.035
 4660WAT     H114222   6.276   5.232   1.011
 4660WAT     H214223   6.242   5.119   1.124
 4661WAT      O14224   5.432   5.392   6.129
 4661WAT     H114225   5.413   5.484   6.095
 4661WAT     H214226   5.528   5.385   6.156
 4662WAT      O14227   4.108   9.255   5.204
 4662WAT     H114228   4.059   9.340   5.185
 4662WAT     H214229   4.205   9.266   5.179
 4663WAT      O14230   3.477   8.627   9.347
 4663WAT     H114231   3.544   8.559   9.377
 4663WAT     H214232   3.400   8.627   9.411
 4664WAT      O14233   4.707   4.027   6.112
 4664WAT     H114234   4.670   4.089   6.043
 4664WAT     H214235   4.739   3.943   6.068
 4665WAT      O14236   1.314   0.170   9.868
 4665WAT     H114237   1.251   0.131   9.935
 4665WAT     H214238   1.399   0.195   9.913
 4666WAT      O14239   3.564   3.971   0.324
 4666WAT     H114240   3.626   4.029   0.272
 4666WAT     H214241   3.517   3.908   0.262
 4667WAT      O14242   7.267   2.749   9.062
 4667WAT     H114243   7.221   2.660   9.053
 4667WAT     H214244   7.358   2.735   9.101
 4668WAT      O14245   0.074   8.673   9.810
 4668WAT     H114246  -0.005   8.710   9.760
 4668WAT     H214247   0.101   8.585   9.770
 4669WAT      O14248   5.534   4.284   7.687
 4669WAT     H114249   5.589   4.307   7.768
 4669WAT     H214250   5.538   4.185   7.672
 4670WAT      O14251   7.188   3.580   5.881
 4670WAT     H114252   7.272   3.612   5.838
 4670WAT     H214253   7.210   3.529   5.964
 4671WAT      O14254   3.873   4.798   3.516
 4671WAT     H114255   3.847   4.872   3.578
 4671WAT     H214256   3.966   4.813   3.482
 4672WAT      O14257   9.191   4.766   1.456
 4672WAT     H114258   9.138   4.683   1.475
 4672WAT     H214259   9.237   4.757   1.368
 4673WAT      O14260   8.613   4.206   1.721
 4673WAT     H114261   8.541   4.191   1.789
 4673WAT     H214262   8.702   4.199   1.765
 4674WAT      O14263   8.795   1.387   3.383
 4674WAT     H114264   8.836   1.297   3.365
 4674WAT     H214265   8.822   1.418   3.475
 4675WAT      O14266   5.618   8.013   0.755
 4675WAT     H114267   5.659   8.001   0.664
 4675WAT     H214268   5.690   8.011   0.824
 4676WAT      O14269   8.232   7.105   2.266
 4676WAT     H114270   8.269   7.107   2.173
 4676WAT     H214271   8.146   7.054   2.267
 4677WAT      O14272   1.133   9.430   4.486
 4677WAT     H114273   1.221   9.477   4.479
 4677WAT     H214274   1.147   9.337   4.520
 4678WAT      O14275   8.854   7.215   1.974
 4678WAT     H114276   8.803   7.163   2.042
 4678WAT     H214277   8.823   7.189   1.882
 4679WAT      O14278   0.395   6.918   2.510
 4679WAT     H114279   0.488   6.883   2.512
 4679WAT     H214280   0.336   6.853   2.462
 4680WAT      O14281   4.667   5.276   3.357
 4680WAT     H114282   4.757   5.268   3.398
 4680WAT     H214283   4.624   5.361   3.387
 4681WAT      O14284   7.428   4.448   9.586
 4681WAT     H114285   7.393   4.527   9.534
 4681WAT     H214286   7.527   4.441   9.573
 4682WAT      O14287   0.280   6.071   7.789
 4682WAT     H114288   0.336   5.991   7.768
 4682WAT     H214289   0.184   6.045   7.789
 4683WAT      O14290   0.774   7.146   9.731
 4683WAT     H114291   0.774   7.067   9.792
 4683WAT     H214292   0.781   7.230   9.785
 4684WAT      O14293   6.090   2.529   9.062
 4684WAT     H114294   6.139   2.570   9.139
 4684WAT     H214295   6.083   2.595   8.988
 4685WAT      O14296   9.720   7.028   4.490
 4685WAT     H114297   9.769   6.991   4.410
 4685WAT     H214298   9.774   7.101   4.530
 4686WAT      O14299   6.973   1.879   3.223
 4686WAT     H114300   6.886   1.927   3.224
 4686WAT     H214301   6.984   1.831   3.136
 4687WAT      O14302   9.632   5.556   8.991
 4687WAT     H114303   9.584   5.638   9.025
 4687WAT     H214304   9.611   5.479   9.051
 4688WAT      O14305   9.013   1.526   2.135
 4688WAT     H114306   8.995   1.619   2.169
 4688WAT     H214307   9.099   1.526   2.084
 4689WAT      O14308   1.679   8.374   4.175
 4689WAT     H114309   1.670   8.462   4.130
 4689WAT     H214310   1.646   8.302   4.114
 4690WAT      O14311   9.184   7.322   9.474
 4690WAT     H114312   9.209   7.354   9.382
 4690WAT     H214313   9.247   7.361   9.541
 4691WAT      O14314   0.386   0.620   3.097
 4691WAT     H114315   0.356   0.647   3.006
 4691WAT     H214316   0.371   0.696   3.161
 4692WAT      O14317   0.434   9.402   2.832
 4692WAT     H114318   0.403   9.368   2.921
 4692WAT     H214319   0.426   9.502   2.831
 4693WAT      O14320   5.123   9.546   8.914
 4693WAT     H114321   5.153   9.474   8.976
 4693WAT     H214322   5.192   9.619   8.912
 4694WAT      O14323   8.223   8.160   1.240
 4694WAT     H114324   8.271   8.160   1.328
 4694WAT     H214325   8.260   8.086   1.183
 4695WAT      O14326   0.239   4.658   3.720
 4695WAT     H114327   0.225   4.564   3.688
 4695WAT     H214328   0.290   4.657   3.806
 4696WAT      O14329   1.606   5.292   4.712
 4696WAT     H114330   1.533   5.252   4.767
 4696WAT     H214331   1.579   5.384   4.683
 4697WAT      O14332   2.268   7.391   3.171
 4697WAT     H114333   2.180   7.369   3.128
 4697WAT     H214334   2.282   7.332   3.251
 4698WAT      O14335   1.136   2.022   1.271
 4698WAT     H114336   1.096   2.112   1.285
 4698WAT     H214337   1.063   1.957   1.249
 4699WAT      O14338   5.454   0.453   3.397
 4699WAT     H114339   5.464   0.362   3.437
 4699WAT     H214340   5.540   0.504   3.409
 4700WAT      O14341   8.402   7.284   6.255
 4700WAT     H114342   8.383   7.212   6.188
 4700WAT     H214343   8.478   7.340   6.222
 4701WAT      O14344   3.774   1.791   7.896
 4701WAT     H114345   3.817   1.878   7.868
 4701WAT     H214346   3.844   1.731   7.936
 4702WAT      O14347   5.677   0.545   2.848
 4702WAT     H114348   5.744   0.588   2.788
 4702WAT     H214349   5.722   0.515   2.932
 4703WAT      O14350   2.577   9.673   0.027
 4703WAT     H114351   2.644   9.743   0.050
 4703WAT     H214352   2.504   9.713  -0.029
 4704WAT      O14353   6.807   1.388   6.461
 4704WAT     H114354   6.769   1.481   6.460
 4704WAT     H214355   6.744   1.326   6.416
 4705WAT      O14356   5.875   6.405   8.418
 4705WAT     H114357   5.881   6.471   8.493
 4705WAT     H214358   5.788   6.418   8.370
 4706WAT      O14359   4.472   5.735   1.616
 4706WAT     H114360   4.509   5.807   1.675
 4706WAT     H214361   4.388   5.698   1.657
 4707WAT      O14362   5.309   5.810   0.967
 4707WAT     H114363   5.403   5.777   0.964
 4707WAT     H214364   5.252   5.754   0.907
 4708WAT      O14365   0.968   9.487   3.935
 4708WAT     H114366   0.925   9.575   3.913
 4708WAT     H214367   1.037   9.501   4.007
 4709WAT      O14368   0.119   1.938   7.749
 4709WAT     H114369   0.026   1.922   7.715
 4709WAT     H214370   0.185   1.900   7.684
 4710WAT      O14371   7.018   1.599   5.807
 4710WAT     H114372   6.994   1.503   5.817
 4710WAT     H214373   7.116   1.611   5.823
 4711WAT      O14374   8.411   3.378   4.037
 4711WAT     H114375   8.357   3.324   3.973
 4711WAT     H214376   8.466   3.445   3.987
 4712WAT      O14377   7.429   5.809   1.580
 4712WAT     H114378   7.378   5.851   1.654
 4712WAT     H214379   7.375   5.735   1.539
 4713WAT      O14380   9.773   7.400   2.432
 4713WAT     H114381   9.836   7.371   2.361
 4713WAT     H214382   9.747   7.321   2.488
 4714WAT      O14383   8.898   7.273   4.956
 4714WAT     H114384   8.803   7.264   4.984
 4714WAT     H214385   8.954   7.206   5.006
 4715WAT      O14386   1.052   6.790   5.822
 4715WAT     H114387   1.030   6.851   5.897
 4715WAT     H214388   0.968   6.747   5.788
 4716WAT      O14389   2.411   1.977   7.804
 4716WAT     H114390   2.490   1.926   7.837
 4716WAT     H214391   2.430   2.012   7.712
 4717WAT      O14392   0.649   4.255   9.544
 4717WAT     H114393   0.728   4.316   9.535
 4717WAT     H214394   0.587   4.269   9.467
 4718WAT      O14395   1.969   6.374   0.534
 4718WAT     H114396   1.997   6.468   0.514
 4718WAT     H214397   1.893   6.349   0.474
 4719WAT      O14398   1.828   7.648   3.349
 4719WAT     H114399   1.757   7.682   3.288
 4719WAT     H214400   1.914   7.641   3.299
 4720WAT      O14401   1.084   4.469   3.181
 4720WAT     H114402   1.087   4.449   3.083
 4720WAT     H214403   1.073   4.384   3.233
 4721WAT      O14404   1.679   7.076   2.123
 4721WAT     H114405   1.618   7.127   2.062
 4721WAT     H214406   1.696   7.131   2.205
 4722WAT      O14407   3.357   4.705   3.184
 4722WAT     H114408   3.302   4.736   3.107
 4722WAT     H214409   3.454   4.705   3.158
 4723WAT      O14410   9.370   5.335   9.886
 4723WAT     H114411   9.439   5.353   9.957
 4723WAT     H214412   9.397   5.382   9.802
 4724WAT      O14413   1.600   6.755   0.127
 4724WAT     H114414   1.534   6.710   0.187
 4724WAT     H214415   1.629   6.691   0.056
 4725WAT      O14416   3.593   0.406   3.709
 4725WAT     H114417   3.568   0.367   3.621
 4725WAT     H214418   3.516   0.459   3.745
 4726WAT      O14419   7.442   5.631   4.762
 4726WAT     H114420   7.492   5.551   4.797
 4726WAT     H214421   7.506   5.705   4.744
 4727WAT      O14422   2.789   4.076   7.775
 4727WAT     H114423   2.857   4.049   7.708
 4727WAT     H214424   2.820   4.159   7.822
 4728WAT      O14425   2.688   8.150   1.314
 4728WAT     H114426   2.723   8.059   1.292
 4728WAT     H214427   2.754   8.199   1.371
 4729WAT      O14428   2.098   2.534   6.275
 4729WAT     H114429   2.096   2.449   6.223
 4729WAT     H214430   2.005   2.561   6.300
 4730WAT      O14431   4.479   1.644   2.205
 4730WAT     H114432   4.480   1.630   2.106
 4730WAT     H214433   4.471   1.742   2.224
 4731WAT      O14434   7.281   2.224   5.042
 4731WAT     H114435   7.298   2.182   4.953
 4731WAT     H214436   7.331   2.174   5.112
 4732WAT      O14437   0.655   2.002   1.309
 4732WAT     H114438   0.662   1.903   1.298
 4732WAT     H214439   0.586   2.023   1.379
 4733WAT      O14440   5.140   1.584   6.757
 4733WAT     H114441   5.230   1.595   6.715
 4733WAT     H214442   5.104   1.673   6.785
 4734WAT      O14443   3.089   5.777   2.495
 4734WAT     H114444   3.168   5.744   2.443
 4734WAT     H214445   3.078   5.721   2.578
 4735WAT      O14446   0.567   4.700   9.350
 4735WAT     H114447   0.627   4.723   9.426
 4735WAT     H214448   0.537   4.783   9.304
 4736WAT      O14449   2.107   5.576   3.410
 4736WAT     H114450   2.173   5.638   3.367
 4736WAT     H214451   2.126   5.482   3.379
 4737WAT      O14452   5.795   1.159   2.650
 4737WAT     H114453   5.862   1.104   2.699
 4737WAT     H214454   5.822   1.256   2.654
 4738WAT      O14455   8.182   4.554   5.277
 4738WAT     H114456   8.127   4.492   5.221
 4738WAT     H214457   8.236   4.502   5.343
 4739WAT      O14458   2.935   0.885   3.887
 4739WAT     H114459   2.936   0.907   3.789
 4739WAT     H214460   3.029   0.873   3.919
 4740WAT      O14461   7.188   9.582   1.699
 4740WAT     H114462   7.105   9.638   1.704
 4740WAT     H214463   7.216   9.557   1.792
 4741WAT      O14464   7.244   4.405   0.054
 4741WAT     H114465   7.242   4.468  -0.024
 4741WAT     H214466   7.209   4.315   0.025
 4742WAT      O14467   0.389   9.373   9.647
 4742WAT     H114468   0.329   9.337   9.719
 4742WAT     H214469   0.360   9.466   9.624
 4743WAT      O14470   3.261   8.053   4.762
 4743WAT     H114471   3.173   8.024   4.724
 4743WAT     H214472   3.251   8.140   4.809
 4744WAT      O14473   3.649   2.595   3.077
 4744WAT     H114474   3.619   2.676   3.127
 4744WAT     H214475   3.721   2.548   3.128
 4745WAT      O14476   6.015   7.536   1.915
 4745WAT     H114477   5.925   7.538   1.871
 4745WAT     H214478   6.007   7.494   2.005
 4746WAT      O14479   9.730   6.476   3.154
 4746WAT     H114480   9.686   6.565   3.165
 4746WAT     H214481   9.772   6.470   3.064
 4747WAT      O14482   7.395   8.275   0.640
 4747WAT     H114483   7.302   8.310   0.627
 4747WAT     H214484   7.401   8.232   0.731
 4748WAT      O14485   4.296   8.864   1.498
 4748WAT     H114486   4.382   8.816   1.515
 4748WAT     H214487   4.310   8.963   1.508
 4749WAT      O14488   0.558   9.126   2.039
 4749WAT     H114489   0.648   9.150   2.077
 4749WAT     H214490   0.494   9.201   2.055
 4750WAT      O14491   0.632   1.064   8.051
 4750WAT     H114492   0.617   1.090   8.147
 4750WAT     H214493   0.729   1.074   8.029
 4751WAT      O14494   2.470   5.286   1.595
 4751WAT     H114495   2.476   5.256   1.690
 4751WAT     H214496   2.548   5.344   1.573
 4752WAT      O14497   3.963   6.550   5.869
 4752WAT     H114498   4.024   6.500   5.930
 4752WAT     H214499   3.989   6.530   5.774
 4753WAT      O14500   9.075   7.396   1.206
 4753WAT     H114501   9.017   7.462   1.255
 4753WAT     H214502   9.042   7.385   1.113
 4754WAT      O14503   3.675   7.133   5.426
 4754WAT     H114504   3.755   7.186   5.400
 4754WAT     H214505   3.669   7.051   5.368
 4755WAT      O14506   2.284   1.203   4.167
 4755WAT     H114507   2.338   1.263   4.108
 4755WAT     H214508   2.325   1.201   4.258
 4756WAT      O14509   0.537   4.121   0.135
 4756WAT     H114510   0.522   4.184   0.059
 4756WAT     H214511   0.480   4.148   0.213
 4757WAT      O14512   3.489   2.837   1.109
 4757WAT     H114513   3.438   2.920   1.084
 4757WAT     H214514   3.425   2.760   1.116
 4758WAT      O14515   0.439   8.142   6.935
 4758WAT     H114516   0.494   8.066   6.970
 4758WAT     H214517   0.501   8.215   6.905
 4759WAT      O14518   3.433   3.508   1.023
 4759WAT     H114519   3.484   3.584   1.063
 4759WAT     H214520   3.357   3.544   0.969
 4760WAT      O14521   5.540   4.665   3.549
 4760WAT     H114522   5.579   4.692   3.637
 4760WAT     H214523   5.613   4.646   3.484
 4761WAT      O14524   1.586   9.700   8.918
 4761WAT     H114525   1.608   9.745   9.004
 4761WAT     H214526   1.661   9.638   8.893
 4762WAT      O14527   7.185   2.044   2.102
 4762WAT     H114528   7.144   2.011   2.188
 4762WAT     H214529   7.124   2.111   2.060
 4763WAT      O14530   7.145   4.670   9.870
 4763WAT     H114531   7.239   4.693   9.896
 4763WAT     H214532   7.084   4.683   9.948
 4764WAT      O14533   8.975   1.901   5.080
 4764WAT     H114534   8.904   1.971   5.087
 4764WAT     H214535   9.055   1.930   5.131
 4765WAT      O14536   1.679   4.872   4.075
 4765WAT     H114537   1.580   4.880   4.078
 4765WAT     H214538   1.716   4.935   4.006
 4766WAT      O14539   0.014   1.165   9.139
 4766WAT     H114540   0.047   1.240   9.197
 4766WAT     H214541   0.078   1.151   9.064
 4767WAT      O14542   5.630   5.832   0.452
 4767WAT     H114543   5.581   5.877   0.526
 4767WAT     H214544   5.636   5.894   0.373
 4768WAT      O14545   1.669   1.197   4.496
 4768WAT     H114546   1.761   1.235   4.488
 4768WAT     H214547   1.615   1.252   4.559
 4769WAT      O14548   5.112   8.729   2.842
 4769WAT     H114549   5.137   8.710   2.747
 4769WAT     H214550   5.028   8.784   2.843
 4770WAT      O14551   7.699   8.428   6.909
 4770WAT     H114552   7.704   8.500   6.839
 4770WAT     H214553   7.740   8.344   6.874
 4771WAT      O14554   1.103   3.353   7.067
 4771WAT     H114555   1.126   3.338   6.971
 4771WAT     H214556   1.131   3.274   7.121
 4772WAT      O14557   5.453   4.913   0.216
 4772WAT     H114558   5.371   4.960   0.183
 4772WAT     H214559   5.426   4.828   0.261
 4773WAT      O14560   4.447   0.059   0.302
 4773WAT     H114561   4.377   0.113   0.256
 4773WAT     H214562   4.533   0.111   0.306
 4774WAT      O14563   7.538   4.640   7.859
 4774WAT     H114564   7.632   4.675   7.854
 4774WAT     H214565   7.538   4.553   7.908
 4775WAT      O14566   1.076   4.419   7.737
 4775WAT     H114567   1.023   4.434   7.653
 4775WAT     H214568   1.014   4.406   7.814
 4776WAT      O14569   1.953   7.056   4.380
 4776WAT     H114570   1.871   7.103   4.346
 4776WAT     H214571   1.998   7.010   4.303
 4777WAT      O14572   6.241   5.360   9.047
 4777WAT     H114573   6.162   5.400   9.002
 4777WAT     H214574   6.218   5.339   9.142
 4778WAT      O14575   6.368   8.169   1.433
 4778WAT     H114576   6.413   8.241   1.486
 4778WAT     H214577   6.406   8.167   1.341
 4779WAT      O14578   6.328   6.918   7.712
 4779WAT     H114579   6.310   7.008   7.752
 4779WAT     H214580   6.383   6.929   7.629
 4780WAT      O14581   4.929   7.477   9.175
 4780WAT     H114582   4.849   7.530   9.203
 4780WAT     H214583   4.953   7.413   9.247
 4781WAT      O14584   2.261   1.869   1.071
 4781WAT     H114585   2.261   1.799   1.000
 4781WAT     H214586   2.252   1.826   1.160
 4782WAT      O14587   8.764   0.231   7.100
 4782WAT     H114588   8.695   0.243   7.029
 4782WAT     H214589   8.834   0.167   7.067
 4783WAT      O14590   8.699   6.181   9.217
 4783WAT     H114591   8.768   6.193   9.287
 4783WAT     H214592   8.637   6.260   9.217
 4784WAT      O14593   7.311   4.121   8.590
 4784WAT     H114594   7.383   4.068   8.633
 4784WAT     H214595   7.222   4.082   8.612
 4785WAT      O14596   4.049   6.046   1.127
 4785WAT     H114597   4.074   6.073   1.220
 4785WAT     H214598   4.083   5.954   1.109
 4786WAT      O14599   0.134   0.511   3.719
 4786WAT     H114600   0.201   0.584   3.705
 4786WAT     H214601   0.057   0.523   3.656
 4787WAT      O14602   2.434   6.497   2.979
 4787WAT     H114603   2.363   6.465   3.041
 4787WAT     H214604   2.396   6.507   2.887
 4788WAT      O14605   5.831   5.571   5.278
 4788WAT     H114606   5.914   5.624   5.262
 4788WAT     H214607   5.824   5.548   5.376
 4789WAT      O14608   2.605   7.200   8.776
 4789WAT     H114609   2.671   7.274   8.793
 4789WAT     H214610   2.587   7.153   8.862
 4790WAT      O14611   6.100   4.160   5.758
 4790WAT     H114612   6.151   4.127   5.837
 4790WAT     H214613   6.015   4.107   5.749
 4791WAT      O14614   5.967   0.053   1.668
 4791WAT     H114615   6.003   0.055   1.575
 4791WAT     H214616   5.978  -0.038   1.707
 4792WAT      O14617   2.511   0.991   6.356
 4792WAT     H114618   2.430   1.023   6.307
 4792WAT     H214619   2.593   1.032   6.316
 4793WAT      O14620   2.694   0.224   1.654
 4793WAT     H114621   2.753   0.146   1.674
 4793WAT     H214622   2.614   0.220   1.713
 4794WAT      O14623   9.432   9.444   5.500
 4794WAT     H114624   9.364   9.489   5.443
 4794WAT     H214625   9.400   9.352   5.523
 4795WAT      O14626   3.170   5.258   9.165
 4795WAT     H114627   3.143   5.354   9.168
 4795WAT     H214628   3.122   5.207   9.237
 4796WAT      O14629   5.473   9.545   9.550
 4796WAT     H114630   5.529   9.628   9.542
 4796WAT     H214631   5.442   9.535   9.645
 4797WAT      O14632   5.927   6.555   5.644
 4797WAT     H114633   5.977   6.480   5.689
 4797WAT     H214634   5.954   6.642   5.683
 4798WAT      O14635   7.157   0.416   6.223
 4798WAT     H114636   7.060   0.405   6.201
 4798WAT     H214637   7.189   0.506   6.192
 4799WAT      O14638   4.643   4.843   0.556
 4799WAT     H114639   4.573   4.840   0.627
 4799WAT     H214640   4.724   4.889   0.592
 4800WAT      O14641   0.765   9.031   5.106
 4800WAT     H114642   0.865   9.029   5.105
 4800WAT     H214643   0.729   8.950   5.059
 4801WAT      O14644   1.710   6.154   6.129
 4801WAT     H114645   1.807   6.166   6.109
 4801WAT     H214646   1.664   6.111   6.051
 4802WAT      O14647   9.100   0.077   9.221
 4802WAT     H114648   9.045  -0.005   9.238
 4802WAT     H214649   9.133   0.075   9.127
 4803WAT      O14650   0.191   1.196   1.763
 4803WAT     H114651   0.285   1.206   1.796
 4803WAT     H214652   0.130   1.254   1.818
 4804WAT      O14653   8.220   9.559   0.127
 4804WAT     H114654   8.163   9.610   0.192
 4804WAT     H214655   8.167   9.486   0.086
 4805WAT      O14656   0.217   1.304   5.229
 4805WAT     H114657   0.215   1.404   5.227
 4805WAT     H214658   0.221   1.273   5.324
 4806WAT      O14659   0.199   8.029   0.753
 4806WAT     H114660   0.288   8.063   0.784
 4806WAT     H214661   0.127   8.090   0.785
 4807WAT      O14662   7.087   2.580   5.651
 4807WAT     H114663   7.135   2.667   5.636
 4807WAT     H214664   7.012   2.572   5.585
 4808WAT      O14665   0.768   4.873   7.742
 4808WAT     H114666   0.754   4.775   7.730
 4808WAT     H214667   0.684   4.922   7.718
 4809WAT      O14668   8.146   1.298   8.127
 4809WAT     H114669   8.066   1.352   8.154
 4809WAT     H214670   8.118   1.203   8.113
 4810WAT      O14671   2.618   1.743   7.614
 4810WAT     H114672   2.598   1.835   7.581
 4810WAT     H214673   2.545   1.712   7.675
 4811WAT      O14674   7.126   0.743   4.644
 4811WAT     H114675   7.049   0.720   4.585
 4811WAT     H214676   7.211   0.743   4.590
 4812WAT      O14677   0.462   2.383   6.959
 4812WAT     H114678   0.431   2.468   6.917
 4812WAT     H214679   0.405   2.307   6.925
 4813WAT      O14680   9.440   5.680   1.195
 4813WAT     H114681   9.535   5.688   1.224
 4813WAT     H214682   9.409   5.586   1.207
 4814WAT      O14683   2.987   1.734   6.378
 4814WAT     H114684   2.976   1.830   6.407
 4814WAT     H214685   3.071   1.697   6.416
 4815WAT      O14686   0.601   7.918   1.699
 4815WAT     H114687   0.513   7.894   1.740
 4815WAT     H214688   0.594   8.006   1.652
 4816WAT      O14689   4.610   3.184   8.928
 4816WAT     H114690   4.677   3.173   9.001
 4816WAT     H214691   4.657   3.197   8.841
 4817WAT      O14692   4.608   1.290   5.726
 4817WAT     H114693   4.607   1.285   5.826
 4817WAT     H214694   4.577   1.380   5.697
 4818WAT      O14695   5.949   9.715   3.584
 4818WAT     H114696   5.862   9.670   3.603
 4818WAT     H214697   5.939   9.775   3.504
 4819WAT      O14698   0.680   5.644   8.735
 4819WAT     H114699   0.618   5.685   8.668
 4819WAT     H214700   0.745   5.584   8.689
 4820WAT      O14701   6.282   0.746   8.384
 4820WAT     H114702   6.235   0.715   8.301
 4820WAT     H214703   6.363   0.688   8.400
 4821WAT      O14704   9.681   8.304   5.703
 4821WAT     H114705   9.641   8.396   5.704
 4821WAT     H214706   9.645   8.253   5.624
 4822WAT      O14707   2.968   6.296   6.819
 4822WAT     H114708   2.886   6.253   6.855
 4822WAT     H214709   2.949   6.391   6.796
 4823WAT      O14710   1.073   2.966   8.284
 4823WAT     H114711   1.123   2.884   8.255
 4823WAT     H214712   1.003   2.987   8.216
 4824WAT      O14713   6.641   6.422   5.473
 4824WAT     H114714   6.723   6.450   5.422
 4824WAT     H214715   6.560   6.464   5.432
 4825WAT      O14716   9.560   3.243   0.026
 4825WAT     H114717   9.580   3.177  -0.046
 4825WAT     H214718   9.645   3.272   0.070
 4826WAT      O14719   6.977   3.937   3.427
 4826WAT     H114720   6.886   3.947   3.466
 4826WAT     H214721   6.976   3.862   3.360
 4827WAT      O14722   4.663   0.234   9.284
 4827WAT     H114723   4.726   0.217   9.360
 4827WAT     H214724   4.692   0.183   9.204
 4828WAT      O14725   7.879   4.004   2.597
 4828WAT     H114726   7.848   4.092   2.630
 4828WAT     H214727   7.893   4.008   2.498
 4829WAT      O14728   4.271   4.224   2.224
 4829WAT     H114729   4.288   4.315   2.185
 4829WAT     H214730   4.218   4.234   2.309
 4830WAT      O14731   1.317   0.437   3.855
 4830WAT     H114732   1.405   0.479   3.881
 4830WAT     H214733   1.246   0.470   3.917
 4831WAT      O14734   2.610   3.737   6.666
 4831WAT     H114735   2.685   3.692   6.715
 4831WAT     H214736   2.540   3.766   6.731
 4832WAT      O14737   7.331   7.381   7.463
 4832WAT     H114738   7.391   7.334   7.399
 4832WAT     H214739   7.319   7.325   7.545
 4833WAT      O14740   7.533   9.582   1.745
 4833WAT     H114741   7.624   9.593   1.785
 4833WAT     H214742   7.508   9.665   1.696
 4834WAT      O14743   7.669   6.814   4.034
 4834WAT     H114744   7.671   6.908   3.999
 4834WAT     H214745   7.650   6.751   3.959
 4835WAT      O14746   5.807   7.928   2.377
 4835WAT     H114747   5.785   7.834   2.402
 4835WAT     H214748   5.906   7.942   2.385
 4836WAT      O14749   3.748   4.002   5.974
 4836WAT     H114750   3.817   3.930   5.984
 4836WAT     H214751   3.767   4.057   5.893
 4837WAT      O14752   5.091   0.181   1.963
 4837WAT     H114753   5.038   0.232   1.895
 4837WAT     H214754   5.119   0.093   1.925
 4838WAT      O14755   6.987   4.122   1.635
 4838WAT     H114756   7.080   4.150   1.660
 4838WAT     H214757   6.978   4.121   1.536
 4839WAT      O14758   2.907   7.995   6.207
 4839WAT     H114759   2.996   7.963   6.238
 4839WAT     H214760   2.881   7.947   6.123
 4840WAT      O14761   3.617   3.462   5.370
 4840WAT     H114762   3.598   3.475   5.467
 4840WAT     H214763   3.697   3.404   5.359
 4841WAT      O14764   6.261   9.263   6.105
 4841WAT     H114765   6.347   9.268   6.156
 4841WAT     H214766   6.251   9.343   6.047
 4842WAT      O14767   0.217   7.518   6.980
 4842WAT     H114768   0.266   7.453   6.922
 4842WAT     H214769   0.226   7.610   6.942
 4843WAT      O14770   8.338   5.628   1.588
 4843WAT     H114771   8.379   5.683   1.662
 4843WAT     H214772   8.305   5.690   1.516
 4844WAT      O14773   0.701   4.578   3.319
 4844WAT     H114774   0.617   4.571   3.374
 4844WAT     H214775   0.779   4.553   3.376
 4845WAT      O14776   4.582   2.481   4.444
 4845WAT     H114777   4.525   2.545   4.393
 4845WAT     H214778   4.671   2.523   4.462
 4846WAT      O14779   8.811   0.880   9.299
 4846WAT     H114780   8.830   0.874   9.200
 4846WAT     H214781   8.735   0.819   9.321
 4847WAT      O14782   9.813   1.214   8.758
 4847WAT     H114783   9.840   1.307   8.731
 4847WAT     H214784   9.889   1.170   8.805
 4848WAT      O14785   0.197   4.489   3.067
 4848WAT     H114786   0.174   4.556   2.995
 4848WAT     H214787   0.212   4.537   3.153
 4849WAT      O14788   0.659   7.480   8.064
 4849WAT     H114789   0.751   7.451   8.090
 4849WAT     H214790   0.663   7.528   7.976
 4850WAT      O14791   0.783   5.802   0.767
 4850WAT     H114792   0.690   5.840   0.771
 4850WAT     H214793   0.849   5.876   0.762
 4851WAT      O14794   0.846   0.575   3.317
 4851WAT     H114795   0.938   0.580   3.278
 4851WAT     H214796   0.831   0.484   3.356
 4852WAT      O14797   3.342   6.301   3.037
 4852WAT     H114798   3.282   6.376   3.066
 4852WAT     H214799   3.301   6.214   3.063
 4853WAT      O14800   0.011   1.035   6.025
 4853WAT     H114801   0.089   1.030   5.963
 4853WAT     H214802  -0.062   0.975   5.992
 4854WAT      O14803   9.261   1.473   4.179
 4854WAT     H114804   9.218   1.383   4.179
 4854WAT     H214805   9.201   1.538   4.224
 4855WAT      O14806   2.397   3.045   8.827
 4855WAT     H114807   2.445   3.122   8.785
 4855WAT     H214808   2.369   2.980   8.755
 4856WAT      O14809   6.510   1.665   1.372
 4856WAT     H114810   6.447   1.725   1.324
 4856WAT     H214811   6.565   1.719   1.436
 4857WAT      O14812   7.676   6.729   7.415
 4857WAT     H114813   7.664   6.778   7.329
 4857WAT     H214814   7.762   6.757   7.458
 4858WAT      O14815   5.435   1.991   8.508
 4858WAT     H114816   5.367   2.049   8.554
 4858WAT     H214817   5.499   1.956   8.576
 4859WAT      O14818   8.191   3.414   7.929
 4859WAT     H114819   8.224   3.497   7.974
 4859WAT     H214820   8.098   3.394   7.959
 4860WAT      O14821   8.664   5.855   0.157
 4860WAT     H114822   8.716   5.802   0.224
 4860WAT     H214823   8.658   5.950   0.186
 4861WAT      O14824   7.562   0.184   3.970
 4861WAT     H114825   7.648   0.229   3.995
 4861WAT     H214826   7.486   0.247   3.987
 4862WAT      O14827   0.981   1.141   2.383
 4862WAT     H114828   1.045   1.074   2.421
 4862WAT     H214829   0.898   1.095   2.354
 4863WAT      O14830   1.128   1.990   9.647
 4863WAT     H114831   1.085   1.975   9.558
 4863WAT     H214832   1.058   2.014   9.714
 4864WAT      O14833   8.793   6.451   8.256
 4864WAT     H114834   8.705   6.469   8.299
 4864WAT     H214835   8.813   6.353   8.262
 4865WAT      O14836   9.707   7.871   0.326
 4865WAT     H114837   9.646   7.940   0.364
 4865WAT     H214838   9.755   7.909   0.247
 4866WAT      O14839   1.683   0.861   0.227
 4866WAT     H114840   1.685   0.865   0.326
 4866WAT     H214841   1.591   0.883   0.194
 4867WAT      O14842   3.768   9.546   6.093
 4867WAT     H114843   3.790   9.643   6.081
 4867WAT     H214844   3.692   9.537   6.157
 4868WAT      O14845   5.970   7.271   6.282
 4868WAT     H114846   5.919   7.324   6.214
 4868WAT     H214847   5.910   7.199   6.319
 4869WAT      O14848   5.414   2.106   5.585
 4869WAT     H114849   5.454   2.100   5.494
 4869WAT     H214850   5.485   2.096   5.654
 4870WAT      O14851   0.050   4.815   5.815
 4870WAT     H114852  -0.037   4.864   5.815
 4870WAT     H214853   0.122   4.874   5.851
 4871WAT      O14854   2.291   5.659   2.998
 4871WAT     H114855   2.293   5.642   2.900
 4871WAT     H214856   2.299   5.572   3.047
 4872WAT      O14857   4.417   4.097   3.291
 4872WAT     H114858   4.381   4.174   3.345
 4872WAT     H214859   4.504   4.067   3.330
 4873WAT      O14860   8.148   1.738   8.583
 4873WAT     H114861   8.143   1.638   8.587
 4873WAT     H214862   8.224   1.766   8.524
 4874WAT      O14863   7.538   8.555   2.834
 4874WAT     H114864   7.610   8.618   2.805
 4874WAT     H214865   7.463   8.607   2.874
 4875WAT      O14866   7.503   8.951   2.464
 4875WAT     H114867   7.452   9.004   2.396
 4875WAT     H214868   7.450   8.871   2.490
 4876WAT      O14869   6.565   5.244   2.961
 4876WAT     H114870   6.517   5.270   2.877
 4876WAT     H214871   6.533   5.302   3.036
 4877WAT      O14872   9.118   4.432   4.751
 4877WAT     H114873   9.139   4.472   4.840
 4877WAT     H214874   9.068   4.499   4.695
 4878WAT      O14875   6.701   8.988   3.127
 4878WAT     H114876   6.760   9.066   3.106
 4878WAT     H214877   6.745   8.903   3.097
 4879WAT      O14878   7.458   6.912   4.608
 4879WAT     H114879   7.540   6.963   4.634
 4879WAT     H214880   7.377   6.957   4.644
 4880WAT      O14881   5.556   2.034   7.022
 4880WAT     H114882   5.628   2.070   6.964
 4880WAT     H214883   5.529   2.104   7.089
 4881WAT      O14884   6.671   1.716   5.388
 4881WAT     H114885   6.737   1.699   5.462
 4881WAT     H214886   6.630   1.806   5.401
 4882WAT      O14887   1.757   6.168   9.724
 4882WAT     H114888   1.749   6.154   9.625
 4882WAT     H214889   1.851   6.150   9.752
 4883WAT      O14890   6.917   7.152   8.339
 4883WAT     H114891   6.872   7.182   8.424
 4883WAT     H214892   6.870   7.193   8.261
 4884WAT      O14893   1.900   3.243   8.179
 4884WAT     H114894   1.908   3.329   8.230
 4884WAT     H214895   1.889   3.263   8.082
 4885WAT      O14896   5.063   9.562   7.530
 4885WAT     H114897   5.149   9.559   7.579
 4885WAT     H214898   5.059   9.485   7.465
 4886WAT      O14899   5.041   5.115   7.354
 4886WAT     H114900   5.001   5.078   7.271
 4886WAT     H214901   5.119   5.059   7.382
 4887WAT      O14902   7.885   8.027   9.671
 4887WAT     H114903   7.813   8.043   9.604
 4887WAT     H214904   7.884   7.932   9.701
 4888WAT      O14905   9.666   4.048   4.045
 4888WAT     H114906   9.686   4.011   4.136
 4888WAT     H214907   9.745   4.032   3.985
 4889WAT      O14908   8.909   4.305   7.049
 4889WAT     H114909   8.897   4.289   6.951
 4889WAT     H214910   8.831   4.357   7.085
 4890WAT      O14911   1.395   7.714   6.080
 4890WAT     H114912   1.329   7.641   6.061
 4890WAT     H214913   1.432   7.750   5.994
 4891WAT      O14914   8.171   3.499   7.658
 4891WAT     H114915   8.182   3.482   7.755
 4891WAT     H214916   8.210   3.588   7.634
 4892WAT      O14917   4.949   4.630   6.717
 4892WAT     H114918   5.046   4.651   6.727
 4892WAT     H214919   4.933   4.589   6.627
 4893WAT      O14920   9.752   6.073   4.611
 4893WAT     H114921   9.705   6.131   4.544
 4893WAT     H214922   9.776   6.129   4.692
 4894WAT      O14923   9.119   8.577   6.450
 4894WAT     H114924   9.116   8.535   6.360
 4894WAT     H214925   9.209   8.617   6.465
 4895WAT      O14926   7.052   6.451   2.216
 4895WAT     H114927   7.111   6.512   2.163
 4895WAT     H214928   7.022   6.497   2.300
 4896WAT      O14929   2.223   8.910   3.819
 4896WAT     H114930   2.301   8.969   3.797
 4896WAT     H214931   2.205   8.913   3.917
 4897WAT      O14932   6.388   0.036   1.086
 4897WAT     H114933   6.353   0.121   1.124
 4897WAT     H214934   6.473   0.011   1.134
 4898WAT      O14935   0.708   2.633   3.691
 4898WAT     H114936   0.610   2.629   3.710
 4898WAT     H214937   0.729   2.584   3.607
 4899WAT      O14938   6.940   7.783   9.403
 4899WAT     H114939   6.995   7.758   9.324
 4899WAT     H214940   6.847   7.747   9.391
 4900WAT      O14941   0.312   4.654   2.154
 4900WAT     H114942   0.225   4.632   2.199
 4900WAT     H214943   0.302   4.642   2.055
 4901WAT      O14944   8.710   8.491   3.940
 4901WAT     H114945   8.623   8.522   3.902
 4901WAT     H214946   8.717   8.519   4.035
 4902WAT      O14947   9.825   2.730   5.431
 4902WAT     H114948   9.895   2.702   5.366
 4902WAT     H214949   9.863   2.796   5.495
 4903WAT      O14950   1.691   0.203   5.239
 4903WAT     H114951   1.594   0.207   5.216
 4903WAT     H214952   1.735   0.290   5.216
 4904WAT      O14953   3.112   0.382   3.180
 4904WAT     H114954   3.193   0.435   3.204
 4904WAT     H214955   3.109   0.370   3.080
 4905WAT      O14956   7.546   4.349   7.965
 4905WAT     H114957   7.529   4.290   7.886
 4905WAT     H214958   7.642   4.344   7.991
 4906WAT      O14959   5.823   3.813   0.371
 4906WAT     H114960   5.881   3.892   0.391
 4906WAT     H214961   5.823   3.750   0.449
 4907WAT      O14962   4.433   4.035   2.168
 4907WAT     H114963   4.379   4.117   2.191
 4907WAT     H214964   4.447   3.981   2.251
 4908WAT      O14965   8.940   1.841   0.115
 4908WAT     H114966   8.890   1.783   0.179
 4908WAT     H214967   9.031   1.803   0.098
 4909WAT      O14968   9.168   0.933   3.756
 4909WAT     H114969   9.100   0.908   3.825
 4909WAT     H214970   9.148   0.886   3.670
 4910WAT      O14971   9.505   5.923   7.526
 4910WAT     H114972   9.437   5.899   7.456
 4910WAT     H214973   9.524   5.842   7.583
 4911WAT      O14974   5.445   2.530   9.864
 4911WAT     H114975   5.493   2.570   9.942
 4911WAT     H214976   5.377   2.595   9.830
 4912WAT      O14977   5.831   5.255   7.043
 4912WAT     H114978   5.908   5.307   7.081
 4912WAT     H214979   5.787   5.309   6.971
 4913WAT      O14980   7.307   3.946   1.484
 4913WAT     H114981   7.258   3.877   1.537
 4913WAT     H214982   7.326   3.911   1.392
 4914WAT      O14983   6.345   1.426   3.526
 4914WAT     H114984   6.309   1.492   3.460
 4914WAT     H214985   6.438   1.400   3.500
 4915WAT      O14986   5.976   6.266   4.167
 4915WAT     H114987   6.045   6.294   4.100
 4915WAT     H214988   5.945   6.173   4.146
 4916WAT      O14989   6.346   3.151   5.207
 4916WAT     H114990   6.299   3.179   5.124
 4916WAT     H214991   6.308   3.065   5.240
 4917WAT      O14992   9.209   5.890   4.160
 4917WAT     H114993   9.174   5.845   4.079
 4917WAT     H214994   9.246   5.822   4.224
 4918WAT      O14995   3.399   2.671   1.397
 4918WAT     H114996   3.450   2.754   1.418
 4918WAT     H214997   3.302   2.687   1.412
 4919WAT      O14998   0.434   2.678   3.015
 4919WAT     H114999   0.479   2.756   3.060
 4919WAT     H215000   0.427   2.602   3.080
 4920WAT      O15001   3.445   7.814   9.677
 4920WAT     H115002   3.367   7.762   9.710
 4920WAT     H215003   3.463   7.890   9.739
 4921WAT      O15004   1.819   7.083   2.911
 4921WAT     H115005   1.870   7.140   2.975
 4921WAT     H215006   1.762   7.018   2.961
 4922WAT      O15007   9.322   9.385   8.807
 4922WAT     H115008   9.235   9.377   8.759
 4922WAT     H215009   9.377   9.456   8.763
 4923WAT      O15010   1.488   5.348   8.753
 4923WAT     H115011   1.569   5.293   8.733
 4923WAT     H215012   1.509   5.414   8.824
 4924WAT      O15013   0.192   7.550   2.209
 4924WAT     H115014   0.152   7.458   2.217
 4924WAT     H215015   0.157   7.594   2.127
 4925WAT      O15016   9.173   8.701   1.977
 4925WAT     H115017   9.102   8.654   2.028
 4925WAT     H215018   9.251   8.640   1.963
 4926WAT      O15019   1.403   6.481   1.777
 4926WAT     H115020   1.364   6.457   1.689
 4926WAT     H215021   1.500   6.503   1.766
 4927WAT      O15022   9.240   1.441   4.989
 4927WAT     H115023   9.296   1.401   4.917
 4927WAT     H215024   9.169   1.377   5.016
 4928WAT      O15025   7.892   3.032   6.479
 4928WAT     H115026   7.877   3.120   6.524
 4928WAT     H215027   7.803   2.994   6.451
 4929WAT      O15028   7.309   2.337   6.566
 4929WAT     H115029   7.264   2.390   6.494
 4929WAT     H215030   7.275   2.243   6.564
 4930WAT      O15031   7.319   9.340   7.866
 4930WAT     H115032   7.361   9.366   7.952
 4930WAT     H215033   7.351   9.249   7.840
 4931WAT      O15034   4.361   6.252   4.336
 4931WAT     H115035   4.418   6.250   4.254
 4931WAT     H215036   4.286   6.187   4.327
 4932WAT      O15037   4.611   0.900   2.374
 4932WAT     H115038   4.550   0.868   2.447
 4932WAT     H215039   4.611   1.000   2.372
 4933WAT      O15040   9.833   5.820   4.930
 4933WAT     H115041   9.798   5.733   4.896
 4933WAT     H215042   9.771   5.893   4.903
 4934WAT      O15043   5.364   5.788   6.370
 4934WAT     H115044   5.371   5.750   6.278
 4934WAT     H215045   5.280   5.843   6.377
 4935WAT      O15046   8.518   1.017   9.512
 4935WAT     H115047   8.437   1.043   9.565
 4935WAT     H215048   8.494   1.014   9.415
 4936WAT      O15049   4.252   6.174   3.037
 4936WAT     H115050   4.181   6.179   2.967
 4936WAT     H215051   4.318   6.247   3.023
 4937WAT      O15052   9.329   3.408   8.028
 4937WAT     H115053   9.317   3.350   8.109
 4937WAT     H215054   9.293   3.361   7.948
 4938WAT      O15055   1.829   5.197   2.759
 4938WAT     H115056   1.861   5.271   2.818
 4938WAT     H215057   1.907   5.141   2.730
 4939WAT      O15058   4.953   2.880   3.082
 4939WAT     H115059   4.972   2.910   2.988
 4939WAT     H215060   4.865   2.833   3.084
 4940WAT      O15061   4.143   5.534   3.437
 4940WAT     H115062   4.195   5.453   3.466
 4940WAT     H215063   4.203   5.614   3.440
 4941WAT      O15064   5.872   7.823   1.021
 4941WAT     H115065   5.871   7.901   0.958
 4941WAT     H215066   5.822   7.846   1.104
 4942WAT      O15067   6.830   1.612   5.589
 4942WAT     H115068   6.912   1.660   5.621
 4942WAT     H215069   6.841   1.514   5.605
 4943WAT      O15070   2.936   7.353   2.633
 4943WAT     H115071   2.961   7.279   2.695
 4943WAT     H215072   2.973   7.440   2.667
 4944WAT      O15073   7.635   0.601   1.325
 4944WAT     H115074   7.682   0.648   1.250
 4944WAT     H215075   7.698   0.590   1.402
 4945WAT      O15076   7.764   9.814   3.455
 4945WAT     H115077   7.839   9.811   3.389
 4945WAT     H215078   7.789   9.875   3.530
 4946WAT      O15079   9.013   0.984   5.705
 4946WAT     H115080   9.108   0.991   5.735
 4946WAT     H215081   8.994   0.891   5.673
 4947WAT      O15082   5.147   9.069   4.604
 4947WAT     H115083   5.180   9.155   4.564
 4947WAT     H215084   5.067   9.037   4.553
 4948WAT      O15085   1.847   6.902   6.484
 4948WAT     H115086   1.859   6.804   6.471
 4948WAT     H215087   1.866   6.925   6.580
 4949WAT      O15088   4.950   8.183   2.451
 4949WAT     H115089   4.864   8.235   2.447
 4949WAT     H215090   5.004   8.202   2.369
 4950WAT      O15091   3.500   8.160   0.575
 4950WAT     H115092   3.579   8.143   0.516
 4950WAT     H215093   3.516   8.241   0.631
 4951WAT      O15094   4.983   3.337   1.500
 4951WAT     H115095   4.905   3.287   1.462
 4951WAT     H215096   4.975   3.343   1.599
 4952WAT      O15097   5.796   6.132   0.770
 4952WAT     H115098   5.702   6.148   0.798
 4952WAT     H215099   5.807   6.158   0.674
 4953WAT      O15100   5.780   3.553   6.907
 4953WAT     H115101   5.698   3.500   6.930
 4953WAT     H215102   5.839   3.499   6.847
 4954WAT      O15103   1.973   6.839   8.754
 4954WAT     H115104   1.911   6.830   8.832
 4954WAT     H215105   1.988   6.750   8.712
 4955WAT      O15106   6.060   9.167   9.290
 4955WAT     H115107   6.128   9.145   9.360
 4955WAT     H215108   5.968   9.161   9.330
 4956WAT      O15109   3.863   1.157   4.152
 4956WAT     H115110   3.955   1.142   4.117
 4956WAT     H215111   3.835   1.079   4.208
 4957WAT      O15112   8.426   0.862   4.121
 4957WAT     H115113   8.378   0.909   4.047
 4957WAT     H215114   8.365   0.796   4.164
 4958WAT      O15115   7.517   6.128   7.398
 4958WAT     H115116   7.427   6.171   7.412
 4958WAT     H215117   7.584   6.199   7.378
 4959WAT      O15118   4.113   4.401   1.709
 4959WAT     H115119   4.072   4.426   1.797
 4959WAT     H215120   4.177   4.325   1.722
 4960WAT      O15121   7.547   6.967   9.216
 4960WAT     H115122   7.531   6.924   9.305
 4960WAT     H215123   7.470   6.946   9.155
 4961WAT      O15124   8.530   6.048   2.624
 4961WAT     H115125   8.437   6.086   2.624
 4961WAT     H215126   8.554   6.020   2.716
 4962WAT      O15127   6.258   5.490   6.000
 4962WAT     H115128   6.223   5.426   5.932
 4962WAT     H215129   6.336   5.541   5.962
 4963WAT      O15130   4.701   3.197   1.725
 4963WAT     H115131   4.676   3.287   1.760
 4963WAT     H215132   4.682   3.128   1.795
 4964WAT      O15133   6.933   5.720   1.974
 4964WAT     H115134   6.932   5.763   2.065
 4964WAT     H215135   7.023   5.681   1.957
 4965WAT      O15136   9.475   3.729   6.115
 4965WAT     H115137   9.464   3.760   6.021
 4965WAT     H215138   9.487   3.808   6.175
 4966WAT      O15139   1.485   7.323   6.082
 4966WAT     H115140   1.439   7.260   6.020
 4966WAT     H215141   1.546   7.384   6.030
 4967WAT      O15142   8.514   8.693   8.771
 4967WAT     H115143   8.582   8.637   8.819
 4967WAT     H215144   8.424   8.679   8.813
 4968WAT      O15145   6.119   6.504   0.798
 4968WAT     H115146   6.033   6.469   0.836
 4968WAT     H215147   6.102   6.592   0.753
 4969WAT      O15148   2.231   1.958   0.354
 4969WAT     H115149   2.207   2.054   0.370
 4969WAT     H215150   2.251   1.944   0.257
 4970WAT      O15151   5.489   3.119   9.635
 4970WAT     H115152   5.499   3.205   9.685
 4970WAT     H215153   5.470   3.139   9.539
 4971WAT      O15154   4.859   4.313   1.759
 4971WAT     H115155   4.808   4.319   1.845
 4971WAT     H215156   4.917   4.395   1.749
 4972WAT      O15157   1.500   1.912   3.711
 4972WAT     H115158   1.548   1.956   3.788
 4972WAT     H215159   1.402   1.919   3.725
 4973WAT      O15160   5.474   0.687   6.204
 4973WAT     H115161   5.483   0.772   6.153
 4973WAT     H215162   5.421   0.704   6.287
 4974WAT      O15163   4.185   0.866   4.488
 4974WAT     H115164   4.243   0.932   4.535
 4974WAT     H215165   4.103   0.849   4.542
 4975WAT      O15166   4.194   2.643   4.439
 4975WAT     H115167   4.096   2.664   4.433
 4975WAT     H215168   4.238   2.712   4.497
 4976WAT      O15169   3.630   7.425   0.395
 4976WAT     H115170   3.699   7.481   0.441
 4976WAT     H215171   3.541   7.471   0.401
 4977WAT      O15172   1.277   3.824   2.119
 4977WAT     H115173   1.195   3.767   2.111
 4977WAT     H215174   1.325   3.825   2.031
 4978WAT      O15175   1.136   7.108   7.220
 4978WAT     H115176   1.075   7.047   7.270
 4978WAT     H215177   1.204   7.146   7.282
 4979WAT      O15178   9.240   9.321   5.129
 4979WAT     H115179   9.169   9.265   5.171
 4979WAT     H215180   9.212   9.347   5.037
 4980WAT      O15181   7.111   4.245   2.396
 4980WAT     H115182   7.030   4.228   2.340
 4980WAT     H215183   7.190   4.263   2.337
 4981WAT      O15184   8.696   5.673   1.038
 4981WAT     H115185   8.679   5.652   1.134
 4981WAT     H215186   8.781   5.631   1.008
 4982WAT      O15187   8.424   3.118   3.249
 4982WAT     H115188   8.380   3.207   3.236
 4982WAT     H215189   8.367   3.061   3.307
 4983WAT      O15190   8.483   2.276   2.734
 4983WAT     H115191   8.579   2.303   2.741
 4983WAT     H215192   8.425   2.348   2.773
 4984WAT      O15193   2.062   3.641   6.115
 4984WAT     H115194   2.034   3.584   6.193
 4984WAT     H215195   1.986   3.699   6.087
 4985WAT      O15196   9.421   3.204   0.593
 4985WAT     H115197   9.513   3.240   0.609
 4985WAT     H215198   9.365   3.274   0.550
 4986WAT      O15199   4.089   0.752   8.889
 4986WAT     H115200   4.031   0.675   8.916
 4986WAT     H215201   4.179   0.719   8.861
 4987WAT      O15202   2.497   4.158   3.608
 4987WAT     H115203   2.485   4.121   3.516
 4987WAT     H215204   2.452   4.096   3.674
 4988WAT      O15205   4.666   6.138   7.818
 4988WAT     H115206   4.721   6.072   7.767
 4988WAT     H215207   4.600   6.181   7.756
 4989WAT      O15208   0.014   1.233   1.165
 4989WAT     H115209   0.108   1.206   1.145
 4989WAT     H215210  -0.048   1.195   1.096
 4990WAT      O15211   1.615   0.535   6.660
 4990WAT     H115212   1.586   0.440   6.677
 4990WAT     H215213   1.568   0.570   6.579
 4991WAT      O15214   5.305   8.963   4.405
 4991WAT     H115215   5.264   8.879   4.369
 4991WAT     H215216   5.233   9.022   4.441
 4992WAT      O15217   5.250   9.584   9.374
 4992WAT     H115218   5.320   9.544   9.434
 4992WAT     H215219   5.179   9.626   9.429
 4993WAT      O15220   3.695   7.383   4.436
 4993WAT     H115221   3.739   7.322   4.502
 4993WAT     H215222   3.737   7.371   4.346
 4994WAT      O15223   2.459   5.878   0.295
 4994WAT     H115224   2.411   5.818   0.230
 4994WAT     H215225   2.526   5.824   0.346
 4995WAT      O15226   9.680   4.360   2.684
 4995WAT     H115227   9.758   4.346   2.623
 4995WAT     H215228   9.607   4.294   2.662
 4996WAT      O15229   3.437   4.722   6.376
 4996WAT     H115230   3.434   4.762   6.284
 4996WAT     H215231   3.515   4.759   6.426
 4997WAT      O15232   6.881   3.935   6.145
 4997WAT     H115233   6.979   3.915   6.137
 4997WAT     H215234   6.835   3.909   6.061
 4998WAT      O15235   8.115   0.279   3.463
 4998WAT     H115236   8.127   0.232   3.375
 4998WAT     H215237   8.021   0.313   3.470
 4999WAT      O15238   3.897   4.414   8.859
 4999WAT     H115239   3.868   4.403   8.764
 4999WAT     H215240   3.851   4.344   8.916
 5000WAT      O15241   9.286   3.725   8.633
 5000WAT     H115242   9.263   3.701   8.727
 5000WAT     H215243   9.323   3.646   8.585
 5001WAT      O15244   3.327   2.596   5.440
 5001WAT     H115245   3.267   2.654   5.496
 5001WAT     H215246   3.296   2.502   5.446
 5002WAT      O15247   8.165   4.055   2.126
 5002WAT     H115248   8.162   4.143   2.079
 5002WAT     H215249   8.250   4.047   2.177
 5003WAT      O15250   8.916   5.967   4.393
 5003WAT     H115251   8.994   6.016   4.434
 5003WAT     H215252   8.850   5.945   4.464
 5004WAT      O15253   0.987   2.732   6.564
 5004WAT     H115254   1.044   2.662   6.606
 5004WAT     H215255   1.011   2.821   6.602
 5005WAT      O15256   3.012   0.549   2.087
 5005WAT     H115257   3.032   0.644   2.063
 5005WAT     H215258   2.979   0.500   2.007
 5006WAT      O15259   5.017   9.187   3.689
 5006WAT     H115260   4.959   9.264   3.659
 5006WAT     H215261   4.959   9.112   3.719
 5007WAT      O15262   8.792   4.113   9.065
 5007WAT     H115263   8.710   4.084   9.115
 5007WAT     H215264   8.779   4.098   8.967
 5008WAT      O15265   1.759   5.954   8.089
 5008WAT     H115266   1.770   5.961   7.990
 5008WAT     H215267   1.740   6.044   8.128
 5009WAT      O15268   2.519   9.629   8.368
 5009WAT     H115269   2.446   9.562   8.355
 5009WAT     H215270   2.552   9.626   8.463
 5010WAT      O15271   8.143   1.006   4.331
 5010WAT     H115272   8.196   1.047   4.257
 5010WAT     H215273   8.055   1.052   4.339
 5011WAT      O15274   9.290   7.197   2.139
 5011WAT     H115275   9.193   7.214   2.157
 5011WAT     H215276   9.344   7.223   2.218
 5012WAT      O15277   6.011   8.967   6.589
 5012WAT     H115278   5.963   8.958   6.676
 5012WAT     H215279   6.076   8.892   6.579
 5013WAT      O15280   0.800   7.739   3.155
 5013WAT     H115281   0.836   7.658   3.109
 5013WAT     H215282   0.864   7.815   3.142
 5014WAT      O15283   1.862   2.904   4.143
 5014WAT     H115284   1.832   2.933   4.234
 5014WAT     H215285   1.824   2.814   4.122
 5015WAT      O15286   5.986   6.563   7.480
 5015WAT     H115287   6.068   6.523   7.438
 5015WAT     H215288   5.987   6.662   7.468
 5016WAT      O15289   1.048   7.890   0.433
 5016WAT     H115290   0.962   7.907   0.481
 5016WAT     H215291   1.086   7.976   0.400
 5017WAT      O15292   3.040   9.570   8.242
 5017WAT     H115293   3.031   9.485   8.293
 5017WAT     H215294   3.061   9.645   8.305
 5018WAT      O15295   9.472   8.760   6.203
 5018WAT     H115296   9.402   8.742   6.134
 5018WAT     H215297   9.459   8.851   6.242
 5019WAT      O15298   6.857   8.135   1.918
 5019WAT     H115299   6.822   8.211   1.972
 5019WAT     H215300   6.820   8.140   1.825
 5020WAT      O15301   0.031   8.101   9.750
 5020WAT     H115302   0.128   8.125   9.755
 5020WAT     H215303  -0.024   8.177   9.785
 5021WAT      O15304   4.295   3.665   3.576
 5021WAT     H115305   4.269   3.614   3.658
 5021WAT     H215306   4.369   3.616   3.530
 5022WAT      O15307   2.014   6.127   6.826
 5022WAT     H115308   2.101   6.095   6.863
 5022WAT     H215309   1.940   6.100   6.887
 5023WAT      O15310   9.045   4.067   1.411
 5023WAT     H115311   9.002   4.109   1.331
 5023WAT     H215312   9.127   4.016   1.382
 5024WAT      O15313   9.647   5.926   5.858
 5024WAT     H115314   9.649   5.906   5.956
 5024WAT     H215315   9.737   5.960   5.829
 5025WAT      O15316   0.982   1.434   3.270
 5025WAT     H115317   0.903   1.386   3.232
 5025WAT     H215318   1.049   1.368   3.303
 5026WAT      O15319   8.821   7.451   2.562
 5026WAT     H115320   8.771   7.529   2.600
 5026WAT     H215321   8.773   7.366   2.584
 5027WAT      O15322   1.209   6.639   8.248
 5027WAT     H115323   1.149   6.702   8.298
 5027WAT     H215324   1.304   6.655   8.276
 5028WAT      O15325   6.839   3.675   2.688
 5028WAT     H115326   6.762   3.714   2.738
 5028WAT     H215327   6.863   3.735   2.612
 5029WAT      O15328   0.339   4.921   5.989
 5029WAT     H115329   0.261   4.945   6.047
 5029WAT     H215330   0.394   4.851   6.035
 5030WAT      O15331   9.641   5.172   1.923
 5030WAT     H115332   9.585   5.153   2.004
 5030WAT     H215333   9.583   5.179   1.842
 5031WAT      O15334   4.434   9.606   2.290
 5031WAT     H115335   4.509   9.601   2.225
 5031WAT     H215336   4.422   9.701   2.320
 5032WAT      O15337   3.779   6.689   3.643
 5032WAT     H115338   3.804   6.673   3.739
 5032WAT     H215339   3.795   6.606   3.590
 5033WAT      O15340   6.542   0.948   4.806
 5033WAT     H115341   6.506   1.039   4.826
 5033WAT     H215342   6.492   0.910   4.728
 5034WAT      O15343   7.914   2.906   4.016
 5034WAT     H115344   7.892   2.811   3.994
 5034WAT     H215345   7.989   2.909   4.083
 5035WAT      O15346   7.747   8.274   7.514
 5035WAT     H115347   7.842   8.282   7.483
 5035WAT     H215348   7.686   8.310   7.442
 5036WAT      O15349   1.961   0.040   5.846
 5036WAT     H115350   1.971  -0.046   5.896
 5036WAT     H215351   1.959   0.021   5.748
 5037WAT      O15352   0.113   3.360   2.976
 5037WAT     H115353   0.074   3.438   3.024
 5037WAT     H215354   0.072   3.275   3.011
 5038WAT      O15355   8.651   9.175   1.971
 5038WAT     H115356   8.627   9.094   2.024
 5038WAT     H215357   8.749   9.194   1.981
 5039WAT      O15358   2.903   4.206   5.890
 5039WAT     H115359   2.998   4.217   5.920
 5039WAT     H215360   2.843   4.207   5.970
 5040WAT      O15361   7.748   2.602   3.424
 5040WAT     H115362   7.722   2.678   3.484
 5040WAT     H215363   7.844   2.578   3.440
 5041WAT      O15364   3.284   3.060   1.294
 5041WAT     H115365   3.349   3.030   1.364
 5041WAT     H215366   3.331   3.068   1.206
 5042WAT      O15367   6.589   6.245   8.205
 5042WAT     H115368   6.513   6.255   8.141
 5042WAT     H215369   6.591   6.324   8.266
 5043WAT      O15370   2.234   0.721   0.637
 5043WAT     H115371   2.205   0.799   0.692
 5043WAT     H215372   2.229   0.638   0.691
 5044WAT      O15373   8.367   6.784   6.495
 5044WAT     H115374   8.365   6.749   6.401
 5044WAT     H215375   8.274   6.787   6.532
 5045WAT      O15376   3.197   2.776   0.651
 5045WAT     H115377   3.262   2.832   0.599
 5045WAT     H215378   3.114   2.764   0.598
 5046WAT      O15379   1.561   5.667   3.095
 5046WAT     H115380   1.640   5.728   3.098
 5046WAT     H215381   1.501   5.693   3.020
 5047WAT      O15382   1.665   9.713   0.741
 5047WAT     H115383   1.657   9.688   0.644
 5047WAT     H215384   1.620   9.643   0.796
 5048WAT      O15385   8.647   9.830   3.891
 5048WAT     H115386   8.605   9.745   3.860
 5048WAT     H215387   8.634   9.838   3.990
 5049WAT      O15388   7.489   3.396   2.557
 5049WAT     H115389   7.508   3.478   2.611
 5049WAT     H215390   7.457   3.422   2.466
 5050WAT      O15391   2.313   3.530   9.237
 5050WAT     H115392   2.338   3.621   9.204
 5050WAT     H215393   2.216   3.514   9.221
 5051WAT      O15394   1.744   4.993   1.378
 5051WAT     H115395   1.796   5.073   1.408
 5051WAT     H215396   1.808   4.923   1.345
 5052WAT      O15397   4.045   8.127   8.395
 5052WAT     H115398   3.988   8.190   8.343
 5052WAT     H215399   4.111   8.179   8.450
 5053WAT      O15400   1.665   7.065   6.061
 5053WAT     H115401   1.676   7.155   6.019
 5053WAT     H215402   1.734   7.054   6.134
 5054WAT      O15403   1.786   1.511   0.601
 5054WAT     H115404   1.845   1.500   0.521
 5054WAT     H215405   1.814   1.592   0.652
 5055WAT      O15406   7.250   9.421   7.206
 5055WAT     H115407   7.277   9.517   7.197
 5055WAT     H215408   7.304   9.378   7.278
 5056WAT      O15409   2.974   7.467   0.477
 5056WAT     H115410   3.060   7.506   0.508
 5056WAT     H215411   2.940   7.520   0.399
 5057WAT      O15412   9.465   4.309   4.768
 5057WAT     H115413   9.377   4.296   4.723
 5057WAT     H215414   9.464   4.395   4.820
 5058WAT      O15415   7.007   3.194   5.625
 5058WAT     H115416   7.013   3.293   5.634
 5058WAT     H215417   7.012   3.151   5.716
 5059WAT      O15418   1.292   6.843   0.196
 5059WAT     H115419   1.346   6.896   0.132
 5059WAT     H215420   1.334   6.753   0.209
 5060WAT      O15421   3.451   7.970   0.314
 5060WAT     H115422   3.500   8.056   0.333
 5060WAT     H215423   3.505   7.914   0.252
 5061WAT      O15424   1.507   8.043   3.693
 5061WAT     H115425   1.419   8.010   3.659
 5061WAT     H215426   1.523   8.136   3.660
 5062WAT      O15427   1.311   4.843   4.959
 5062WAT     H115428   1.302   4.745   4.974
 5062WAT     H215429   1.293   4.892   5.045
 5063WAT      O15430   6.781   1.938   7.018
 5063WAT     H115431   6.850   1.874   7.053
 5063WAT     H215432   6.728   1.893   6.945
 5064WAT      O15433   3.158   1.103   6.924
 5064WAT     H115434   3.126   1.170   6.991
 5064WAT     H215435   3.095   1.026   6.922
 5065WAT      O15436   8.387   8.683   2.116
 5065WAT     H115437   8.379   8.745   2.038
 5065WAT     H215438   8.413   8.735   2.198
 5066WAT      O15439   5.625   3.862   0.699
 5066WAT     H115440   5.675   3.799   0.640
 5066WAT     H215441   5.646   3.956   0.673
 5067WAT      O15442   4.968   3.600   5.470
 5067WAT     H115443   4.967   3.585   5.371
 5067WAT     H215444   4.939   3.517   5.517
 5068WAT      O15445   9.586   9.595   1.175
 5068WAT     H115446   9.513   9.662   1.187
 5068WAT     H215447   9.564   9.534   1.099
 5069WAT      O15448   6.982   3.022   3.477
 5069WAT     H115449   7.008   3.009   3.573
 5069WAT     H215450   6.938   2.939   3.443
 5070WAT      O15451   4.198   3.502   1.987
 5070WAT     H115452   4.291   3.472   1.964
 5070WAT     H215453   4.167   3.570   1.922
 5071WAT      O15454   8.630   9.735   7.100
 5071WAT     H115455   8.728   9.715   7.100
 5071WAT     H215456   8.581   9.657   7.140
 5072WAT      O15457   0.797   6.474   2.946
 5072WAT     H115458   0.726   6.404   2.955
 5072WAT     H215459   0.757   6.564   2.964
 5073WAT      O15460   3.638   7.862   0.120
 5073WAT     H115461   3.632   7.774   0.072
 5073WAT     H215462   3.719   7.862   0.179
 5074WAT      O15463   7.185   4.784   5.723
 5074WAT     H115464   7.137   4.716   5.778
 5074WAT     H215465   7.253   4.831   5.780
 5075WAT      O15466   0.150   7.515   1.194
 5075WAT     H115467   0.116   7.422   1.174
 5075WAT     H215468   0.245   7.523   1.164
 5076WAT      O15469   2.707   4.196   8.638
 5076WAT     H115470   2.753   4.282   8.664
 5076WAT     H215471   2.673   4.203   8.545
 5077WAT      O15472   7.114   4.860   4.899
 5077WAT     H115473   7.165   4.802   4.962
 5077WAT     H215474   7.130   4.831   4.805
 5078WAT      O15475   6.910   4.340   4.508
 5078WAT     H115476   6.885   4.287   4.426
 5078WAT     H215477   6.834   4.400   4.533
 5079WAT      O15478   8.997   4.191   8.277
 5079WAT     H115479   9.080   4.247   8.271
 5079WAT     H215480   8.977   4.173   8.373
 5080WAT      O15481   3.558   5.027   5.130
 5080WAT     H115482   3.603   5.117   5.131
 5080WAT     H215483   3.460   5.039   5.144
 5081WAT      O15484   6.374   4.638   4.604
 5081WAT     H115485   6.415   4.596   4.523
 5081WAT     H215486   6.423   4.723   4.625
 5082WAT      O15487   2.790   0.793   4.701
 5082WAT     H115488   2.831   0.871   4.654
 5082WAT     H215489   2.696   0.814   4.726
 5083WAT      O15490   5.241   9.044   9.880
 5083WAT     H115491   5.230   9.026   9.977
 5083WAT     H215492   5.290   9.130   9.867
 5084WAT      O15493   3.658   4.977   3.985
 5084WAT     H115494   3.654   4.883   4.020
 5084WAT     H215495   3.569   5.022   4.000
 5085WAT      O15496   1.557   0.619   0.430
 5085WAT     H115497   1.625   0.683   0.468
 5085WAT     H215498   1.604   0.548   0.378
 5086WAT      O15499   9.011   3.045   6.419
 5086WAT     H115500   9.073   2.993   6.477
 5086WAT     H215501   8.930   2.990   6.398
 5087WAT      O15502   6.932   1.619   2.026
 5087WAT     H115503   6.992   1.665   1.960
 5087WAT     H215504   6.837   1.644   2.008
 5088WAT      O15505   6.509   6.150   7.731
 5088WAT     H115506   6.487   6.060   7.770
 5088WAT     H215507   6.447   6.218   7.769
 5089WAT      O15508   6.817   5.639   7.006
 5089WAT     H115509   6.861   5.549   6.999
 5089WAT     H215510   6.872   5.706   6.956
 5090WAT      O15511   0.327   9.830   0.565
 5090WAT     H115512   0.382   9.790   0.637
 5090WAT     H215513   0.381   9.836   0.481
 5091WAT      O15514   5.191   2.908   8.389
 5091WAT     H115515   5.166   2.878   8.297
 5091WAT     H215516   5.154   2.999   8.407
 5092WAT      O15517   2.623   0.978   6.854
 5092WAT     H115518   2.596   1.032   6.934
 5092WAT     H215519   2.671   1.037   6.788
 5093WAT      O15520   9.256   6.003   1.738
 5093WAT     H115521   9.230   6.095   1.766
 5093WAT     H215522   9.178   5.957   1.696
 5094WAT      O15523   6.403   8.005   6.503
 5094WAT     H115524   6.312   8.023   6.465
 5094WAT     H215525   6.453   8.091   6.512
 5095WAT      O15526   2.344   6.725   3.648
 5095WAT     H115527   2.403   6.670   3.707
 5095WAT     H215528   2.368   6.822   3.659
 5096WAT      O15529   1.370   6.231   9.333
 5096WAT     H115530   1.377   6.178   9.418
 5096WAT     H215531   1.373   6.169   9.255
 5097WAT      O15532   2.507   8.130   4.606
 5097WAT     H115533   2.582   8.063   4.606
 5097WAT     H215534   2.479   8.148   4.512
 5098WAT      O15535   3.618   7.886   2.048
 5098WAT     H115536   3.711   7.848   2.044
 5098WAT     H215537   3.595   7.909   2.142
 5099WAT      O15538   0.259   8.797   6.906
 5099WAT     H115539   0.349   8.821   6.870
 5099WAT     H215540   0.202   8.761   6.831
 5100WAT      O15541   0.607   9.198   2.835
 5100WAT     H115542   0.570   9.275   2.783
 5100WAT     H215543   0.602   9.219   2.933
 5101WAT      O15544   1.570   9.506   3.227
 5101WAT     H115545   1.508   9.555   3.165
 5101WAT     H215546   1.646   9.567   3.252
 5102WAT      O15547   2.700   6.077   9.271
 5102WAT     H115548   2.619   6.084   9.213
 5102WAT     H215549   2.679   6.109   9.364
 5103WAT      O15550   5.894   0.211   7.678
 5103WAT     H115551   5.877   0.303   7.714
 5103WAT     H215552   5.939   0.156   7.749
 5104WAT      O15553   9.705   5.225   6.803
 5104WAT     H115554   9.627   5.230   6.740
 5104WAT     H215555   9.761   5.146   6.781
 5105WAT      O15556   9.322   2.776   2.597
 5105WAT     H115557   9.243   2.816   2.644
 5105WAT     H215558   9.362   2.705   2.654
 5106WAT      O15559   4.743   0.400   5.785
 5106WAT     H115560   4.685   0.404   5.703
 5106WAT     H215561   4.835   0.373   5.758
 5107WAT      O15562   3.295   3.654   2.985
 5107WAT     H115563   3.290   3.674   3.083
 5107WAT     H215564   3.211   3.608   2.956
 5108WAT      O15565   2.170   3.280   5.610
 5108WAT     H115566   2.147   3.342   5.535
 5108WAT     H215567   2.108   3.296   5.687
 5109WAT      O15568   5.108   8.714   8.618
 5109WAT     H115569   5.179   8.668   8.671
 5109WAT     H215570   5.120   8.813   8.626
 5110WAT      O15571   4.821   7.651   0.924
 5110WAT     H115572   4.841   7.748   0.910
 5110WAT     H215573   4.819   7.632   1.022
 5111WAT      O15574   3.621   3.634   2.009
 5111WAT     H115575   3.627   3.728   2.043
 5111WAT     H215576   3.528   3.617   1.976
 5112WAT      O15577   7.217   5.208   2.563
 5112WAT     H115578   7.228   5.112   2.536
 5112WAT     H215579   7.293   5.261   2.525
 5113WAT      O15580   4.453   6.307   3.141
 5113WAT     H115581   4.497   6.269   3.060
 5113WAT     H215582   4.521   6.356   3.196
 5114WAT      O15583   8.171   1.518   2.541
 5114WAT     H115584   8.109   1.524   2.463
 5114WAT     H215585   8.201   1.423   2.553
 5115WAT      O15586   3.441   5.082   2.071
 5115WAT     H115587   3.458   5.161   2.128
 5115WAT     H215588   3.522   5.060   2.017
 5116WAT      O15589   7.333   4.934   7.705
 5116WAT     H115590   7.257   4.875   7.734
 5116WAT     H215591   7.339   4.935   7.605
 5117WAT      O15592   4.250   9.617   6.635
 5117WAT     H115593   4.183   9.683   6.602
 5117WAT     H215594   4.338   9.662   6.647
 5118WAT      O15595   4.469   8.278   6.531
 5118WAT     H115596   4.419   8.325   6.458
 5118WAT     H215597   4.408   8.264   6.608
 5119WAT      O15598   0.599   9.256   1.273
 5119WAT     H115599   0.594   9.187   1.200
 5119WAT     H215600   0.676   9.235   1.333
 5120WAT      O15601   5.905   0.096   6.997
 5120WAT     H115602   5.858   0.154   7.064
 5120WAT     H215603   5.989   0.142   6.967
 5121WAT      O15604   4.708   4.372   5.774
 5121WAT     H115605   4.641   4.415   5.833
 5121WAT     H215606   4.717   4.424   5.689
 5122WAT      O15607   7.109   3.800   4.486
 5122WAT     H115608   7.087   3.892   4.452
 5122WAT     H215609   7.061   3.784   4.572
 5123WAT      O15610   1.639   5.062   2.400
 5123WAT     H115611   1.647   4.984   2.462
 5123WAT     H215612   1.581   5.132   2.440
 5124WAT      O15613   5.150   2.302   2.191
 5124WAT     H115614   5.159   2.369   2.264
 5124WAT     H215615   5.238   2.258   2.174
 5125WAT      O15616   5.218   5.163   5.252
 5125WAT     H115617   5.307   5.210   5.247
 5125WAT     H215618   5.229   5.068   5.226
 5126WAT      O15619   3.834   4.744   8.288
 5126WAT     H115620   3.802   4.832   8.321
 5126WAT     H215621   3.927   4.728   8.321
 5127WAT      O15622   7.454   8.071   0.114
 5127WAT     H115623   7.545   8.074   0.072
 5127WAT     H215624   7.440   8.154   0.168
 5128WAT      O15625   8.268   2.359   1.979
 5128WAT     H115626   8.304   2.279   1.930
 5128WAT     H215627   8.324   2.376   2.060
 5129WAT      O15628   3.380   4.171   4.560
 5129WAT     H115629   3.432   4.167   4.475
 5129WAT     H215630   3.428   4.119   4.631
 5130WAT      O15631   0.060   3.326   6.760
 5130WAT     H115632   0.051   3.423   6.781
 5130WAT     H215633   0.025   3.272   6.837
 5131WAT      O15634   7.436   4.083   2.915
 5131WAT     H115635   7.476   4.062   3.004
 5131WAT     H215636   7.399   4.000   2.874
 5132WAT      O15637   1.077   4.424   9.853
 5132WAT     H115638   1.058   4.483   9.775
 5132WAT     H215639   1.097   4.332   9.821
 5133WAT      O15640   5.211   0.456   1.235
 5133WAT     H115641   5.119   0.421   1.222
 5133WAT     H215642   5.270   0.424   1.161
 5134WAT      O15643   1.895   1.768   7.643
 5134WAT     H115644   1.917   1.865   7.651
 5134WAT     H215645   1.975   1.713   7.668
 5135WAT      O15646   4.002   4.404   3.595
 5135WAT     H115647   3.945   4.323   3.580
 5135WAT     H215648   4.041   4.433   3.507
 5136WAT      O15649   4.864   2.509   0.209
 5136WAT     H115650   4.793   2.541   0.148
 5136WAT     H215651   4.952   2.550   0.184
 5137WAT      O15652   2.667   3.722   0.381
 5137WAT     H115653   2.693   3.743   0.476
 5137WAT     H215654   2.711   3.788   0.320
 5138WAT      O15655   9.432   4.843   8.557
 5138WAT     H115656   9.495   4.768   8.535
 5138WAT     H215657   9.368   4.857   8.482
 5139WAT      O15658   5.306   4.664   0.592
 5139WAT     H115659   5.295   4.666   0.691
 5139WAT     H215660   5.288   4.571   0.559
 5140WAT      O15661   4.129   1.846   3.521
 5140WAT     H115662   4.205   1.905   3.492
 5140WAT     H215663   4.125   1.844   3.620
 5141WAT      O15664   4.509   2.827   4.757
 5141WAT     H115665   4.496   2.728   4.747
 5141WAT     H215666   4.445   2.875   4.696
 5142WAT      O15667   5.144   3.167   1.945
 5142WAT     H115668   5.199   3.173   2.029
 5142WAT     H215669   5.085   3.087   1.949
 5143WAT      O15670   5.344   5.229   5.907
 5143WAT     H115671   5.304   5.268   5.990
 5143WAT     H215672   5.271   5.209   5.841
 5144WAT      O15673   4.479   7.639   1.976
 5144WAT     H115674   4.577   7.625   1.990
 5144WAT     H215675   4.462   7.734   1.948
 5145WAT      O15676   5.692   6.003   0.248
 5145WAT     H115677   5.646   5.967   0.167
 5145WAT     H215678   5.691   6.103   0.246
 5146WAT      O15679   4.923   5.278   0.098
 5146WAT     H115680   5.018   5.274   0.130
 5146WAT     H215681   4.920   5.262  -0.000
 5147WAT      O15682   7.000   9.743   6.770
 5147WAT     H115683   6.936   9.818   6.787
 5147WAT     H215684   6.956   9.656   6.794
 5148WAT      O15685   1.417   3.373   8.209
 5148WAT     H115686   1.510   3.362   8.242
 5148WAT     H215687   1.367   3.286   8.218
 5149WAT      O15688   3.292   3.685   7.474
 5149WAT     H115689   3.264   3.711   7.566
 5149WAT     H215690   3.297   3.585   7.467
 5150WAT      O15691   1.097   8.136   6.840
 5150WAT     H115692   1.097   8.227   6.797
 5150WAT     H215693   1.065   8.143   6.934
 5151WAT      O15694   0.653   7.627   7.832
 5151WAT     H115695   0.564   7.637   7.788
 5151WAT     H215696   0.721   7.601   7.763
 5152WAT      O15697   6.888   3.591   3.558
 5152WAT     H115698   6.984   3.581   3.531
 5152WAT     H215699   6.883   3.645   3.643
 5153WAT      O15700   9.698   4.249   9.808
 5153WAT     H115701   9.611   4.260   9.856
 5153WAT     H215702   9.741   4.164   9.836
 5154WAT      O15703   3.208   6.355   7.406
 5154WAT     H115704   3.150   6.352   7.325
 5154WAT     H215705   3.151   6.346   7.488
 5155WAT      O15706   7.036   1.398   7.093
 5155WAT     H115707   6.976   1.327   7.130
 5155WAT     H215708   7.013   1.415   6.997
 5156WAT      O15709   7.343   4.395   8.618
 5156WAT     H115710   7.326   4.299   8.595
 5156WAT     H215711   7.258   4.446   8.614
 5157WAT      O15712   1.939   2.510   1.639
 5157WAT     H115713   2.017   2.460   1.678
 5157WAT     H215714   1.964   2.548   1.551
 5158WAT      O15715   2.848   7.583   5.446
 5158WAT     H115716   2.937   7.552   5.479
 5158WAT     H215717   2.837   7.556   5.350
 5159WAT      O15718   0.589   8.361   6.900
 5159WAT     H115719   0.625   8.325   6.814
 5159WAT     H215720   0.560   8.456   6.887
 5160WAT      O15721   3.745   6.247   3.246
 5160WAT     H115722   3.770   6.211   3.336
 5160WAT     H215723   3.669   6.310   3.255
 5161WAT      O15724   6.075   4.424   5.918
 5161WAT     H115725   6.161   4.443   5.965
 5161WAT     H215726   6.095   4.390   5.825
 5162WAT      O15727   2.339   7.309   9.063
 5162WAT     H115728   2.282   7.342   8.988
 5162WAT     H215729   2.329   7.370   9.142
 5163WAT      O15730   5.260   2.597   6.187
 5163WAT     H115731   5.223   2.661   6.120
 5163WAT     H215732   5.349   2.631   6.219
 5164WAT      O15733   7.230   4.908   7.435
 5164WAT     H115734   7.133   4.928   7.451
 5164WAT     H215735   7.240   4.854   7.352
 5165WAT      O15736   0.725   4.679   0.849
 5165WAT     H115737   0.804   4.633   0.889
 5165WAT     H215738   0.676   4.616   0.789
 5166WAT      O15739   2.517   2.354   6.687
 5166WAT     H115740   2.487   2.302   6.608
 5166WAT     H215741   2.617   2.349   6.695
 5167WAT      O15742   5.915   0.561   2.635
 5167WAT     H115743   5.860   0.584   2.555
 5167WAT     H215744   5.935   0.463   2.635
 5168WAT      O15745   2.409   1.753   8.626
 5168WAT     H115746   2.383   1.743   8.722
 5168WAT     H215747   2.400   1.849   8.599
 5169WAT      O15748   1.078   0.456   0.236
 5169WAT     H115749   0.998   0.514   0.250
 5169WAT     H215750   1.145   0.474   0.308
 5170WAT      O15751   3.140   3.017   4.163
 5170WAT     H115752   3.161   3.061   4.250
 5170WAT     H215753   3.161   2.920   4.169
 5171WAT      O15754   2.919   1.612   0.145
 5171WAT     H115755   2.849   1.668   0.100
 5171WAT     H215756   2.876   1.543   0.203
 5172WAT      O15757   2.260   9.822   2.051
 5172WAT     H115758   2.285   9.884   1.976
 5172WAT     H215759   2.309   9.735   2.040
 5173WAT      O15760   6.998   0.818   3.158
 5173WAT     H115761   7.003   0.722   3.188
 5173WAT     H215762   6.983   0.821   3.059
 5174WAT      O15763   3.244   4.164   1.674
 5174WAT     H115764   3.256   4.065   1.680
 5174WAT     H215765   3.323   4.209   1.716
 5175WAT      O15766   3.663   1.556   0.466
 5175WAT     H115767   3.696   1.632   0.410
 5175WAT     H215768   3.689   1.572   0.561
 5176WAT      O15769   7.673   2.948   4.121
 5176WAT     H115770   7.599   2.926   4.057
 5176WAT     H215771   7.761   2.934   4.077
 5177WAT      O15772   1.104   0.042   2.075
 5177WAT     H115773   1.053   0.001   2.150
 5177WAT     H215774   1.097   0.142   2.080
 5178WAT      O15775   0.914   4.470   2.100
 5178WAT     H115776   0.982   4.396   2.096
 5178WAT     H215777   0.937   4.540   2.033
 5179WAT      O15778   7.135   8.077   6.525
 5179WAT     H115779   7.210   8.032   6.573
 5179WAT     H215780   7.168   8.119   6.441
 5180WAT      O15781   3.003   0.257   3.420
 5180WAT     H115782   3.036   0.167   3.450
 5180WAT     H215783   3.050   0.284   3.336
 5181WAT      O15784   3.624   0.599   8.983
 5181WAT     H115785   3.545   0.628   9.037
 5181WAT     H215786   3.634   0.500   8.989
 5182WAT      O15787   2.857   4.785   8.751
 5182WAT     H115788   2.842   4.877   8.715
 5182WAT     H215789   2.812   4.777   8.841
 5183WAT      O15790   4.769   6.664   9.653
 5183WAT     H115791   4.705   6.666   9.730
 5183WAT     H215792   4.803   6.570   9.641
 5184WAT      O15793   1.992   2.281   4.955
 5184WAT     H115794   2.008   2.345   5.030
 5184WAT     H215795   2.080   2.255   4.913
 5185WAT      O15796   5.337   0.453   6.844
 5185WAT     H115797   5.280   0.523   6.887
 5185WAT     H215798   5.279   0.388   6.795
 5186WAT      O15799   1.082   5.835   7.706
 5186WAT     H115800   1.176   5.832   7.672
 5186WAT     H215801   1.083   5.830   7.806
 5187WAT      O15802   6.683   4.188   0.248
 5187WAT     H115803   6.703   4.101   0.293
 5187WAT     H215804   6.728   4.190   0.158
 5188WAT      O15805   7.532   6.033   0.375
 5188WAT     H115806   7.519   6.061   0.470
 5188WAT     H215807   7.494   6.103   0.314
 5189WAT      O15808   7.963   8.915   2.888
 5189WAT     H115809   8.050   8.867   2.899
 5189WAT     H215810   7.923   8.932   2.978
 5190WAT      O15811   9.549   4.623   1.445
 5190WAT     H115812   9.541   4.624   1.345
 5190WAT     H215813   9.477   4.566   1.484
 5191WAT      O15814   5.314   7.110   1.491
 5191WAT     H115815   5.319   7.194   1.437
 5191WAT     H215816   5.399   7.096   1.541
 5192WAT      O15817   3.853   5.950   3.051
 5192WAT     H115818   3.830   5.898   2.969
 5192WAT     H215819   3.862   6.047   3.028
 5193WAT      O15820   8.095   1.874   8.214
 5193WAT     H115821   8.138   1.824   8.289
 5193WAT     H215822   8.166   1.913   8.155
 5194WAT      O15823   8.410   2.149   1.326
 5194WAT     H115824   8.346   2.113   1.257
 5194WAT     H215825   8.388   2.244   1.345
 5195WAT      O15826   9.757   3.696   4.316
 5195WAT     H115827   9.848   3.692   4.276
 5195WAT     H215828   9.724   3.603   4.334
 5196WAT      O15829   4.856   1.039   0.137
 5196WAT     H115830   4.948   1.014   0.169
 5196WAT     H215831   4.793   1.038   0.215
 5197WAT      O15832   0.935   5.978   4.558
 5197WAT     H115833   0.923   5.950   4.463
 5197WAT     H215834   1.001   6.053   4.562
 5198WAT      O15835   9.043   6.853   1.774
 5198WAT     H115836   9.027   6.820   1.867
 5198WAT     H215837   9.124   6.912   1.773
 5199WAT      O15838   7.591   6.689   4.891
 5199WAT     H115839   7.657   6.685   4.967
 5199WAT     H215840   7.640   6.700   4.805
 5200WAT      O15841   3.141   0.465   5.473
 5200WAT     H115842   3.048   0.433   5.454
 5200WAT     H215843   3.199   0.449   5.393
 5201WAT      O15844   1.328   9.673   4.277
 5201WAT     H115845   1.308   9.737   4.351
 5201WAT     H215846   1.349   9.723   4.193
 5202WAT      O15847   0.172   2.972   2.148
 5202WAT     H115848   0.097   3.033   2.125
 5202WAT     H215849   0.254   2.999   2.098
 5203WAT      O15850   9.114   8.073   8.087
 5203WAT     H115851   9.209   8.060   8.060
 5203WAT     H215852   9.096   8.171   8.101
 5204WAT      O15853   0.224   5.816   2.763
 5204WAT     H115854   0.294   5.850   2.826
 5204WAT     H215855   0.262   5.745   2.705
 5205WAT      O15856   4.640   3.792   6.534
 5205WAT     H115857   4.623   3.869   6.473
 5205WAT     H215858   4.739   3.781   6.547
 5206WAT      O15859   2.078   5.580   3.906
 5206WAT     H115860   2.115   5.622   3.823
 5206WAT     H215861   2.001   5.635   3.939
 5207WAT      O15862   4.640   9.612   2.097
 5207WAT     H115863   4.719   9.554   2.077
 5207WAT     H215864   4.666   9.708   2.087
 5208WAT      O15865   8.888   3.151   7.067
 5208WAT     H115866   8.981   3.148   7.029
 5208WAT     H215867   8.838   3.070   7.039
 5209WAT      O15868   0.072   0.335   4.911
 5209WAT     H115869   0.153   0.384   4.878
 5209WAT     H215870  -0.007   0.396   4.905
 5210WAT      O15871   2.255   1.977   8.257
 5210WAT     H115872   2.200   1.897   8.283
 5210WAT     H215873   2.271   1.975   8.159
 5211WAT      O15874   9.707   2.212   2.693
 5211WAT     H115875   9.649   2.146   2.740
 5211WAT     H215876   9.705   2.299   2.741
 5212WAT      O15877   4.804   8.545   9.846
 5212WAT     H115878   4.867   8.480   9.805
 5212WAT     H215879   4.710   8.521   9.823
 5213WAT      O15880   5.180   3.625   8.133
 5213WAT     H115881   5.252   3.628   8.203
 5213WAT     H215882   5.094   3.659   8.172
 5214WAT      O15883   5.288   1.408   0.569
 5214WAT     H115884   5.261   1.475   0.500
 5214WAT     H215885   5.364   1.353   0.535
 5215WAT      O15886   1.699   0.604   5.170
 5215WAT     H115887   1.654   0.694   5.172
 5215WAT     H215888   1.638   0.537   5.211
 5216WAT      O15889   3.328   8.210   5.212
 5216WAT     H115890   3.311   8.147   5.136
 5216WAT     H215891   3.292   8.300   5.189
 5217WAT      O15892   2.337   4.520   1.414
 5217WAT     H115893   2.350   4.568   1.327
 5217WAT     H215894   2.370   4.578   1.489
 5218WAT      O15895   7.464   8.457   9.518
 5218WAT     H115896   7.394   8.497   9.577
 5218WAT     H215897   7.551   8.452   9.568
 5219WAT      O15898   4.531   1.311   7.338
 5219WAT     H115899   4.444   1.335   7.382
 5219WAT     H215900   4.596   1.280   7.408
 5220WAT      O15901   8.543   7.488   9.803
 5220WAT     H115902   8.596   7.572   9.818
 5220WAT     H215903   8.532   7.473   9.704
 5221WAT      O15904   6.397   2.785   1.828
 5221WAT     H115905   6.471   2.850   1.847
 5221WAT     H215906   6.325   2.798   1.896
 5222WAT      O15907   5.408   0.648   2.236
 5222WAT     H115908   5.415   0.741   2.270
 5222WAT     H215909   5.333   0.641   2.170
 5223WAT      O15910   5.597   8.407   3.568
 5223WAT     H115911   5.593   8.452   3.478
 5223WAT     H215912   5.599   8.476   3.640
 5224WAT      O15913   5.474   4.628   8.183
 5224WAT     H115914   5.535   4.687   8.235
 5224WAT     H215915   5.443   4.675   8.101
 5225WAT      O15916   6.942   0.519   3.785
 5225WAT     H115917   6.885   0.557   3.712
 5225WAT     H215918   6.952   0.587   3.858
 5226WAT      O15919   8.577   6.082   4.090
 5226WAT     H115920   8.478   6.071   4.101
 5226WAT     H215921   8.616   6.117   4.175
 5227WAT      O15922   2.758   1.027   7.934
 5227WAT     H115923   2.831   0.959   7.945
 5227WAT     H215924   2.695   1.021   8.011
 5228WAT      O15925   7.716   7.260   9.244
 5228WAT     H115926   7.713   7.160   9.243
 5228WAT     H215927   7.789   7.291   9.305
 5229WAT      O15928   4.425   0.153   5.164
 5229WAT     H115929   4.334   0.131   5.199
 5229WAT     H215930   4.419   0.171   5.066
 5230WAT      O15931   8.835   3.064   1.623
 5230WAT     H115932   8.858   3.157   1.595
 5230WAT     H215933   8.918   3.010   1.630
 5231WAT      O15934   9.142   2.842   9.292
 5231WAT     H115935   9.191   2.850   9.379
 5231WAT     H215936   9.087   2.759   9.292
 5232WAT      O15937   0.364   2.492   3.591
 5232WAT     H115938   0.404   2.521   3.677
 5232WAT     H215939   0.429   2.434   3.542
 5233WAT      O15940   5.129   7.912   4.345
 5233WAT     H115941   5.064   7.985   4.368
 5233WAT     H215942   5.152   7.918   4.248
 5234WAT      O15943   6.520   2.129   4.300
 5234WAT     H115944   6.594   2.114   4.365
 5234WAT     H215945   6.551   2.191   4.228
 5235WAT      O15946   7.265   7.307   7.723
 5235WAT     H115947   7.318   7.231   7.760
 5235WAT     H215948   7.247   7.374   7.795
 5236WAT      O15949   8.379   3.410   8.708
 5236WAT     H115950   8.445   3.475   8.747
 5236WAT     H215951   8.427   3.327   8.681
 5237WAT      O15952   8.496   7.491   4.678
 5237WAT     H115953   8.475   7.554   4.752
 5237WAT     H215954   8.488   7.396   4.710
 5238WAT      O15955   3.796   1.575   0.720
 5238WAT     H115956   3.756   1.632   0.792
 5238WAT     H215957   3.864   1.629   0.669
 5239WAT      O15958   0.704   8.865   5.690
 5239WAT     H115959   0.677   8.853   5.595
 5239WAT     H215960   0.712   8.776   5.735
 5240WAT      O15961   6.582   1.854   3.453
 5240WAT     H115962   6.604   1.770   3.502
 5240WAT     H215963   6.588   1.838   3.354
 5241WAT      O15964   1.187   6.103   6.578
 5241WAT     H115965   1.164   6.194   6.544
 5241WAT     H215966   1.228   6.049   6.503
 5242WAT      O15967   3.055   0.814   1.568
 5242WAT     H115968   2.966   0.859   1.564
 5242WAT     H215969   3.046   0.725   1.614
 5243WAT      O15970   9.207   9.410   8.430
 5243WAT     H115971   9.170   9.433   8.520
 5243WAT     H215972   9.299   9.373   8.439
 5244WAT      O15973   5.848   6.872   0.420
 5244WAT     H115974   5.918   6.942   0.410
 5244WAT     H215975   5.878   6.804   0.487
 5245WAT      O15976   9.108   5.790   6.172
 5245WAT     H115977   9.072   5.706   6.131
 5245WAT     H215978   9.036   5.859   6.177
 5246WAT      O15979   9.334   7.350   8.316
 5246WAT     H115980   9.390   7.272   8.286
 5246WAT     H215981   9.307   7.337   8.411
 5247WAT      O15982   0.566   2.524   1.968
 5247WAT     H115983   0.485   2.469   1.991
 5247WAT     H215984   0.646   2.486   2.016
 5248WAT      O15985   4.733   2.187   3.519
 5248WAT     H115986   4.663   2.250   3.555
 5248WAT     H215987   4.771   2.224   3.434
 5249WAT      O15988   2.366   9.636   2.407
 5249WAT     H115989   2.311   9.583   2.472
 5249WAT     H215990   2.409   9.575   2.341
 5250WAT      O15991   0.635   3.238   7.943
 5250WAT     H115992   0.712   3.281   7.897
 5250WAT     H215993   0.603   3.159   7.890
 5251WAT      O15994   3.831   1.446   5.515
 5251WAT     H115995   3.736   1.422   5.537
 5251WAT     H215996   3.885   1.362   5.504
 5252WAT      O15997   3.654   7.001   1.799
 5252WAT     H115998   3.643   6.919   1.742
 5252WAT     H215999   3.623   6.982   1.892
 5253WAT      O16000   2.572   1.088   3.290
 5253WAT     H116001   2.643   1.081   3.360
 5253WAT     H216002   2.539   1.182   3.285
 5254WAT      O16003   6.028   1.765   8.878
 5254WAT     H116004   5.973   1.744   8.797
 5254WAT     H216005   5.978   1.737   8.960
 5255WAT      O16006   0.240   5.450   1.663
 5255WAT     H116007   0.159   5.408   1.705
 5255WAT     H216008   0.277   5.389   1.594
 5256WAT      O16009   1.127   8.063   1.330
 5256WAT     H116010   1.140   8.155   1.366
 5256WAT     H216011   1.195   8.045   1.259
 5257WAT      O16012   2.837   0.576   8.645
 5257WAT     H116013   2.834   0.645   8.573
 5257WAT     H216014   2.922   0.585   8.696
 5258WAT      O16015   5.219   2.973   9.341
 5258WAT     H116016   5.178   2.902   9.284
 5258WAT     H216017   5.185   2.964   9.435
 5259WAT      O16018   6.546   0.922   3.716
 5259WAT     H116019   6.593   1.005   3.746
 5259WAT     H216020   6.469   0.947   3.657
 5260WAT      O16021   2.006   6.493   4.879
 5260WAT     H116022   2.088   6.448   4.915
 5260WAT     H216023   1.994   6.581   4.924
 5261WAT      O16024   1.677   7.143   5.484
 5261WAT     H116025   1.701   7.240   5.473
 5261WAT     H216026   1.755   7.094   5.524
 5262WAT      O16027   7.177   5.527   5.505
 5262WAT     H116028   7.082   5.552   5.489
 5262WAT     H216029   7.224   5.516   5.417
 5263WAT      O16030   4.439   7.630   2.671
 5263WAT     H116031   4.413   7.552   2.614
 5263WAT     H216032   4.410   7.714   2.627
 5264WAT      O16033   6.702   9.514   0.893
 5264WAT     H116034   6.620   9.516   0.950
 5264WAT     H216035   6.773   9.571   0.935
 5265WAT      O16036   5.536   4.087   2.819
 5265WAT     H116037   5.457   4.101   2.878
 5265WAT     H216038   5.570   3.993   2.829
 5266WAT      O16039   2.804   3.762   9.082
 5266WAT     H116040   2.781   3.666   9.095
 5266WAT     H216041   2.727   3.809   9.038
 5267WAT      O16042   9.689   4.310   7.742
 5267WAT     H116043   9.766   4.253   7.772
 5267WAT     H216044   9.689   4.396   7.793
 5268WAT      O16045   9.267   8.228   3.827
 5268WAT     H116046   9.242   8.306   3.883
 5268WAT     H216047   9.219   8.233   3.740
 5269WAT      O16048   9.125   7.888   5.883
 5269WAT     H116049   9.096   7.892   5.979
 5269WAT     H216050   9.193   7.816   5.872
 5270WAT      O16051   8.325   2.309   5.144
 5270WAT     H116052   8.373   2.223   5.124
 5270WAT     H216053   8.352   2.342   5.234
 5271WAT      O16054   1.319   3.813   1.856
 5271WAT     H116055   1.277   3.881   1.797
 5271WAT     H216056   1.299   3.721   1.821
 5272WAT      O16057   8.098   6.747   6.193
 5272WAT     H116058   8.016   6.691   6.183
 5272WAT     H216059   8.075   6.844   6.181
 5273WAT      O16060   8.103   8.407   0.598
 5273WAT     H116061   8.112   8.416   0.499
 5273WAT     H216062   8.050   8.325   0.619
 5274WAT      O16063   8.364   6.675   6.237
 5274WAT     H116064   8.269   6.706   6.246
 5274WAT     H216065   8.366   6.575   6.233
 5275WAT      O16066   8.691   3.599   7.615
 5275WAT     H116067   8.673   3.672   7.550
 5275WAT     H216068   8.768   3.624   7.674
 5276WAT      O16069   8.697   7.088   8.848
 5276WAT     H116070   8.657   7.038   8.772
 5276WAT     H216071   8.753   7.026   8.903
 5277WAT      O16072   8.009   4.081   8.886
 5277WAT     H116073   8.015   4.029   8.801
 5277WAT     H216074   7.990   4.019   8.962
 5278WAT      O16075   2.012   1.549   6.326
 5278WAT     H116076   1.977   1.462   6.292
 5278WAT     H216077   2.037   1.607   6.249
 5279WAT      O16078   3.481   8.077   1.533
 5279WAT     H116079   3.381   8.075   1.528
 5279WAT     H216080   3.512   8.027   1.613
 5280WAT      O16081   3.013   9.048   0.827
 5280WAT     H116082   2.950   9.045   0.905
 5280WAT     H216083   3.105   9.070   0.859
 5281WAT      O16084   7.957   4.600   0.269
 5281WAT     H116085   7.923   4.621   0.361
 5281WAT     H216086   7.940   4.504   0.249
 5282WAT      O16087   5.611   9.088   3.275
 5282WAT     H116088   5.596   9.159   3.207
 5282WAT     H216089   5.648   9.006   3.229
 5283WAT      O16090   8.988   6.855   0.307
 5283WAT     H116091   9.048   6.921   0.263
 5283WAT     H216092   8.977   6.774   0.249
 5284WAT      O16093   6.151   8.748   2.292
 5284WAT     H116094   6.080   8.815   2.315
 5284WAT     H216095   6.115   8.656   2.301
 5285WAT      O16096   9.810   9.637   6.702
 5285WAT     H116097   9.736   9.703   6.688
 5285WAT     H216098   9.805   9.600   6.795
 5286WAT      O16099   9.455   2.890   3.383
 5286WAT     H116100   9.503   2.871   3.298
 5286WAT     H216101   9.510   2.950   3.441
 5287WAT      O16102   6.092   6.855   1.142
 5287WAT     H116103   6.131   6.775   1.095
 5287WAT     H216104   6.131   6.861   1.233
 5288WAT      O16105   5.517   3.526   1.626
 5288WAT     H116106   5.570   3.599   1.583
 5288WAT     H216107   5.469   3.473   1.556
 5289WAT      O16108   5.050   3.855   8.531
 5289WAT     H116109   5.069   3.941   8.485
 5289WAT     H216110   4.991   3.871   8.610
 5290WAT      O16111   6.024   1.112   7.489
 5290WAT     H116112   5.990   1.148   7.576
 5290WAT     H216113   6.069   1.186   7.439
 5291WAT      O16114   8.732   8.809   2.689
 5291WAT     H116115   8.679   8.786   2.771
 5291WAT     H216116   8.829   8.809   2.712
 5292WAT      O16117   4.592   1.365   1.920
 5292WAT     H116118   4.691   1.369   1.906
 5292WAT     H216119   4.552   1.456   1.908
 5293WAT      O16120   9.070   4.684   8.311
 5293WAT     H116121   8.976   4.716   8.311
 5293WAT     H216122   9.094   4.648   8.401
 5294WAT      O16123   0.600   3.322   0.393
 5294WAT     H116124   0.693   3.353   0.373
 5294WAT     H216125   0.540   3.401   0.404
 5295WAT      O16126   6.737   1.054   5.184
 5295WAT     H116127   6.741   1.110   5.102
 5295WAT     H216128   6.808   0.984   5.180
 5296WAT      O16129   3.411   3.185   0.015
 5296WAT     H116130   3.473   3.162   0.091
 5296WAT     H216131   3.463   3.231  -0.057
 5297WAT      O16132   3.552   1.161   6.910
 5297WAT     H116133   3.578   1.081   6.964
 5297WAT     H216134   3.552   1.242   6.969
 5298WAT      O16135   7.579   0.520   4.281
 5298WAT     H116136   7.537   0.496   4.369
 5298WAT     H216137   7.678   0.532   4.294
 5299WAT      O16138   5.002   4.606   3.358
 5299WAT     H116139   4.940   4.584   3.283
 5299WAT     H216140   5.027   4.522   3.407
 5300WAT      O16141   5.426   3.120   6.843
 5300WAT     H116142   5.475   3.104   6.929
 5300WAT     H216143   5.355   3.051   6.833
 5301WAT      O16144   0.264   2.816   6.895
 5301WAT     H116145   0.177   2.858   6.868
 5301WAT     H216146   0.335   2.886   6.896
 5302WAT      O16147   9.689   3.051   9.059
 5302WAT     H116148   9.763   3.044   8.992
 5302WAT     H216149   9.614   3.104   9.019
 5303WAT      O16150   9.164   1.816   1.751
 5303WAT     H116151   9.093   1.854   1.809
 5303WAT     H216152   9.227   1.761   1.806
 5304WAT      O16153   7.235   5.230   6.750
 5304WAT     H116154   7.240   5.325   6.720
 5304WAT     H216155   7.257   5.224   6.847
 5305WAT      O16156   9.037   5.421   4.723
 5305WAT     H116157   9.052   5.347   4.789
 5305WAT     H216158   9.053   5.387   4.631
 5306WAT      O16159   8.474   3.392   2.954
 5306WAT     H116160   8.407   3.400   2.881
 5306WAT     H216161   8.427   3.395   3.043
 5307WAT      O16162   1.724   3.714   3.656
 5307WAT     H116163   1.797   3.651   3.680
 5307WAT     H216164   1.680   3.747   3.740
 5308WAT      O16165   6.931   1.552   2.671
 5308WAT     H116166   6.949   1.531   2.767
 5308WAT     H216167   6.917   1.467   2.619
 5309WAT      O16168   0.868   6.169   6.867
 5309WAT     H116169   0.845   6.112   6.788
 5309WAT     H216170   0.786   6.184   6.922
 5310WAT      O16171   0.527   6.618   6.319
 5310WAT     H116172   0.553   6.523   6.335
 5310WAT     H216173   0.526   6.636   6.220
 5311WAT      O16174   7.192   3.154   2.183
 5311WAT     H116175   7.180   3.054   2.180
 5311WAT     H216176   7.173   3.187   2.276
 5312WAT      O16177   1.421   3.430   3.911
 5312WAT     H116178   1.521   3.427   3.904
 5312WAT     H216179   1.395   3.428   4.007
 5313WAT      O16180   5.236   4.709   4.181
 5313WAT     H116181   5.304   4.690   4.111
 5313WAT     H216182   5.236   4.806   4.202
 5314WAT      O16183   9.877   9.599   2.695
 5314WAT     H116184   9.850   9.616   2.600
 5314WAT     H216185   9.952   9.533   2.697
 5315WAT      O16186   2.748   2.278   4.214
 5315WAT     H116187   2.804   2.290   4.296
 5315WAT     H216188   2.786   2.331   4.139
 5316WAT      O16189   5.355   5.912   2.832
 5316WAT     H116190   5.387   5.979   2.765
 5316WAT     H216191   5.258   5.927   2.851
 5317WAT      O16192   3.298   5.906   4.072
 5317WAT     H116193   3.285   5.809   4.092
 5317WAT     H216194   3.361   5.916   3.995
 5318WAT      O16195   6.093   5.257   2.808
 5318WAT     H116196   6.013   5.296   2.853
 5318WAT     H216197   6.085   5.157   2.808
 5319WAT      O16198   5.771   6.095   2.684
 5319WAT     H116199   5.809   6.088   2.776
 5319WAT     H216200   5.723   6.182   2.674
 5320WAT      O16201   8.741   7.051   4.676
 5320WAT     H116202   8.784   7.138   4.652
 5320WAT     H216203   8.781   7.015   4.760
 5321WAT      O16204   0.022   2.909   0.796
 5321WAT     H116205  -0.068   2.866   0.797
 5321WAT     H216206   0.057   2.916   0.890
 5322WAT      O16207   1.463   3.849   5.733
 5322WAT     H116208   1.451   3.925   5.797
 5322WAT     H216209   1.492   3.767   5.783
 5323WAT      O16210   3.761   5.759   0.713
 5323WAT     H116211   3.781   5.694   0.786
 5323WAT     H216212   3.847   5.790   0.672
 5324WAT      O16213   7.570   5.337   7.619
 5324WAT     H116214   7.508   5.283   7.676
 5324WAT     H216215   7.559   5.311   7.523
 5325WAT      O16216   1.609   9.738   5.270
 5325WAT     H116217   1.562   9.704   5.351
 5325WAT     H216218   1.612   9.838   5.272
 5326WAT      O16219   7.661   9.527   6.095
 5326WAT     H116220   7.619   9.446   6.055
 5326WAT     H216221   7.629   9.609   6.047
 5327WAT      O16222   8.050   8.961   4.343
 5327WAT     H116223   8.149   8.967   4.355
 5327WAT     H216224   8.008   8.924   4.426
 5328WAT      O16225   8.437   1.137   0.376
 5328WAT     H116226   8.416   1.172   0.467
 5328WAT     H216227   8.374   1.177   0.309
 5329WAT      O16228   9.866   0.280   9.452
 5329WAT     H116229   9.796   0.251   9.517
 5329WAT     H216230   9.834   0.359   9.401
 5330WAT      O16231   8.226   6.277   0.128
 5330WAT     H116232   8.291   6.353   0.129
 5330WAT     H216233   8.227   6.235   0.038
 5331WAT      O16234   4.226   8.838   6.931
 5331WAT     H116235   4.156   8.841   7.002
 5331WAT     H216236   4.243   8.931   6.897
 5332WAT      O16237   4.963   5.621   9.548
 5332WAT     H116238   5.047   5.582   9.510
 5332WAT     H216239   4.884   5.571   9.513
 5333WAT      O16240   4.386   9.323   3.286
 5333WAT     H116241   4.455   9.385   3.249
 5333WAT     H216242   4.351   9.265   3.213
 5334WAT      O16243   7.769   3.966   0.542
 5334WAT     H116244   7.787   4.051   0.592
 5334WAT     H216245   7.696   3.915   0.588
 5335WAT      O16246   2.784   5.986   2.117
 5335WAT     H116247   2.734   5.907   2.152
 5335WAT     H216248   2.741   6.070   2.150
 5336WAT      O16249   6.560   2.913   9.029
 5336WAT     H116250   6.568   2.917   9.129
 5336WAT     H216251   6.546   3.006   8.993
 5337WAT      O16252   7.118   0.855   7.672
 5337WAT     H116253   7.059   0.834   7.594
 5337WAT     H216254   7.097   0.792   7.747
 5338WAT      O16255   6.261   2.030   9.684
 5338WAT     H116256   6.245   2.091   9.607
 5338WAT     H216257   6.313   1.950   9.653
 5339WAT      O16258   5.921   4.789   3.911
 5339WAT     H116259   5.902   4.698   3.875
 5339WAT     H216260   5.883   4.798   4.003
 5340WAT      O16261   8.606   4.181   7.409
 5340WAT     H116262   8.631   4.258   7.350
 5340WAT     H216263   8.688   4.133   7.439
 5341WAT      O16264   1.432   4.780   7.375
 5341WAT     H116265   1.418   4.727   7.291
 5341WAT     H216266   1.525   4.818   7.374
 5342WAT      O16267   4.969   2.134   8.545
 5342WAT     H116268   4.872   2.133   8.521
 5342WAT     H216269   4.996   2.226   8.573
 5343WAT      O16270   6.363   2.699   3.189
 5343WAT     H116271   6.380   2.687   3.091
 5343WAT     H216272   6.268   2.675   3.209
 5344WAT      O16273   3.843   7.238   8.135
 5344WAT     H116274   3.874   7.226   8.041
 5344WAT     H216275   3.862   7.154   8.187
 5345WAT      O16276   2.884   5.843   5.458
 5345WAT     H116277   2.934   5.768   5.416
 5345WAT     H216278   2.787   5.836   5.434
 5346WAT      O16279   3.597   3.564   6.678
 5346WAT     H116280   3.521   3.557   6.613
 5346WAT     H216281   3.640   3.475   6.689
 5347WAT      O16282   3.841   5.091   1.119
 5347WAT     H116283   3.775   5.158   1.086
 5347WAT     H216284   3.896   5.058   1.042
 5348WAT      O16285   5.546   9.188   1.182
 5348WAT     H116286   5.607   9.111   1.203
 5348WAT     H216287   5.521   9.185   1.086
 5349WAT      O16288   0.351   6.064   5.987
 5349WAT     H116289   0.446   6.060   5.955
 5349WAT     H216290   0.292   6.018   5.920
 5350WAT      O16291   9.218   7.049   8.522
 5350WAT     H116292   9.272   6.997   8.455
 5350WAT     H216293   9.121   7.027   8.511
 5351WAT      O16294   6.202   3.829   1.960
 5351WAT     H116295   6.166   3.749   1.911
 5351WAT     H216296   6.158   3.837   2.049
 5352WAT      O16297   7.109   3.188   7.297
 5352WAT     H116298   7.184   3.173   7.361
 5352WAT     H216299   7.074   3.282   7.308
 5353WAT      O16300   5.566   4.622   6.452
 5353WAT     H116301   5.466   4.628   6.446
 5353WAT     H216302   5.596   4.534   6.416
 5354WAT      O16303   3.738   0.853   9.007
 5354WAT     H116304   3.786   0.848   9.094
 5354WAT     H216305   3.725   0.761   8.970
 5355WAT      O16306   5.725   6.496   6.262
 5355WAT     H116307   5.755   6.576   6.314
 5355WAT     H216308   5.754   6.413   6.309
 5356WAT      O16309   1.531   2.261   6.496
 5356WAT     H116310   1.438   2.267   6.533
 5356WAT     H216311   1.591   2.216   6.562
 5357WAT      O16312   2.369   8.248   7.164
 5357WAT     H116313   2.333   8.155   7.152
 5357WAT     H216314   2.377   8.268   7.261
 5358WAT      O16315   8.438   6.581   8.604
 5358WAT     H116316   8.352   6.597   8.555
 5358WAT     H216317   8.437   6.633   8.690
 5359WAT      O16318   3.358   0.594   6.887
 5359WAT     H116319   3.335   0.681   6.843
 5359WAT     H216320   3.326   0.595   6.982
 5360WAT      O16321   1.165   6.069   4.088
 5360WAT     H116322   1.218   6.104   4.166
 5360WAT     H216323   1.083   6.022   4.122
 5361WAT      O16324   6.063   0.759   7.846
 5361WAT     H116325   6.070   0.663   7.821
 5361WAT     H216326   5.979   0.773   7.900
 5362WAT      O16327   3.836   1.490   5.198
 5362WAT     H116328   3.855   1.513   5.293
 5362WAT     H216329   3.744   1.449   5.191
 5363WAT      O16330   4.012   0.421   6.985
 5363WAT     H116331   4.025   0.429   6.886
 5363WAT     H216332   3.919   0.451   7.008
 5364WAT      O16333   6.655   4.273   4.790
 5364WAT     H116334   6.664   4.372   4.799
 5364WAT     H216335   6.581   4.252   4.726
 5365WAT      O16336   9.099   4.825   2.470
 5365WAT     H116337   9.047   4.799   2.389
 5365WAT     H216338   9.161   4.900   2.447
 5366WAT      O16339   7.449   8.329   6.392
 5366WAT     H116340   7.493   8.363   6.308
 5366WAT     H216341   7.365   8.282   6.369
 5367WAT      O16342   6.473   2.862   9.445
 5367WAT     H116343   6.522   2.787   9.402
 5367WAT     H216344   6.446   2.929   9.376
 5368WAT      O16345   1.925   9.172   7.252
 5368WAT     H116346   1.987   9.094   7.246
 5368WAT     H216347   1.951   9.230   7.330
 5369WAT      O16348   6.726   7.183   5.995
 5369WAT     H116349   6.663   7.120   5.950
 5369WAT     H216350   6.781   7.134   6.062
 5370WAT      O16351   3.628   6.862   7.198
 5370WAT     H116352   3.660   6.767   7.190
 5370WAT     H216353   3.529   6.865   7.192
 5371WAT      O16354   7.000   4.934   5.348
 5371WAT     H116355   7.075   4.880   5.387
 5371WAT     H216356   7.033   5.025   5.326
 5372WAT      O16357   2.330   1.851   6.982
 5372WAT     H116358   2.238   1.810   6.975
 5372WAT     H216359   2.379   1.835   6.896
 5373WAT      O16360   4.075   7.830   1.841
 5373WAT     H116361   4.122   7.912   1.873
 5373WAT     H216362   4.135   7.779   1.779
 5374WAT      O16363   8.386   1.945   5.820
 5374WAT     H116364   8.295   1.910   5.845
 5374WAT     H216365   8.452   1.918   5.889
 5375WAT      O16366   9.826   4.828   7.626
 5375WAT     H116367   9.873   4.882   7.557
 5375WAT     H216368   9.845   4.731   7.611
 5376WAT      O16369   0.781   8.574   5.485
 5376WAT     H116370   0.872   8.612   5.504
 5376WAT     H216371   0.750   8.520   5.563
 5377WAT      O16372   9.073   5.339   6.222
 5377WAT     H116373   9.121   5.295   6.298
 5377WAT     H216374   9.139   5.385   6.163
 5378WAT      O16375   4.749   3.390   5.280
 5378WAT     H116376   4.699   3.447   5.346
 5378WAT     H216377   4.832   3.437   5.250
 5379WAT      O16378   9.607   5.646   4.522
 5379WAT     H116379   9.693   5.634   4.473
 5379WAT     H216380   9.566   5.733   4.496
 5380WAT      O16381   2.339   3.025   4.079
 5380WAT     H116382   2.282   2.945   4.096
 5380WAT     H216383   2.397   3.007   3.999
 5381WAT      O16384   8.284   1.068   7.405
 5381WAT     H116385   8.221   1.024   7.342
 5381WAT     H216386   8.294   1.012   7.487
 5382WAT      O16387   6.332   3.834   8.917
 5382WAT     H116388   6.417   3.807   8.872
 5382WAT     H216389   6.284   3.901   8.860
 5383WAT      O16390   2.252   4.868   9.824
 5383WAT     H116391   2.224   4.830   9.736
 5383WAT     H216392   2.172   4.875   9.884
 5384WAT      O16393   3.276   7.072   3.929
 5384WAT     H116394   3.241   7.113   4.014
 5384WAT     H216395   3.338   7.136   3.884
 5385WAT      O16396   2.975   5.261   7.135
 5385WAT     H116397   3.012   5.226   7.049
 5385WAT     H216398   2.899   5.324   7.116
 5386WAT      O16399   5.277   9.568   4.262
 5386WAT     H116400   5.264   9.481   4.214
 5386WAT     H216401   5.245   9.643   4.204
 5387WAT      O16402   3.286   0.199   7.148
 5387WAT     H116403   3.209   0.233   7.094
 5387WAT     H216404   3.267   0.106   7.178
 5388WAT      O16405   9.044   0.161   7.403
 5388WAT     H116406   9.117   0.222   7.372
 5388WAT     H216407   9.046   0.077   7.349
 5389WAT      O16408   3.031   3.377   9.359
 5389WAT     H116409   3.064   3.390   9.453
 5389WAT     H216410   2.934   3.352   9.362
 5390WAT      O16411   3.540   1.109   1.012
 5390WAT     H116412   3.478   1.065   1.077
 5390WAT     H216413   3.536   1.059   0.925
 5391WAT      O16414   4.267   8.372   1.876
 5391WAT     H116415   4.233   8.432   1.804
 5391WAT     H216416   4.202   8.368   1.951
 5392WAT      O16417   7.601   6.947   3.747
 5392WAT     H116418   7.503   6.961   3.737
 5392WAT     H216419   7.640   7.021   3.801
 5393WAT      O16420   4.253   7.871   9.166
 5393WAT     H116421   4.312   7.834   9.094
 5393WAT     H216422   4.296   7.855   9.255
 5394WAT      O16423   9.124   1.218   1.013
 5394WAT     H116424   9.185   1.142   0.991
 5394WAT     H216425   9.073   1.243   0.931
 5395WAT      O16426   8.684   0.399   4.457
 5395WAT     H116427   8.620   0.430   4.387
 5395WAT     H216428   8.778   0.413   4.425
 5396WAT      O16429   2.696   1.289   1.621
 5396WAT     H116430   2.717   1.236   1.539
 5396WAT     H216431   2.774   1.287   1.683
 5397WAT      O16432   0.934   3.948   4.765
 5397WAT     H116433   0.852   4.006   4.760
 5397WAT     H216434   0.982   3.966   4.851
 5398WAT      O16435   3.154   3.063   4.451
 5398WAT     H116436   3.237   3.103   4.490
 5398WAT     H216437   3.087   3.135   4.435
 5399WAT      O16438   6.233   5.742   5.019
 5399WAT     H116439   6.296   5.820   5.026
 5399WAT     H216440   6.192   5.724   5.109
 5400WAT      O16441   2.249   6.468   9.280
 5400WAT     H116442   2.310   6.541   9.313
 5400WAT     H216443   2.160   6.508   9.256
 5401WAT      O16444   8.625   0.609   9.865
 5401WAT     H116445   8.672   0.641   9.947
 5401WAT     H216446   8.689   0.559   9.807
 5402WAT      O16447   2.327   7.487   9.265
 5402WAT     H116448   2.292   7.580   9.283
 5402WAT     H216449   2.397   7.464   9.333
 5403WAT      O16450   2.079   4.601   5.046
 5403WAT     H116451   2.128   4.514   5.060
 5403WAT     H216452   1.981   4.585   5.051
 5404WAT      O16453   9.256   2.665   5.878
 5404WAT     H116454   9.338   2.608   5.881
 5404WAT     H216455   9.228   2.687   5.971
 5405WAT      O16456   7.083   9.327   3.738
 5405WAT     H116457   7.158   9.336   3.672
 5405WAT     H216458   7.021   9.254   3.709
 5406WAT      O16459   0.919   8.054   7.689
 5406WAT     H116460   0.997   7.995   7.671
 5406WAT     H216461   0.836   8.011   7.653
 5407WAT      O16462   4.757   8.393   8.438
 5407WAT     H116463   4.671   8.348   8.412
 5407WAT     H216464   4.833   8.352   8.386
 5408WAT      O16465   4.361   4.901   2.354
 5408WAT     H116466   4.426   4.908   2.278
 5408WAT     H216467   4.354   4.805   2.383
 5409WAT      O16468   5.173   8.156   1.109
 5409WAT     H116469   5.265   8.119   1.096
 5409WAT     H216470   5.179   8.252   1.136
 5410WAT      O16471   0.965   7.075   3.960
 5410WAT     H116472   1.025   7.022   3.899
 5410WAT     H216473   0.960   7.169   3.927
 5411WAT      O16474   2.793   7.912   6.437
 5411WAT     H116475   2.822   7.956   6.353
 5411WAT     H216476   2.712   7.958   6.473
 5412WAT      O16477   4.340   4.483   2.721
 5412WAT     H116478   4.325   4.564   2.778
 5412WAT     H216479   4.436   4.478   2.695
 5413WAT      O16480   3.636   4.177   3.494
 5413WAT     H116481   3.563   4.144   3.553
 5413WAT     H216482   3.720   4.189   3.547
 5414WAT      O16483   1.949   9.707   2.030
 5414WAT     H116484   1.850   9.705   2.045
 5414WAT     H216485   1.993   9.747   2.110
 5415WAT      O16486   2.166   9.378   9.890
 5415WAT     H116487   2.135   9.456   9.836
 5415WAT     H216488   2.248   9.404   9.942
 5416WAT      O16489   3.852   5.460   7.298
 5416WAT     H116490   3.948   5.444   7.276
 5416WAT     H216491   3.841   5.477   7.395
 5417WAT      O16492   0.213   3.442   4.412
 5417WAT     H116493   0.307   3.434   4.381
 5417WAT     H216494   0.199   3.385   4.493
 5418WAT      O16495   2.299   9.395   0.934
 5418WAT     H116496   2.385   9.429   0.971
 5418WAT     H216497   2.229   9.396   1.005
 5419WAT      O16498   8.517   3.457   3.301
 5419WAT     H116499   8.435   3.405   3.276
 5419WAT     H216500   8.582   3.397   3.347
 5420WAT      O16501   5.063   0.433   7.833
 5420WAT     H116502   5.121   0.391   7.763
 5420WAT     H216503   5.062   0.377   7.915
 5421WAT      O16504   1.950   7.221   3.121
 5421WAT     H116505   1.886   7.262   3.185
 5421WAT     H216506   2.013   7.161   3.170
 5422WAT      O16507   6.335   1.434   2.342
 5422WAT     H116508   6.424   1.479   2.338
 5422WAT     H216509   6.263   1.501   2.359
 5423WAT      O16510   1.788   3.209   0.889
 5423WAT     H116511   1.815   3.122   0.848
 5423WAT     H216512   1.835   3.284   0.843
 5424WAT      O16513   7.531   9.488   0.243
 5424WAT     H116514   7.560   9.405   0.292
 5424WAT     H216515   7.521   9.563   0.308
 5425WAT      O16516   4.567   3.914   3.987
 5425WAT     H116517   4.519   3.844   4.039
 5425WAT     H216518   4.542   4.004   4.022
 5426WAT      O16519   3.876   4.529   3.856
 5426WAT     H116520   3.944   4.583   3.806
 5426WAT     H216521   3.882   4.433   3.828
 5427WAT      O16522   9.130   4.484   0.543
 5427WAT     H116523   9.222   4.446   0.547
 5427WAT     H216524   9.128   4.572   0.589
 5428WAT      O16525   9.437   8.952   0.108
 5428WAT     H116526   9.485   9.036   0.083
 5428WAT     H216527   9.412   8.955   0.205
 5429WAT      O16528   7.155   4.174   3.593
 5429WAT     H116529   7.104   4.103   3.643
 5429WAT     H216530   7.240   4.135   3.557
 5430WAT      O16531   9.663   4.569   0.662
 5430WAT     H116532   9.572   4.608   0.675
 5430WAT     H216533   9.655   4.481   0.615
 5431WAT      O16534   2.292   0.702   7.456
 5431WAT     H116535   2.388   0.710   7.428
 5431WAT     H216536   2.287   0.676   7.552
 5432WAT      O16537   5.081   8.748   7.187
 5432WAT     H116538   5.179   8.757   7.205
 5432WAT     H216539   5.052   8.822   7.125
 5433WAT      O16540   3.276   5.376   2.889
 5433WAT     H116541   3.352   5.311   2.884
 5433WAT     H216542   3.275   5.420   2.978
 5434WAT      O16543   3.013   8.238   3.088
 5434WAT     H116544   3.054   8.279   3.170
 5434WAT     H216545   2.978   8.310   3.029
 5435WAT      O16546   3.518   5.191   8.373
 5435WAT     H116547   3.565   5.194   8.284
 5435WAT     H216548   3.531   5.101   8.415
 5436WAT      O16549   5.336   4.077   2.068
 5436WAT     H116550   5.387   4.158   2.097
 5436WAT     H216551   5.275   4.048   2.142
 5437WAT      O16552   1.977   0.074   7.894
 5437WAT     H116553   1.933   0.137   7.831
 5437WAT     H216554   2.061   0.115   7.930
 5438WAT      O16555   4.016   9.695   2.695
 5438WAT     H116556   3.970   9.661   2.777
 5438WAT     H216557   4.044   9.790   2.710
 5439WAT      O16558   9.257   5.061   6.751
 5439WAT     H116559   9.311   5.007   6.686
 5439WAT     H216560   9.309   5.073   6.835
 5440WAT      O16561   2.678   7.099   5.971
 5440WAT     H116562   2.702   7.035   6.044
 5440WAT     H216563   2.647   7.185   6.010
 5441WAT      O16564   5.844   8.863   4.588
 5441WAT     H116565   5.772   8.801   4.558
 5441WAT     H216566   5.897   8.819   4.661
 5442WAT      O16567   7.632   1.685   3.086
 5442WAT     H116568   7.713   1.740   3.064
 5442WAT     H216569   7.631   1.664   3.184
 5443WAT      O16570   1.535   9.621   5.552
 5443WAT     H116571   1.502   9.527   5.561
 5443WAT     H216572   1.583   9.647   5.636
 5444WAT      O16573   9.817   0.594   5.148
 5444WAT     H116574   9.775   0.570   5.060
 5444WAT     H216575   9.766   0.669   5.190
 5445WAT      O16576   8.549   4.399   9.397
 5445WAT     H116577   8.609   4.372   9.322
 5445WAT     H216578   8.455   4.407   9.365
 5446WAT      O16579   3.627   0.631   7.963
 5446WAT     H116580   3.637   0.575   7.880
 5446WAT     H216581   3.599   0.573   8.039
 5447WAT      O16582   4.019   0.770   5.518
 5447WAT     H116583   4.053   0.753   5.426
 5447WAT     H216584   3.983   0.685   5.557
 5448WAT      O16585   5.434   5.327   3.664
 5448WAT     H116586   5.504   5.374   3.718
 5448WAT     H216587   5.476   5.258   3.606
 5449WAT      O16588   7.003   7.915   6.968
 5449WAT     H116589   7.098   7.944   6.956
 5449WAT     H216590   6.995   7.861   7.052
 5450WAT      O16591   5.204   5.218   8.932
 5450WAT     H116592   5.210   5.303   8.880
 5450WAT     H216593   5.201   5.238   9.030
 5451WAT      O16594   7.771   4.216   4.267
 5451WAT     H116595   7.768   4.315   4.277
 5451WAT     H216596   7.706   4.187   4.197
 5452WAT      O16597   2.504   0.847   1.839
 5452WAT     H116598   2.569   0.865   1.913
 5452WAT     H216599   2.490   0.930   1.786
 5453WAT      O16600   6.166   7.300   1.201
 5453WAT     H116601   6.252   7.348   1.185
 5453WAT     H216602   6.120   7.338   1.280
 5454WAT      O16603   8.867   0.105   1.599
 5454WAT     H116604   8.891   0.047   1.521
 5454WAT     H216605   8.871   0.051   1.683
 5455WAT      O16606   1.395   3.927   9.413
 5455WAT     H116607   1.381   4.024   9.432
 5455WAT     H216608   1.488   3.901   9.438
 5456WAT      O16609   3.424   3.550   6.470
 5456WAT     H116610   3.351   3.482   6.480
 5456WAT     H216611   3.385   3.637   6.442
 5457WAT      O16612   8.317   5.575   1.081
 5457WAT     H116613   8.226   5.615   1.073
 5457WAT     H216614   8.351   5.551   0.990
 5458WAT      O16615   8.370   4.821   1.715
 5458WAT     H116616   8.340   4.867   1.799
 5458WAT     H216617   8.353   4.723   1.722
 5459WAT      O16618   6.584   9.024   3.583
 5459WAT     H116619   6.512   9.083   3.546
 5459WAT     H216620   6.621   8.967   3.510
 5460WAT      O16621   9.268   2.123   2.519
 5460WAT     H116622   9.366   2.105   2.527
 5460WAT     H216623   9.226   2.054   2.460
 5461WAT      O16624   7.067   8.188   8.379
 5461WAT     H116625   7.106   8.226   8.295
 5461WAT     H216626   7.041   8.262   8.441
 5462WAT      O16627   3.087   0.794   2.391
 5462WAT     H116628   3.125   0.856   2.459
 5462WAT     H216629   3.077   0.841   2.304
 5463WAT      O16630   3.828   3.448   8.233
 5463WAT     H116631   3.859   3.542   8.245
 5463WAT     H216632   3.731   3.441   8.255
 5464WAT      O16633   5.131   4.107   6.345
 5464WAT     H116634   5.212   4.050   6.360
 5464WAT     H216635   5.111   4.159   6.428
 5465WAT      O16636   0.221   3.746   4.938
 5465WAT     H116637   0.126   3.764   4.964
 5465WAT     H216638   0.268   3.698   5.011
 5466WAT      O16639   9.703   5.010   3.040
 5466WAT     H116640   9.681   4.933   2.980
 5466WAT     H216641   9.768   4.981   3.110
 5467WAT      O16642   7.930   8.510   5.620
 5467WAT     H116643   7.937   8.602   5.658
 5467WAT     H216644   8.008   8.493   5.561
 5468WAT      O16645   8.575   0.205   3.510
 5468WAT     H116646   8.502   0.252   3.561
 5468WAT     H216647   8.585   0.247   3.420
 5469WAT      O16648   3.244   9.479   2.522
 5469WAT     H116649   3.208   9.449   2.434
 5469WAT     H216650   3.182   9.548   2.561
 5470WAT      O16651   2.303   9.738   0.525
 5470WAT     H116652   2.215   9.704   0.556
 5470WAT     H216653   2.328   9.694   0.439
 5471WAT      O16654   3.256   7.312   2.238
 5471WAT     H116655   3.254   7.401   2.284
 5471WAT     H216656   3.308   7.319   2.153
 5472WAT      O16657   0.844   4.269   1.701
 5472WAT     H116658   0.798   4.304   1.783
 5472WAT     H216659   0.814   4.320   1.621
 5473WAT      O16660   5.720   8.049   8.117
 5473WAT     H116661   5.708   8.112   8.040
 5473WAT     H216662   5.681   7.960   8.094
 5474WAT      O16663   0.639   9.285   3.463
 5474WAT     H116664   0.549   9.264   3.502
 5474WAT     H216665   0.703   9.213   3.487
 5475WAT      O16666   1.087   8.647   4.279
 5475WAT     H116667   1.001   8.607   4.314
 5475WAT     H216668   1.153   8.573   4.264
 5476WAT      O16669   1.762   0.182   5.923
 5476WAT     H116670   1.693   0.138   5.865
 5476WAT     H216671   1.845   0.126   5.924
 5477WAT      O16672   6.275   0.428   5.425
 5477WAT     H116673   6.226   0.416   5.511
 5477WAT     H216674   6.349   0.361   5.418
 5478WAT      O16675   9.872   2.557   6.045
 5478WAT     H116676   9.806   2.509   5.987
 5478WAT     H216677   9.901   2.497   6.120
 5479WAT      O16678   5.429   7.477   0.029
 5479WAT     H116679   5.437   7.385   0.068
 5479WAT     H216680   5.511   7.497  -0.025
 5480WAT      O16681   8.838   2.588   0.462
 5480WAT     H116682   8.765   2.535   0.504
 5480WAT     H216683   8.803   2.678   0.434
 5481WAT      O16684   8.749   3.362   6.746
 5481WAT     H116685   8.799   3.330   6.665
 5481WAT     H216686   8.736   3.461   6.740
 5482WAT      O16687   4.763   1.253   5.238
 5482WAT     H116688   4.812   1.308   5.169
 5482WAT     H216689   4.665   1.255   5.219
 5483WAT      O16690   9.448   6.034   3.068
 5483WAT     H116691   9.394   5.965   3.116
 5483WAT     H216692   9.520   5.989   3.015
 5484WAT      O16693   4.617   8.991   6.372
 5484WAT     H116694   4.583   8.985   6.466
 5484WAT     H216695   4.617   8.900   6.330
 5485WAT      O16696   5.044   2.246   0.710
 5485WAT     H116697   4.977   2.195   0.763
 5485WAT     H216698   5.105   2.296   0.772
 5486WAT      O16699   9.734   3.902   2.313
 5486WAT     H116700   9.647   3.860   2.289
 5486WAT     H216701   9.718   3.997   2.341
 5487WAT      O16702   2.926   6.596   8.833
 5487WAT     H116703   2.981   6.655   8.773
 5487WAT     H216704   2.836   6.638   8.846
 5488WAT      O16705   3.065   3.032   3.907
 5488WAT     H116706   2.970   3.009   3.885
 5488WAT     H216707   3.076   3.036   4.006
 5489WAT      O16708   3.271   7.551   0.827
 5489WAT     H116709   3.175   7.577   0.841
 5489WAT     H216710   3.328   7.634   0.828
 5490WAT      O16711   0.048   5.829   8.609
 5490WAT     H116712  -0.023   5.885   8.652
 5490WAT     H216713   0.011   5.740   8.585
 5491WAT      O16714   2.294   3.459   8.850
 5491WAT     H116715   2.238   3.384   8.815
 5491WAT     H216716   2.270   3.543   8.802
 5492WAT      O16717   9.747   6.281   0.464
 5492WAT     H116718   9.663   6.249   0.420
 5492WAT     H216719   9.818   6.293   0.396
 5493WAT      O16720   8.749   1.295   6.066
 5493WAT     H116721   8.797   1.220   6.019
 5493WAT     H216722   8.807   1.376   6.067
 5494WAT      O16723   1.939   9.453   5.079
 5494WAT     H116724   2.032   9.417   5.066
 5494WAT     H216725   1.897   9.468   4.989
 5495WAT      O16726   9.758   1.784   0.267
 5495WAT     H116727   9.707   1.750   0.188
 5495WAT     H216728   9.715   1.869   0.299
 5496WAT      O16729   9.248   6.171   0.744
 5496WAT     H116730   9.275   6.258   0.701
 5496WAT     H216731   9.220   6.106   0.674
 5497WAT      O16732   7.571   6.442   2.352
 5497WAT     H116733   7.520   6.357   2.336
 5497WAT     H216734   7.559   6.470   2.447
 5498WAT      O16735   1.487   7.079   1.762
 5498WAT     H116736   1.394   7.079   1.799
 5498WAT     H216737   1.537   7.159   1.797
 5499WAT      O16738   8.471   2.947   4.926
 5499WAT     H116739   8.554   2.998   4.902
 5499WAT     H216740   8.413   2.937   4.845
 5500WAT      O16741   8.601   0.825   2.681
 5500WAT     H116742   8.536   0.758   2.647
 5500WAT     H216743   8.563   0.870   2.763
 5501WAT      O16744   3.570   7.557   5.419
 5501WAT     H116745   3.481   7.512   5.422
 5501WAT     H216746   3.563   7.648   5.460
 5502WAT      O16747   0.734   9.425   8.294
 5502WAT     H116748   0.689   9.486   8.229
 5502WAT     H216749   0.833   9.432   8.284
 5503WAT      O16750   6.376   4.546   3.913
 5503WAT     H116751   6.426   4.612   3.858
 5503WAT     H216752   6.323   4.485   3.854
 5504WAT      O16753   4.234   3.814   1.162
 5504WAT     H116754   4.241   3.747   1.088
 5504WAT     H216755   4.201   3.901   1.125
 5505WAT      O16756   9.098   3.110   9.704
 5505WAT     H116757   9.164   3.185   9.699
 5505WAT     H216758   9.146   3.024   9.723
 5506WAT      O16759   5.514   7.753   0.598
 5506WAT     H116760   5.474   7.818   0.534
 5506WAT     H216761   5.510   7.790   0.691
 5507WAT      O16762   7.642   8.479   4.794
 5507WAT     H116763   7.709   8.551   4.811
 5507WAT     H216764   7.565   8.516   4.743
 5508WAT      O16765   1.344   5.632   9.853
 5508WAT     H116766   1.384   5.581   9.930
 5508WAT     H216767   1.393   5.610   9.769
 5509WAT      O16768   2.351   3.525   7.512
 5509WAT     H116769   2.433   3.575   7.539
 5509WAT     H216770   2.347   3.518   7.413
 5510WAT      O16771   7.478   7.648   8.310
 5510WAT     H116772   7.496   7.596   8.393
 5510WAT     H216773   7.394   7.614   8.267
 5511WAT      O16774   7.819   9.109   9.780
 5511WAT     H116775   7.837   9.194   9.829
 5511WAT     H216776   7.789   9.130   9.687
 5512WAT      O16777   6.472   1.368   0.698
 5512WAT     H116778   6.552   1.417   0.732
 5512WAT     H216779   6.499   1.278   0.664
 5513WAT      O16780   1.001   2.935   2.233
 5513WAT     H116781   0.987   3.010   2.168
 5513WAT     H216782   0.967   2.850   2.193
 5514WAT      O16783   6.714   7.836   8.109
 5514WAT     H116784   6.777   7.892   8.055
 5514WAT     H216785   6.740   7.839   8.205
 5515WAT      O16786   6.216   7.255   0.684
 5515WAT     H116787   6.186   7.341   0.644
 5515WAT     H216788   6.159   7.233   0.763
 5516WAT      O16789   3.436   5.041   7.189
 5516WAT     H116790   3.375   5.003   7.120
 5516WAT     H216791   3.458   4.971   7.257
 5517WAT      O16792   9.099   9.753   1.171
 5517WAT     H116793   9.006   9.771   1.139
 5517WAT     H216794   9.124   9.822   1.239
 5518WAT      O16795   2.995   0.156   6.943
 5518WAT     H116796   2.920   0.129   7.004
 5518WAT     H216797   2.968   0.236   6.890
 5519WAT      O16798   5.393   9.234   6.718
 5519WAT     H116799   5.474   9.206   6.666
 5519WAT     H216800   5.398   9.333   6.736
 5520WAT      O16801   0.355   0.054   3.947
 5520WAT     H116802   0.298  -0.026   3.932
 5520WAT     H216803   0.320   0.131   3.893
 5521WAT      O16804   0.175   3.512   6.149
 5521WAT     H116805   0.172   3.447   6.073
 5521WAT     H216806   0.260   3.499   6.201
 5522WAT      O16807   0.415   8.318   8.851
 5522WAT     H116808   0.397   8.351   8.758
 5522WAT     H216809   0.344   8.252   8.877
 5523WAT      O16810   8.920   0.446   2.674
 5523WAT     H116811   8.943   0.466   2.579
 5523WAT     H216812   8.944   0.352   2.695
 5524WAT      O16813   6.594   5.432   2.618
 5524WAT     H116814   6.558   5.400   2.530
 5524WAT     H216815   6.519   5.459   2.677
 5525WAT      O16816   3.963   1.165   2.234
 5525WAT     H116817   3.971   1.194   2.330
 5525WAT     H216818   3.867   1.145   2.213
 5526WAT      O16819   7.057   6.023   3.586
 5526WAT     H116820   7.107   6.087   3.645
 5526WAT     H216821   7.102   6.018   3.497
 5527WAT      O16822   4.797   8.318   0.247
 5527WAT     H116823   4.811   8.231   0.199
 5527WAT     H216824   4.885   8.364   0.260
 5528WAT      O16825   3.213   2.190   9.013
 5528WAT     H116826   3.304   2.184   8.971
 5528WAT     H216827   3.220   2.164   9.109
 5529WAT      O16828   2.999   0.167   1.876
 5529WAT     H116829   2.967   0.098   1.940
 5529WAT     H216830   3.078   0.131   1.825
 5530WAT      O16831   2.806   6.460   6.497
 5530WAT     H116832   2.767   6.460   6.405
 5530WAT     H216833   2.836   6.552   6.521
 5531WAT      O16834   1.594   6.528   8.108
 5531WAT     H116835   1.616   6.576   8.023
 5531WAT     H216836   1.660   6.554   8.179
 5532WAT      O16837   2.754   8.448   4.762
 5532WAT     H116838   2.754   8.545   4.786
 5532WAT     H216839   2.819   8.433   4.687
 5533WAT      O16840   6.724   5.830   9.026
 5533WAT     H116841   6.656   5.782   8.970
 5533WAT     H216842   6.808   5.777   9.028
 5534WAT      O16843   6.374   3.608   9.445
 5534WAT     H116844   6.346   3.704   9.453
 5534WAT     H216845   6.386   3.570   9.537
 5535WAT      O16846   3.301   8.021   8.358
 5535WAT     H116847   3.332   7.929   8.336
 5535WAT     H216848   3.359   8.059   8.431
 5536WAT      O16849   3.317   9.317   3.096
 5536WAT     H116850   3.387   9.281   3.035
 5536WAT     H216851   3.297   9.412   3.072
 5537WAT      O16852   0.304   6.958   9.219
 5537WAT     H116853   0.328   6.987   9.127
 5537WAT     H216854   0.243   6.879   9.214
 5538WAT      O16855   5.023   5.763   0.622
 5538WAT     H116856   5.075   5.836   0.666
 5538WAT     H216857   4.925   5.778   0.636
 5539WAT      O16858   9.550   5.424   7.585
 5539WAT     H116859   9.485   5.404   7.658
 5539WAT     H216860   9.636   5.375   7.602
 5540WAT      O16861   3.906   8.529   0.043
 5540WAT     H116862   3.960   8.486   0.116
 5540WAT     H216863   3.951   8.612   0.012
 5541WAT      O16864   3.958   3.820   2.744
 5541WAT     H116865   3.903   3.828   2.827
 5541WAT     H216866   3.898   3.810   2.664
 5542WAT      O16867   3.591   1.993   3.938
 5542WAT     H116868   3.678   1.989   3.888
 5542WAT     H216869   3.540   1.909   3.923
 5543WAT      O16870   7.227   1.243   8.394
 5543WAT     H116871   7.321   1.218   8.368
 5543WAT     H216872   7.216   1.231   8.493
 5544WAT      O16873   7.536   7.699   3.428
 5544WAT     H116874   7.532   7.642   3.345
 5544WAT     H216875   7.558   7.793   3.402
 5545WAT      O16876   1.706   0.778   8.995
 5545WAT     H116877   1.695   0.827   9.082
 5545WAT     H216878   1.798   0.740   8.990
 5546WAT      O16879   4.883   5.740   7.251
 5546WAT     H116880   4.855   5.767   7.343
 5546WAT     H216881   4.804   5.745   7.190
 5547WAT      O16882   5.204   5.940   9.042
 5547WAT     H116883   5.239   5.879   8.970
 5547WAT     H216884   5.104   5.945   9.036
 5548WAT      O16885   4.132   6.398   6.007
 5548WAT     H116886   4.081   6.314   6.027
 5548WAT     H216887   4.209   6.377   5.948
 5549WAT      O16888   9.695   1.530   1.546
 5549WAT     H116889   9.630   1.578   1.488
 5549WAT     H216890   9.693   1.432   1.526
 5550WAT      O16891   7.490   0.420   5.889
 5550WAT     H116892   7.533   0.509   5.904
 5550WAT     H216893   7.456   0.385   5.976
 5551WAT      O16894   4.668   5.755   7.074
 5551WAT     H116895   4.624   5.837   7.036
 5551WAT     H216896   4.600   5.702   7.126
 5552WAT      O16897   6.206   9.286   8.002
 5552WAT     H116898   6.181   9.246   8.091
 5552WAT     H216899   6.272   9.226   7.957
 5553WAT      O16900   3.802   0.745   9.868
 5553WAT     H116901   3.739   0.820   9.885
 5553WAT     H216902   3.887   0.761   9.919
 5554WAT      O16903   1.415   1.805   4.173
 5554WAT     H116904   1.372   1.769   4.091
 5554WAT     H216905   1.375   1.763   4.254
 5555WAT      O16906   5.589   8.677   4.972
 5555WAT     H116907   5.607   8.624   4.889
 5555WAT     H216908   5.502   8.647   5.012
 5556WAT      O16909   0.974   0.412   1.037
 5556WAT     H116910   1.007   0.319   1.016
 5556WAT     H216911   0.887   0.427   0.990
 5557WAT      O16912   4.988   0.787   2.005
 5557WAT     H116913   4.935   0.782   2.090
 5557WAT     H216914   4.967   0.708   1.948
 5558WAT      O16915   4.093   4.749   0.577
 5558WAT     H116916   4.055   4.657   0.577
 5558WAT     H216917   4.047   4.805   0.507
 5559WAT      O16918   9.780   7.694   0.053
 5559WAT     H116919   9.864   7.748   0.051
 5559WAT     H216920   9.801   7.600   0.080
 5560WAT      O16921   6.558   7.991   4.905
 5560WAT     H116922   6.607   7.914   4.947
 5560WAT     H216923   6.609   8.024   4.825
 5561WAT      O16924   7.596   1.597   3.356
 5561WAT     H116925   7.499   1.621   3.360
 5561WAT     H216926   7.630   1.584   3.449
 5562WAT      O16927   8.127   2.572   4.517
 5562WAT     H116928   8.105   2.634   4.593
 5562WAT     H216929   8.136   2.625   4.433
 5563WAT      O16930   6.068   3.314   5.517
 5563WAT     H116931   6.025   3.390   5.566
 5563WAT     H216932   6.167   3.322   5.524
 5564WAT      O16933   8.296   1.173   2.291
 5564WAT     H116934   8.371   1.113   2.319
 5564WAT     H216935   8.332   1.264   2.268
 5565WAT      O16936   9.309   6.939   5.993
 5565WAT     H116937   9.393   6.885   5.988
 5565WAT     H216938   9.263   6.939   5.904
 5566WAT      O16939   7.171   8.456   7.789
 5566WAT     H116940   7.225   8.469   7.706
 5566WAT     H216941   7.219   8.394   7.850
 5567WAT      O16942   8.285   0.627   5.602
 5567WAT     H116943   8.302   0.537   5.641
 5567WAT     H216944   8.331   0.697   5.657
 5568WAT      O16945   5.728   6.933   7.379
 5568WAT     H116946   5.812   6.987   7.372
 5568WAT     H216947   5.691   6.941   7.472
 5569WAT      O16948   2.570   6.409   4.796
 5569WAT     H116949   2.669   6.398   4.790
 5569WAT     H216950   2.543   6.496   4.756
 5570WAT      O16951   7.430   6.945   0.267
 5570WAT     H116952   7.339   6.911   0.292
 5570WAT     H216953   7.436   7.042   0.290
 5571WAT      O16954   4.172   9.175   2.373
 5571WAT     H116955   4.188   9.256   2.316
 5571WAT     H216956   4.135   9.101   2.316
 5572WAT      O16957   5.042   2.582   2.656
 5572WAT     H116958   4.996   2.652   2.600
 5572WAT     H216959   5.018   2.596   2.752
 5573WAT      O16960   5.776   6.447   3.914
 5573WAT     H116961   5.685   6.406   3.912
 5573WAT     H216962   5.788   6.497   4.000
 5574WAT      O16963   6.326   3.374   2.831
 5574WAT     H116964   6.367   3.418   2.911
 5574WAT     H216965   6.398   3.348   2.767
 5575WAT      O16966   6.185   4.680   1.436
 5575WAT     H116967   6.136   4.607   1.484
 5575WAT     H216968   6.275   4.647   1.406
 5576WAT      O16969   8.237   4.652   9.444
 5576WAT     H116970   8.316   4.655   9.505
 5576WAT     H216971   8.240   4.568   9.390
 5577WAT      O16972   8.937   7.046   4.085
 5577WAT     H116973   9.014   7.104   4.059
 5577WAT     H216974   8.963   6.950   4.074
 5578WAT      O16975   9.724   5.091   0.246
 5578WAT     H116976   9.750   5.123   0.155
 5578WAT     H216977   9.714   5.170   0.307
 5579WAT      O16978   7.515   1.824   0.477
 5579WAT     H116979   7.488   1.728   0.475
 5579WAT     H216980   7.540   1.851   0.570
 5580WAT      O16981   8.015   6.262   2.606
 5580WAT     H116982   7.981   6.322   2.679
 5580WAT     H216983   7.997   6.305   2.517
 5581WAT      O16984   7.255   1.945   7.150
 5581WAT     H116985   7.316   1.883   7.100
 5581WAT     H216986   7.186   1.892   7.198
 5582WAT      O16987   8.313   4.417   8.045
 5582WAT     H116988   8.330   4.444   8.140
 5582WAT     H216989   8.343   4.322   8.032
 5583WAT      O16990   8.858   7.363   3.839
 5583WAT     H116991   8.816   7.330   3.924
 5583WAT     H216992   8.790   7.416   3.788
 5584WAT      O16993   8.939   8.825   6.326
 5584WAT     H116994   8.968   8.797   6.417
 5584WAT     H216995   8.844   8.797   6.311
 5585WAT      O16996   8.757   6.436   5.834
 5585WAT     H116997   8.834   6.397   5.884
 5585WAT     H216998   8.692   6.363   5.812
 5586WAT      O16999   8.812   2.547   2.928
 5586WAT     H117000   8.762   2.633   2.917
 5586WAT     H217001   8.814   2.521   3.024
 5587WAT      O17002   2.399   6.172   2.157
 5587WAT     H117003   2.322   6.199   2.214
 5587WAT     H217004   2.445   6.093   2.197
 5588WAT      O17005   0.409   3.812   7.604
 5588WAT     H117006   0.318   3.788   7.637
 5588WAT     H217007   0.403   3.892   7.544
 5589WAT      O17008   9.499   4.022   4.798
 5589WAT     H117009   9.456   3.971   4.873
 5589WAT     H217010   9.497   4.120   4.819
 5590WAT      O17011   3.522   8.994   9.885
 5590WAT     H117012   3.590   9.019   9.816
 5590WAT     H217013   3.521   8.894   9.896
 5591WAT      O17014   0.788   3.955   4.503
 5591WAT     H117015   0.805   3.927   4.597
 5591WAT     H217016   0.840   3.897   4.440
 5592WAT      O17017   3.193   6.417   2.813
 5592WAT     H117018   3.209   6.339   2.751
 5592WAT     H217019   3.276   6.432   2.868
 5593WAT      O17020   0.011   4.304   2.541
 5593WAT     H117021   0.065   4.388   2.530
 5593WAT     H217022   0.067   4.234   2.586
 5594WAT      O17023   5.844   9.787   4.552
 5594WAT     H117024   5.809   9.694   4.558
 5594WAT     H217025   5.918   9.799   4.618
 5595WAT      O17026   1.021   1.758   8.657
 5595WAT     H117027   0.938   1.786   8.609
 5595WAT     H217028   1.063   1.837   8.700
 5596WAT      O17029   7.269   1.369   4.784
 5596WAT     H117030   7.220   1.444   4.826
 5596WAT     H217031   7.250   1.284   4.834
 5597WAT      O17032   8.302   5.353   1.280
 5597WAT     H117033   8.340   5.444   1.262
 5597WAT     H217034   8.366   5.283   1.247
 5598WAT      O17035   4.535   5.676   0.151
 5598WAT     H117036   4.616   5.730   0.131
 5598WAT     H217037   4.489   5.712   0.232
 5599WAT      O17038   1.081   5.468   3.075
 5599WAT     H117039   1.051   5.563   3.074
 5599WAT     H217040   1.181   5.464   3.081
 5600WAT      O17041   6.059   8.833   8.443
 5600WAT     H117042   5.983   8.799   8.499
 5600WAT     H217043   6.129   8.872   8.502
 5601WAT      O17044   0.037   9.714   3.492
 5601WAT     H117045   0.120   9.664   3.466
 5601WAT     H217046  -0.036   9.649   3.512
 5602WAT      O17047   9.314   0.798   1.792
 5602WAT     H117048   9.263   0.867   1.844
 5602WAT     H217049   9.350   0.729   1.855
 5603WAT      O17050   2.036   0.809   3.182
 5603WAT     H117051   2.048   0.908   3.193
 5603WAT     H217052   2.001   0.790   3.091
 5604WAT      O17053   6.516   7.185   8.946
 5604WAT     H117054   6.497   7.100   8.898
 5604WAT     H217055   6.543   7.255   8.879
 5605WAT      O17056   6.984   8.813   0.745
 5605WAT     H117057   6.949   8.721   0.760
 5605WAT     H217058   6.985   8.832   0.646
 5606WAT      O17059   2.973   8.135   7.130
 5606WAT     H117060   2.969   8.144   7.030
 5606WAT     H217061   2.913   8.061   7.159
 5607WAT      O17062   2.021   1.661   0.698
 5607WAT     H117063   2.095   1.662   0.765
 5607WAT     H217064   2.058   1.640   0.607
 5608WAT      O17065   8.476   3.993   9.620
 5608WAT     H117066   8.447   3.920   9.681
 5608WAT     H217067   8.572   3.978   9.594
 5609WAT      O17068   0.275   9.003   4.258
 5609WAT     H117069   0.308   8.938   4.189
 5609WAT     H217070   0.333   8.997   4.340
 5610WAT      O17071   9.626   0.905   8.334
 5610WAT     H117072   9.560   0.834   8.360
 5610WAT     H217073   9.708   0.896   8.391
 5611WAT      O17074   3.860   4.202   5.199
 5611WAT     H117075   3.765   4.229   5.211
 5611WAT     H217076   3.906   4.202   5.287
 5612WAT      O17077   9.785   3.504   2.178
 5612WAT     H117078   9.726   3.494   2.258
 5612WAT     H217079   9.861   3.565   2.200
 5613WAT      O17080   5.505   5.646   9.073
 5613WAT     H117081   5.415   5.618   9.040
 5613WAT     H217082   5.533   5.730   9.027
 5614WAT      O17083   1.916   7.691   5.189
 5614WAT     H117084   1.877   7.780   5.213
 5614WAT     H217085   1.924   7.635   5.272
 5615WAT      O17086   1.738   5.952   8.637
 5615WAT     H117087   1.768   6.047   8.644
 5615WAT     H217088   1.696   5.937   8.548
 5616WAT      O17089   8.447   2.457   3.701
 5616WAT     H117090   8.545   2.474   3.693
 5616WAT     H217091   8.432   2.361   3.725
 5617WAT      O17092   0.100   2.562   9.867
 5617WAT     H117093   0.039   2.575   9.789
 5617WAT     H217094   0.120   2.651   9.909
 5618WAT      O17095   8.032   0.915   4.554
 5618WAT     H117096   8.099   0.967   4.500
 5618WAT     H217097   7.941   0.955   4.541
 5619WAT      O17098   4.476   6.239   7.647
 5619WAT     H117099   4.481   6.245   7.547
 5619WAT     H217100   4.426   6.318   7.683
 5620WAT      O17101   8.984   3.647   5.400
 5620WAT     H117102   8.950   3.555   5.417
 5620WAT     H217103   8.915   3.700   5.350
 5621WAT      O17104   3.189   5.775   5.237
 5621WAT     H117105   3.235   5.857   5.202
 5621WAT     H217106   3.228   5.694   5.195
 5622WAT      O17107   7.667   4.099   9.292
 5622WAT     H117108   7.718   4.082   9.377
 5622WAT     H217109   7.571   4.078   9.307
 5623WAT      O17110   9.457   0.862   3.762
 5623WAT     H117111   9.490   0.864   3.667
 5623WAT     H217112   9.365   0.901   3.765
 5624WAT      O17113   3.068   8.150   7.543
 5624WAT     H117114   2.998   8.220   7.554
 5624WAT     H217115   3.040   8.067   7.590
 5625WAT      O17116   4.399   9.793   4.821
 5625WAT     H117117   4.318   9.795   4.762
 5625WAT     H217118   4.450   9.878   4.809
 5626WAT      O17119   1.848   6.443   6.396
 5626WAT     H117120   1.779   6.513   6.376
 5626WAT     H217121   1.892   6.465   6.483
 5627WAT      O17122   2.807   2.599   6.387
 5627WAT     H117123   2.866   2.602   6.306
 5627WAT     H217124   2.837   2.526   6.449
 5628WAT      O17125   8.697   6.704   3.772
 5628WAT     H117126   8.661   6.713   3.679
 5628WAT     H217127   8.755   6.783   3.793
 5629WAT      O17128   2.605   6.126   3.278
 5629WAT     H117129   2.553   6.105   3.194
 5629WAT     H217130   2.655   6.211   3.264
 5630WAT      O17131   4.546   9.602   6.079
 5630WAT     H117132   4.593   9.688   6.058
 5630WAT     H217133   4.603   9.548   6.141
 5631WAT      O17134   9.093   1.337   9.320
 5631WAT     H117135   9.012   1.344   9.262
 5631WAT     H217136   9.072   1.371   9.411
 5632WAT      O17137   5.059   8.025   2.945
 5632WAT     H117138   5.001   8.077   2.883
 5632WAT     H217139   5.098   7.946   2.896
 5633WAT      O17140   7.463   9.705   0.411
 5633WAT     H117141   7.515   9.785   0.381
 5633WAT     H217142   7.425   9.721   0.502
 5634WAT      O17143   0.121   0.753   2.613
 5634WAT     H117144   0.140   0.851   2.626
 5634WAT     H217145   0.027   0.734   2.642
 5635WAT      O17146   7.296   5.483   6.671
 5635WAT     H117147   7.392   5.501   6.690
 5635WAT     H217148   7.270   5.528   6.585
 5636WAT      O17149   9.596   1.101   4.246
 5636WAT     H117150   9.528   1.167   4.214
 5636WAT     H217151   9.624   1.043   4.170
 5637WAT      O17152   9.263   5.502   3.668
 5637WAT     H117153   9.362   5.503   3.656
 5637WAT     H217154   9.220   5.551   3.592
 5638WAT      O17155   1.050   6.442   9.141
 5638WAT     H117156   1.103   6.460   9.224
 5638WAT     H217157   0.953   6.457   9.160
 5639WAT      O17158   3.340   9.600   9.824
 5639WAT     H117159   3.322   9.507   9.792
 5639WAT     H217160   3.436   9.607   9.853
 5640WAT      O17161   8.781   0.040   1.168
 5640WAT     H117162   8.703   0.031   1.230
 5640WAT     H217163   8.749   0.031   1.073
 5641WAT      O17164   9.471   0.439   9.464
 5641WAT     H117165   9.479   0.395   9.553
 5641WAT     H217166   9.514   0.382   9.394
 5642WAT      O17167   8.699   9.587   1.190
 5642WAT     H117168   8.723   9.544   1.277
 5642WAT     H217169   8.607   9.559   1.162
 5643WAT      O17170   9.027   4.371   2.053
 5643WAT     H117171   8.971   4.404   2.129
 5643WAT     H217172   9.030   4.271   2.054
 5644WAT      O17173   3.222   6.468   4.865
 5644WAT     H117174   3.308   6.468   4.915
 5644WAT     H217175   3.212   6.382   4.814
 5645WAT      O17176   6.287   5.054   3.970
 5645WAT     H117177   6.256   4.976   4.023
 5645WAT     H217178   6.387   5.061   3.976
 5646WAT      O17179   5.415   4.725   8.925
 5646WAT     H117180   5.432   4.820   8.899
 5646WAT     H217181   5.425   4.716   9.024
 5647WAT      O17182   3.237   9.758   0.113
 5647WAT     H117183   3.168   9.816   0.071
 5647WAT     H217184   3.251   9.676   0.057
 5648WAT      O17185   7.769   5.130   6.529
 5648WAT     H117186   7.849   5.185   6.551
 5648WAT     H217187   7.695   5.151   6.593
 5649WAT      O17188   5.725   9.413   3.055
 5649WAT     H117189   5.744   9.469   3.136
 5649WAT     H217190   5.811   9.392   3.009
 5650WAT      O17191   4.700   9.824   9.516
 5650WAT     H117192   4.760   9.899   9.488
 5650WAT     H217193   4.646   9.793   9.438
 5651WAT      O17194   3.936   4.932   8.602
 5651WAT     H117195   3.980   4.843   8.612
 5651WAT     H217196   3.893   4.959   8.688
 5652WAT      O17197   2.332   9.266   6.453
 5652WAT     H117198   2.357   9.217   6.537
 5652WAT     H217199   2.354   9.209   6.374
 5653WAT      O17200   8.380   6.261   5.391
 5653WAT     H117201   8.479   6.274   5.396
 5653WAT     H217202   8.340   6.330   5.330
 5654WAT      O17203   8.210   7.805   1.407
 5654WAT     H117204   8.177   7.890   1.367
 5654WAT     H217205   8.303   7.818   1.443
 5655WAT      O17206   2.054   1.968   6.863
 5655WAT     H117207   2.079   1.874   6.887
 5655WAT     H217208   2.059   2.026   6.945
 5656WAT      O17209   5.240   4.363   9.570
 5656WAT     H117210   5.227   4.351   9.668
 5656WAT     H217211   5.311   4.432   9.554
 5657WAT      O17212   2.093   7.100   9.833
 5657WAT     H117213   1.994   7.094   9.848
 5657WAT     H217214   2.139   7.110   9.921
 5658WAT      O17215   3.823   3.265   2.545
 5658WAT     H117216   3.790   3.334   2.610
 5658WAT     H217217   3.758   3.189   2.540
 5659WAT      O17218   1.253   4.876   3.620
 5659WAT     H117219   1.238   4.787   3.578
 5659WAT     H217220   1.347   4.881   3.655
 5660WAT      O17221   9.886   7.236   9.082
 5660WAT     H117222   9.883   7.244   8.982
 5660WAT     H217223   9.903   7.141   9.107
 5661WAT      O17224   5.174   1.784   5.283
 5661WAT     H117225   5.260   1.767   5.234
 5661WAT     H217226   5.172   1.878   5.316
 5662WAT      O17227   0.226   7.974   6.958
 5662WAT     H117228   0.292   7.905   6.990
 5662WAT     H217229   0.276   8.053   6.922
 5663WAT      O17230   1.586   6.878   1.599
 5663WAT     H117231   1.603   6.930   1.516
 5663WAT     H217232   1.588   6.939   1.678
 5664WAT      O17233   9.529   5.860   2.109
 5664WAT     H117234   9.580   5.787   2.063
 5664WAT     H217235   9.526   5.941   2.051
 5665WAT      O17236   8.159   7.699   4.238
 5665WAT     H117237   8.237   7.637   4.230
 5665WAT     H217238   8.179   7.769   4.306
 5666WAT      O17239   9.330   3.265   6.381
 5666WAT     H117240   9.414   3.283   6.432
 5666WAT     H217241   9.320   3.167   6.365
 5667WAT      O17242   8.035   3.929   3.152
 5667WAT     H117243   8.096   3.938   3.074
 5667WAT     H217244   8.023   4.018   3.196
 5668WAT      O17245   1.498   4.491   7.692
 5668WAT     H117246   1.480   4.588   7.706
 5668WAT     H217247   1.507   4.445   7.780
 5669WAT      O17248   5.462   1.581   5.475
 5669WAT     H117249   5.468   1.643   5.554
 5669WAT     H217250   5.435   1.633   5.394
 5670WAT      O17251   4.576   1.452   0.284
 5670WAT     H117252   4.640   1.379   0.310
 5670WAT     H217253   4.523   1.479   0.365
 5671WAT      O17254   2.168   8.454   2.493
 5671WAT     H117255   2.226   8.387   2.447
 5671WAT     H217256   2.072   8.427   2.483
 5672WAT      O17257   9.094   5.709   8.552
 5672WAT     H117258   9.158   5.649   8.504
 5672WAT     H217259   9.034   5.754   8.485
 5673WAT      O17260   5.965   9.637   8.421
 5673WAT     H117261   5.902   9.639   8.344
 5673WAT     H217262   5.916   9.610   8.504
 5674WAT      O17263   1.560   0.676   3.707
 5674WAT     H117264   1.482   0.637   3.757
 5674WAT     H217265   1.600   0.750   3.761
 5675WAT      O17266   4.654   7.601   7.998
 5675WAT     H117267   4.672   7.582   8.094
 5675WAT     H217268   4.556   7.619   7.985
 5676WAT      O17269   0.172   7.997   8.094
 5676WAT     H117270   0.159   7.904   8.061
 5676WAT     H217271   0.270   8.017   8.102
 5677WAT      O17272   5.656   9.333   3.454
 5677WAT     H117273   5.574   9.356   3.506
 5677WAT     H217274   5.677   9.236   3.465
 5678WAT      O17275   2.975   0.592   3.750
 5678WAT     H117276   3.007   0.500   3.730
 5678WAT     H217277   2.915   0.590   3.831
 5679WAT      O17278   8.741   0.720   6.431
 5679WAT     H117279   8.703   0.756   6.345
 5679WAT     H217280   8.815   0.779   6.462
 5680WAT      O17281   3.342   0.081   2.465
 5680WAT     H117282   3.246   0.070   2.491
 5680WAT     H217283   3.362   0.178   2.451
 5681WAT      O17284   1.426   8.574   7.816
 5681WAT     H117285   1.389   8.570   7.909
 5681WAT     H217286   1.517   8.613   7.818
 5682WAT      O17287   4.973   3.226   5.135
 5682WAT     H117288   4.907   3.201   5.206
 5682WAT     H217289   4.929   3.286   5.069
 5683WAT      O17290   1.318   8.528   5.240
 5683WAT     H117291   1.259   8.463   5.192
 5683WAT     H217292   1.367   8.480   5.313
 5684WAT      O17293   1.560   7.000   0.675
 5684WAT     H117294   1.648   6.990   0.627
 5684WAT     H217295   1.486   6.975   0.613
 5685WAT      O17296   9.558   1.765   1.654
 5685WAT     H117297   9.585   1.777   1.559
 5685WAT     H217298   9.619   1.699   1.699
 5686WAT      O17299   7.104   3.206   6.333
 5686WAT     H117300   7.089   3.110   6.357
 5686WAT     H217301   7.077   3.221   6.238
 5687WAT      O17302   7.693   9.425   4.380
 5687WAT     H117303   7.625   9.444   4.309
 5687WAT     H217304   7.651   9.439   4.470
 5688WAT      O17305   4.279   8.169   7.241
 5688WAT     H117306   4.353   8.234   7.230
 5688WAT     H217307   4.317   8.078   7.261
 5689WAT      O17308   0.669   9.656   4.506
 5689WAT     H117309   0.727   9.590   4.459
 5689WAT     H217310   0.579   9.659   4.462
 5690WAT      O17311   1.912   2.418   5.253
 5690WAT     H117312   1.850   2.449   5.325
 5690WAT     H217313   1.962   2.338   5.285
 5691WAT      O17314   3.277   8.070   0.145
 5691WAT     H117315   3.325   8.065   0.232
 5691WAT     H217316   3.237   8.162   0.135
 5692WAT      O17317   4.334   3.159   0.492
 5692WAT     H117318   4.351   3.238   0.551
 5692WAT     H217319   4.289   3.087   0.545
 5693WAT      O17320   5.474   8.220   1.789
 5693WAT     H117321   5.380   8.251   1.774
 5693WAT     H217322   5.497   8.149   1.723
 5694WAT      O17323   9.009   7.944   0.628
 5694WAT     H117324   9.060   7.891   0.560
 5694WAT     H217325   9.073   7.993   0.687
 5695WAT      O17326   9.742   4.548   4.895
 5695WAT     H117327   9.813   4.493   4.850
 5695WAT     H217328   9.717   4.625   4.836
 5696WAT      O17329   0.273   3.566   7.468
 5696WAT     H117330   0.336   3.643   7.454
 5696WAT     H217331   0.194   3.597   7.522
 5697WAT      O17332   1.758   8.501   7.723
 5697WAT     H117333   1.717   8.579   7.769
 5697WAT     H217334   1.780   8.525   7.628
 5698WAT      O17335   4.749   5.440   7.416
 5698WAT     H117336   4.656   5.448   7.453
 5698WAT     H217337   4.806   5.511   7.455
 5699WAT      O17338   2.892   4.778   1.545
 5699WAT     H117339   2.904   4.686   1.507
 5699WAT     H217340   2.910   4.776   1.643
 5700WAT      O17341   5.423   7.061   8.947
 5700WAT     H117342   5.488   7.097   8.881
 5700WAT     H217343   5.472   7.015   9.021
 5701WAT      O17344   7.464   6.002   3.446
 5701WAT     H117345   7.524   6.074   3.412
 5701WAT     H217346   7.503   5.913   3.421
 5702WAT      O17347   0.754   3.075   5.385
 5702WAT     H117348   0.809   3.066   5.468
 5702WAT     H217349   0.660   3.048   5.404
 5703WAT      O17350   7.986   4.674   2.748
 5703WAT     H117351   8.029   4.594   2.790
 5703WAT     H217352   7.973   4.746   2.816
 5704WAT      O17353   3.671   8.839   4.816
 5704WAT     H117354   3.579   8.836   4.856
 5704WAT     H217355   3.739   8.852   4.888
 5705WAT      O17356   3.080   5.328   0.148
 5705WAT     H117357   3.135   5.395   0.198
 5705WAT     H217358   3.027   5.273   0.213
 5706WAT      O17359   2.478   5.613   6.750
 5706WAT     H117360   2.535   5.563   6.685
 5706WAT     H217361   2.533   5.681   6.798
 5707WAT      O17362   4.959   8.056   9.423
 5707WAT     H117363   4.924   8.117   9.353
 5707WAT     H217364   5.055   8.078   9.442
 5708WAT      O17365   3.409   7.012   6.007
 5708WAT     H117366   3.445   7.045   6.094
 5708WAT     H217367   3.309   7.016   6.008
 5709WAT      O17368   7.993   7.805   8.488
 5709WAT     H117369   7.970   7.868   8.562
 5709WAT     H217370   8.057   7.736   8.521
 5710WAT      O17371   4.960   7.528   6.907
 5710WAT     H117372   4.968   7.435   6.870
 5710WAT     H217373   5.039   7.547   6.966
 5711WAT      O17374   5.991   6.174   9.789
 5711WAT     H117375   6.057   6.140   9.721
 5711WAT     H217376   5.902   6.133   9.772
 5712WAT      O17377   9.037   5.652   0.245
 5712WAT     H117378   8.946   5.650   0.286
 5712WAT     H217379   9.031   5.618   0.151
 5713WAT      O17380   2.270   8.492   1.135
 5713WAT     H117381   2.219   8.496   1.221
 5713WAT     H217382   2.361   8.531   1.148
 5714WAT      O17383   2.383   2.138   2.839
 5714WAT     H117384   2.398   2.049   2.796
 5714WAT     H217385   2.351   2.124   2.933
 5715WAT      O17386   9.880   0.570   3.948
 5715WAT     H117387   9.910   0.534   3.860
 5715WAT     H217388   9.955   0.622   3.989
 5716WAT      O17389   2.231   4.814   7.487
 5716WAT     H117390   2.278   4.842   7.404
 5716WAT     H217391   2.295   4.814   7.564
 5717WAT      O17392   2.696   7.249   1.070
 5717WAT     H117393   2.674   7.346   1.062
 5717WAT     H217394   2.730   7.215   0.983
 5718WAT      O17395   7.928   9.285   8.947
 5718WAT     H117396   7.960   9.191   8.958
 5718WAT     H217397   7.997   9.348   8.982
 5719WAT      O17398   3.911   0.109   4.279
 5719WAT     H117399   4.006   0.099   4.311
 5719WAT     H217400   3.879   0.023   4.241
 5720WAT      O17401   9.868   3.415   1.930
 5720WAT     H117402   9.834   3.439   2.021
 5720WAT     H217403   9.888   3.317   1.928
 5721WAT      O17404   2.974   8.733   2.571
 5721WAT     H117405   2.904   8.759   2.505
 5721WAT     H217406   3.028   8.813   2.598
 5722WAT      O17407   6.313   7.981   4.442
 5722WAT     H117408   6.362   8.056   4.396
 5722WAT     H217409   6.365   7.954   4.523
 5723WAT      O17410   5.119   0.066   9.847
 5723WAT     H117411   5.040   0.007   9.833
 5723WAT     H217412   5.181   0.059   9.768
 5724WAT      O17413   3.275   7.954   4.014
 5724WAT     H117414   3.255   7.979   3.919
 5724WAT     H217415   3.291   8.036   4.068
 5725WAT      O17416   8.714   7.288   9.843
 5725WAT     H117417   8.752   7.255   9.757
 5725WAT     H217418   8.650   7.363   9.824
 5726WAT      O17419   3.728   9.553   1.530
 5726WAT     H117420   3.721   9.641   1.482
 5726WAT     H217421   3.813   9.551   1.583
 5727WAT      O17422   7.876   4.881   3.640
 5727WAT     H117423   7.841   4.951   3.578
 5727WAT     H217424   7.945   4.921   3.700
 5728WAT      O17425   4.747   8.767   3.166
 5728WAT     H117426   4.753   8.865   3.184
 5728WAT     H217427   4.828   8.720   3.202
 5729WAT      O17428   1.825   0.507   0.047
 5729WAT     H117429   1.756   0.504   0.120
 5729WAT     H217430   1.916   0.497   0.087
 5730WAT      O17431   4.704   1.646   3.948
 5730WAT     H117432   4.629   1.704   3.979
 5730WAT     H217433   4.778   1.703   3.913
 5731WAT      O17434   2.841   4.545   6.184
 5731WAT     H117435   2.878   4.468   6.238
 5731WAT     H217436   2.824   4.515   6.090
 5732WAT      O17437   7.541   8.129   7.066
 5732WAT     H117438   7.477   8.192   7.111
 5732WAT     H217439   7.634   8.163   7.076
 5733WAT      O17440   9.424   6.070   9.776
 5733WAT     H117441   9.401   6.158   9.736
 5733WAT     H217442   9.340   6.017   9.792
 5734WAT      O17443   9.326   2.935   7.531
 5734WAT     H117444   9.235   2.974   7.516
 5734WAT     H217445   9.388   2.969   7.460
 5735WAT      O17446   6.749   3.113   4.148
 5735WAT     H117447   6.697   3.083   4.068
 5735WAT     H217448   6.773   3.210   4.138
 5736WAT      O17449   1.990   1.519   0.405
 5736WAT     H117450   2.081   1.491   0.375
 5736WAT     H217451   1.972   1.613   0.375
 5737WAT      O17452   7.100   8.307   6.725
 5737WAT     H117453   7.174   8.310   6.793
 5737WAT     H217454   7.103   8.220   6.677
 5738WAT      O17455   9.816   7.453   0.158
 5738WAT     H117456   9.901   7.426   0.203
 5738WAT     H217457   9.764   7.372   0.133
 5739WAT      O17458   0.057   7.089   7.310
 5739WAT     H117459   0.105   7.050   7.389
 5739WAT     H217460   0.069   7.188   7.309
 5740WAT      O17461   4.065   9.795   6.963
 5740WAT     H117462   4.073   9.696   6.952
 5740WAT     H217463   3.999   9.831   6.897
 5741WAT      O17464   2.753   8.415   8.123
 5741WAT     H117465   2.799   8.328   8.145
 5741WAT     H217466   2.820   8.478   8.083
 5742WAT      O17467   5.481   5.474   4.866
 5742WAT     H117468   5.555   5.534   4.835
 5742WAT     H217469   5.500   5.444   4.959
 5743WAT      O17470   3.224   5.416   1.013
 5743WAT     H117471   3.294   5.461   0.958
 5743WAT     H217472   3.265   5.343   1.068
 5744WAT      O17473   3.823   0.847   9.279
 5744WAT     H117474   3.766   0.766   9.297
 5744WAT     H217475   3.916   0.831   9.313
 5745WAT      O17476   0.827   5.982   7.658
 5745WAT     H117477   0.789   6.074   7.647
 5745WAT     H217478   0.921   5.989   7.692
 5746WAT      O17479   5.946   8.647   7.054
 5746WAT     H117480   5.985   8.610   6.969
 5746WAT     H217481   5.868   8.591   7.081
 5747WAT      O17482   8.317   3.936   4.447
 5747WAT     H117483   8.311   3.907   4.351
 5747WAT     H217484   8.398   3.993   4.459
 5748WAT      O17485   7.054   1.961   2.342
 5748WAT     H117486   6.966   2.008   2.346
 5748WAT     H217487   7.057   1.892   2.414
 5749WAT      O17488   7.364   5.195   9.660
 5749WAT     H117489   7.462   5.195   9.678
 5749WAT     H217490   7.318   5.137   9.728
 5750WAT      O17491   4.402   7.318   4.446
 5750WAT     H117492   4.419   7.400   4.391
 5750WAT     H217493   4.329   7.265   4.404
 5751WAT      O17494   7.304   0.146   8.779
 5751WAT     H117495   7.347   0.213   8.717
 5751WAT     H217496   7.261   0.074   8.724
 5752WAT      O17497   8.398   6.941   2.858
 5752WAT     H117498   8.340   6.971   2.934
 5752WAT     H217499   8.494   6.951   2.885
 5753WAT      O17500   6.584   3.653   7.303
 5753WAT     H117501   6.500   3.685   7.346
 5753WAT     H217502   6.595   3.555   7.320
 5754WAT      O17503   6.528   1.911   4.096
 5754WAT     H117504   6.524   1.974   4.018
 5754WAT     H217505   6.469   1.943   4.169
 5755WAT      O17506   9.263   2.526   4.066
 5755WAT     H117507   9.356   2.548   4.036
 5755WAT     H217508   9.255   2.428   4.083
 5756WAT      O17509   7.890   6.642   4.929
 5756WAT     H117510   7.927   6.611   5.016
 5756WAT     H217511   7.925   6.734   4.909
 5757WAT      O17512   9.853   5.543   8.857
 5757WAT     H117513   9.907   5.498   8.928
 5757WAT     H217514   9.765   5.570   8.895
 5758WAT      O17515   5.811   0.470   8.382
 5758WAT     H117516   5.780   0.544   8.322
 5758WAT     H217517   5.838   0.508   8.470
 5759WAT      O17518   2.363   3.392   4.857
 5759WAT     H117519   2.325   3.333   4.928
 5759WAT     H217520   2.379   3.339   4.774
 5760WAT      O17521   3.722   8.066   3.845
 5760WAT     H117522   3.798   8.008   3.877
 5760WAT     H217523   3.646   8.008   3.817
 5761WAT      O17524   9.229   9.282   4.126
 5761WAT     H117525   9.325   9.303   4.110
 5761WAT     H217526   9.173   9.323   4.054
 5762WAT      O17527   6.205   8.408   2.517
 5762WAT     H117528   6.299   8.439   2.502
 5762WAT     H217529   6.169   8.450   2.600
 5763WAT      O17530   8.744   7.392   6.506
 5763WAT     H117531   8.797   7.476   6.518
 5763WAT     H217532   8.806   7.316   6.486
 5764WAT      O17533   0.825   4.725   5.299
 5764WAT     H117534   0.905   4.720   5.360
 5764WAT     H217535   0.743   4.742   5.353
 5765WAT      O17536   8.012   3.254   9.764
 5765WAT     H117537   8.028   3.174   9.707
 5765WAT     H217538   8.047   3.237   9.857
 5766WAT      O17539   5.247   1.357   3.938
 5766WAT     H117540   5.313   1.389   4.006
 5766WAT     H217541   5.292   1.296   3.874
 5767WAT      O17542   5.196   7.518   9.767
 5767WAT     H117543   5.290   7.511   9.801
 5767WAT     H217544   5.196   7.562   9.677
 5768WAT      O17545   1.978   1.026   9.134
 5768WAT     H117546   1.989   0.991   9.227
 5768WAT     H217547   2.068   1.047   9.095
 5769WAT      O17548   4.177   2.016   4.141
 5769WAT     H117549   4.156   2.068   4.058
 5769WAT     H217550   4.211   2.079   4.212
 5770WAT      O17551   9.385   1.465   0.418
 5770WAT     H117552   9.452   1.443   0.488
 5770WAT     H217553   9.391   1.397   0.344
 5771WAT      O17554   0.290   2.031   4.842
 5771WAT     H117555   0.198   2.001   4.864
 5771WAT     H217556   0.297   2.048   4.743
 5772WAT      O17557   9.491   8.691   2.307
 5772WAT     H117558   9.535   8.616   2.256
 5772WAT     H217559   9.561   8.751   2.345
 5773WAT      O17560   8.002   3.659   6.478
 5773WAT     H117561   8.024   3.561   6.488
 5773WAT     H217562   8.079   3.705   6.435
 5774WAT      O17563   0.161   3.086   9.053
 5774WAT     H117564   0.234   3.153   9.036
 5774WAT     H217565   0.098   3.085   8.976
 5775WAT      O17566   0.278   0.626   2.444
 5775WAT     H117567   0.224   0.674   2.513
 5775WAT     H217568   0.317   0.692   2.380
 5776WAT      O17569   1.778   1.090   3.027
 5776WAT     H117570   1.761   0.998   3.063
 5776WAT     H217571   1.694   1.123   2.982
 5777WAT      O17572   6.412   2.686   2.859
 5777WAT     H117573   6.317   2.659   2.842
 5777WAT     H217574   6.472   2.637   2.795
 5778WAT      O17575   8.639   3.887   1.745
 5778WAT     H117576   8.549   3.930   1.737
 5778WAT     H217577   8.704   3.933   1.684
 5779WAT      O17578   4.162   0.746   5.268
 5779WAT     H117579   4.193   0.836   5.238
 5779WAT     H217580   4.239   0.694   5.304
 5780WAT      O17581   3.423   7.802   6.495
 5780WAT     H117582   3.454   7.744   6.570
 5780WAT     H217583   3.403   7.745   6.415
 5781WAT      O17584   4.193   9.027   9.274
 5781WAT     H117585   4.220   9.105   9.330
 5781WAT     H217586   4.096   9.009   9.287
 5782WAT      O17587   4.912   5.076   2.960
 5782WAT     H117588   4.837   5.112   3.016
 5782WAT     H217589   4.892   5.090   2.863
 5783WAT      O17590   9.715   5.136   3.847
 5783WAT     H117591   9.624   5.104   3.875
 5783WAT     H217592   9.705   5.219   3.791
 5784WAT      O17593   0.317   1.048   9.395
 5784WAT     H117594   0.272   1.112   9.458
 5784WAT     H217595   0.265   0.963   9.391
 5785WAT      O17596   5.044   4.176   0.201
 5785WAT     H117597   4.980   4.230   0.147
 5785WAT     H217598   4.998   4.138   0.281
 5786WAT      O17599   3.443   9.388   8.700
 5786WAT     H117600   3.454   9.291   8.678
 5786WAT     H217601   3.510   9.414   8.769
 5787WAT      O17602   8.921   7.321   7.881
 5787WAT     H117603   8.892   7.358   7.793
 5787WAT     H217604   8.940   7.396   7.944
 5788WAT      O17605   3.369   8.829   3.801
 5788WAT     H117606   3.394   8.752   3.741
 5788WAT     H217607   3.451   8.881   3.824
 5789WAT      O17608   6.191   5.132   6.958
 5789WAT     H117609   6.251   5.156   7.035
 5789WAT     H217610   6.246   5.095   6.883
 5790WAT      O17611   5.556   8.389   1.417
 5790WAT     H117612   5.619   8.442   1.474
 5790WAT     H217613   5.596   8.300   1.396
 5791WAT      O17614   6.596   2.011   1.380
 5791WAT     H117615   6.642   1.926   1.403
 5791WAT     H217616   6.558   2.052   1.463
 5792WAT      O17617   7.082   4.439   5.246
 5792WAT     H117618   7.068   4.344   5.274
 5792WAT     H217619   7.144   4.484   5.311
 5793WAT      O17620   4.837   1.717   6.470
 5793WAT     H117621   4.873   1.631   6.507
 5793WAT     H217622   4.911   1.768   6.427
 5794WAT      O17623   0.311   4.975   1.860
 5794WAT     H117624   0.393   4.919   1.853
 5794WAT     H217625   0.285   5.007   1.769
 5795WAT      O17626   1.867   8.349   0.366
 5795WAT     H117627   1.800   8.277   0.349
 5795WAT     H217628   1.942   8.341   0.299
 5796WAT      O17629   2.395   8.887   6.663
 5796WAT     H117630   2.479   8.875   6.610
 5796WAT     H217631   2.416   8.881   6.760
 5797WAT      O17632   1.230   5.062   8.898
 5797WAT     H117633   1.253   5.091   8.805
 5797WAT     H217634   1.307   5.014   8.939
 5798WAT      O17635   1.229   0.919   3.023
 5798WAT     H117636   1.264   1.007   3.053
 5798WAT     H217637   1.129   0.917   3.035
 5799WAT      O17638   4.783   4.417   2.937
 5799WAT     H117639   4.695   4.372   2.949
 5799WAT     H217640   4.785   4.465   2.850
 5800WAT      O17641   9.241   9.044   5.956
 5800WAT     H117642   9.263   9.138   5.982
 5800WAT     H217643   9.145   9.040   5.927
 5801WAT      O17644   1.937   1.307   6.230
 5801WAT     H117645   1.855   1.256   6.203
 5801WAT     H217646   1.994   1.249   6.287
 5802WAT      O17647   3.701   3.403   2.748
 5802WAT     H117648   3.650   3.328   2.790
 5802WAT     H217649   3.707   3.479   2.813
 5803WAT      O17650   4.014   0.148   7.457
 5803WAT     H117651   4.102   0.120   7.494
 5803WAT     H217652   3.944   0.082   7.484
 5804WAT      O17653   5.709   8.584   1.906
 5804WAT     H117654   5.674   8.611   1.996
 5804WAT     H217655   5.787   8.641   1.882
 5805WAT      O17656   4.804   3.626   7.111
 5805WAT     H117657   4.804   3.724   7.091
 5805WAT     H217658   4.887   3.602   7.161
 5806WAT      O17659   5.900   1.260   1.060
 5806WAT     H117660   5.890   1.328   1.133
 5806WAT     H217661   5.812   1.217   1.042
 5807WAT      O17662   0.238   1.720   6.448
 5807WAT     H117663   0.227   1.650   6.378
 5807WAT     H217664   0.310   1.785   6.420
 5808WAT      O17665   1.551   8.711   3.604
 5808WAT     H117666   1.628   8.741   3.547
 5808WAT     H217667   1.586   8.673   3.690
 5809WAT      O17668   5.069   3.922   9.597
 5809WAT     H117669   5.107   3.830   9.607
 5809WAT     H217670   5.139   3.983   9.561
 5810WAT      O17671   1.189   4.952   5.180
 5810WAT     H117672   1.134   4.869   5.176
 5810WAT     H217673   1.243   4.952   5.264
 5811WAT      O17674   4.455   8.031   3.125
 5811WAT     H117675   4.465   7.933   3.141
 5811WAT     H217676   4.538   8.079   3.155
 5812WAT      O17677   6.154   3.642   8.464
 5812WAT     H117678   6.152   3.553   8.420
 5812WAT     H217679   6.061   3.675   8.477
 5813WAT      O17680   2.694   9.208   7.081
 5813WAT     H117681   2.784   9.166   7.097
 5813WAT     H217682   2.623   9.139   7.091
 5814WAT      O17683   9.070   4.119   2.997
 5814WAT     H117684   9.075   4.123   2.898
 5814WAT     H217685   8.979   4.087   3.025
 5815WAT      O17686   3.719   1.799   6.335
 5815WAT     H117687   3.752   1.855   6.412
 5815WAT     H217688   3.622   1.779   6.349
 5816WAT      O17689   2.330   5.035   7.888
 5816WAT     H117690   2.265   5.100   7.847
 5816WAT     H217691   2.423   5.069   7.877
 5817WAT      O17692   3.209   6.355   3.382
 5817WAT     H117693   3.237   6.262   3.356
 5817WAT     H217694   3.264   6.385   3.459
 5818WAT      O17695   5.804   3.199   3.800
 5818WAT     H117696   5.799   3.298   3.786
 5818WAT     H217697   5.815   3.154   3.711
 5819WAT      O17698   5.202   0.032   3.364
 5819WAT     H117699   5.216  -0.057   3.321
 5819WAT     H217700   5.283   0.057   3.416
 5820WAT      O17701   1.124   1.765   7.933
 5820WAT     H117702   1.224   1.758   7.931
 5820WAT     H217703   1.094   1.782   8.027
 5821WAT      O17704   3.937   1.017   0.573
 5821WAT     H117705   4.009   0.964   0.617
 5821WAT     H217706   3.906   1.089   0.635
 5822WAT      O17707   0.083   3.726   7.560
 5822WAT     H117708   0.021   3.736   7.482
 5822WAT     H217709   0.035   3.684   7.636
 5823WAT      O17710   4.122   8.805   4.919
 5823WAT     H117711   4.086   8.718   4.883
 5823WAT     H217712   4.221   8.808   4.906
 5824WAT      O17713   7.409   2.703   5.741
 5824WAT     H117714   7.451   2.677   5.654
 5824WAT     H217715   7.455   2.654   5.815
 5825WAT      O17716   7.182   3.638   3.929
 5825WAT     H117717   7.233   3.653   3.844
 5825WAT     H217718   7.227   3.687   4.004
 5826WAT      O17719   4.953   2.538   8.444
 5826WAT     H117720   5.010   2.606   8.490
 5826WAT     H217721   4.872   2.582   8.407
 5827WAT      O17722   9.633   1.618   0.447
 5827WAT     H117723   9.685   1.685   0.394
 5827WAT     H217724   9.672   1.527   0.433
 5828WAT      O17725   9.709   8.130   8.138
 5828WAT     H117726   9.792   8.184   8.150
 5828WAT     H217727   9.687   8.083   8.224
 5829WAT      O17728   2.291   8.031   1.875
 5829WAT     H117729   2.242   8.082   1.805
 5829WAT     H217730   2.328   7.947   1.835
 5830WAT      O17731   1.821   0.078   8.861
 5830WAT     H117732   1.724   0.077   8.837
 5830WAT     H217733   1.832   0.113   8.954
 5831WAT      O17734   7.934   1.674   3.771
 5831WAT     H117735   7.860   1.616   3.739
 5831WAT     H217736   7.896   1.751   3.822
 5832WAT      O17737   8.469   9.490   1.074
 5832WAT     H117738   8.408   9.564   1.100
 5832WAT     H217739   8.437   9.450   0.987
 5833WAT      O17740   8.509   5.156   7.272
 5833WAT     H117741   8.482   5.190   7.363
 5833WAT     H217742   8.500   5.230   7.205
 5834WAT      O17743   0.006   4.379   7.359
 5834WAT     H117744  -0.083   4.417   7.336
 5834WAT     H217745   0.058   4.446   7.412
 5835WAT      O17746   8.577   5.755   7.132
 5835WAT     H117747   8.637   5.781   7.208
 5835WAT     H217748   8.482   5.765   7.160
 5836WAT      O17749   0.696   6.012   7.940
 5836WAT     H117750   0.699   6.078   7.865
 5836WAT     H217751   0.724   6.057   8.025
 5837WAT      O17752   4.956   4.261   8.237
 5837WAT     H117753   5.023   4.237   8.307
 5837WAT     H217754   4.904   4.179   8.212
 5838WAT      O17755   6.914   1.350   9.795
 5838WAT     H117756   6.865   1.411   9.857
 5838WAT     H217757   6.886   1.369   9.701
 5839WAT      O17758   1.241   8.725   6.198
 5839WAT     H117759   1.306   8.779   6.144
 5839WAT     H217760   1.262   8.736   6.295
 5840WAT      O17761   0.854   0.038   4.472
 5840WAT     H117762   0.786  -0.032   4.493
 5840WAT     H217763   0.940   0.016   4.519
 5841WAT      O17764   3.298   5.538   5.138
 5841WAT     H117765   3.225   5.473   5.157
 5841WAT     H217766   3.309   5.548   5.040
 5842WAT      O17767   7.854   5.879   0.672
 5842WAT     H117768   7.953   5.875   0.664
 5842WAT     H217769   7.818   5.787   0.688
 5843WAT      O17770   5.440   0.396   3.125
 5843WAT     H117771   5.471   0.302   3.142
 5843WAT     H217772   5.420   0.441   3.212
 5844WAT      O17773   7.887   0.817   5.678
 5844WAT     H117774   7.854   0.779   5.591
 5844WAT     H217775   7.959   0.885   5.660
 5845WAT      O17776   5.381   2.161   8.856
 5845WAT     H117777   5.353   2.242   8.804
 5845WAT     H217778   5.434   2.100   8.797
 5846WAT      O17779   8.549   5.046   0.902
 5846WAT     H117780   8.488   5.052   0.823
 5846WAT     H217781   8.633   5.097   0.882
 5847WAT      O17782   5.120   4.989   6.761
 5847WAT     H117783   5.216   4.978   6.737
 5847WAT     H217784   5.104   5.084   6.790
 5848WAT      O17785   1.059   4.072   7.224
 5848WAT     H117786   1.135   4.104   7.279
 5848WAT     H217787   1.066   3.973   7.211
 5849WAT      O17788   5.627   4.713   7.652
 5849WAT     H117789   5.709   4.769   7.665
 5849WAT     H217790   5.651   4.630   7.603
 5850WAT      O17791   6.274   1.865   2.744
 5850WAT     H117792   6.199   1.799   2.742
 5850WAT     H217793   6.237   1.958   2.747
 5851WAT      O17794   1.416   8.719   4.193
 5851WAT     H117795   1.374   8.801   4.156
 5851WAT     H217796   1.348   8.646   4.199
 5852WAT      O17797   5.993   4.530   9.210
 5852WAT     H117798   5.958   4.447   9.252
 5852WAT     H217799   6.088   4.544   9.238
 5853WAT      O17800   1.894   7.600   2.733
 5853WAT     H117801   1.939   7.680   2.771
 5853WAT     H217802   1.944   7.568   2.653
 5854WAT      O17803   8.166   6.755   4.559
 5854WAT     H117804   8.102   6.689   4.599
 5854WAT     H217805   8.182   6.830   4.624
 5855WAT      O17806   5.066   9.451   2.275
 5855WAT     H117807   5.147   9.498   2.241
 5855WAT     H217808   5.024   9.398   2.201
 5856WAT      O17809   1.784   0.219   9.150
 5856WAT     H117810   1.725   0.299   9.144
 5856WAT     H217811   1.821   0.211   9.242
 5857WAT      O17812   2.626   2.300   5.994
 5857WAT     H117813   2.705   2.268   5.942
 5857WAT     H217814   2.630   2.400   6.002
 5858WAT      O17815   1.231   0.014   0.209
 5858WAT     H117816   1.158   0.082   0.205
 5858WAT     H217817   1.288   0.031   0.289
 5859WAT      O17818   5.937   1.027   7.104
 5859WAT     H117819   5.980   0.988   7.186
 5859WAT     H217820   6.008   1.050   7.037
 5860WAT      O17821   0.406   3.095   8.128
 5860WAT     H117822   0.418   2.996   8.134
 5860WAT     H217823   0.472   3.132   8.062
 5861WAT      O17824   7.650   7.386   5.244
 5861WAT     H117825   7.716   7.374   5.318
 5861WAT     H217826   7.698   7.417   5.161
 5862WAT      O17827   2.527   4.124   4.084
 5862WAT     H117828   2.442   4.095   4.129
 5862WAT     H217829   2.527   4.224   4.075
 5863WAT      O17830   1.671   3.631   4.123
 5863WAT     H117831   1.599   3.653   4.189
 5863WAT     H217832   1.749   3.591   4.170
 5864WAT      O17833   3.675   4.879   6.455
 5864WAT     H117834   3.644   4.966   6.417
 5864WAT     H217835   3.679   4.887   6.555
 5865WAT      O17836   6.203   2.167   5.241
 5865WAT     H117837   6.112   2.128   5.256
 5865WAT     H217838   6.207   2.258   5.283
 5866WAT      O17839   3.551   0.325   4.380
 5866WAT     H117840   3.536   0.231   4.350
 5866WAT     H217841   3.638   0.358   4.345
 5867WAT      O17842   1.857   1.889   8.805
 5867WAT     H117843   1.758   1.878   8.807
 5867WAT     H217844   1.881   1.982   8.835
 5868WAT      O17845   7.126   7.390   0.984
 5868WAT     H117846   7.093   7.482   0.960
 5868WAT     H217847   7.225   7.385   0.967
 5869WAT      O17848   6.335   7.697   0.448
 5869WAT     H117849   6.261   7.672   0.386
 5869WAT     H217850   6.421   7.699   0.397
 5870WAT      O17851   1.028   0.822   0.395
 5870WAT     H117852   0.949   0.770   0.360
 5870WAT     H217853   1.037   0.806   0.493
 5871WAT      O17854   1.752   3.541   0.968
 5871WAT     H117855   1.767   3.609   0.897
 5871WAT     H217856   1.838   3.495   0.989
 5872WAT      O17857   8.971   3.021   5.497
 5872WAT     H117858   8.963   2.924   5.520
 5872WAT     H217859   9.021   3.030   5.410
 5873WAT      O17860   6.725   6.122   9.513
 5873WAT     H117861   6.776   6.154   9.592
 5873WAT     H217862   6.629   6.107   9.539
 5874WAT      O17863   8.517   0.998   6.698
 5874WAT     H117864   8.607   1.012   6.658
 5874WAT     H217865   8.514   1.039   6.789
 5875WAT      O17866   0.728   7.577   9.009
 5875WAT     H117867   0.746   7.488   8.967
 5875WAT     H217868   0.689   7.563   9.101
 5876WAT      O17869   0.007   0.347   0.255
 5876WAT     H117870  -0.060   0.276   0.233
 5876WAT     H217871   0.079   0.308   0.312
 5877WAT      O17872   7.815   7.891   5.554
 5877WAT     H117873   7.883   7.871   5.625
 5877WAT     H217874   7.855   7.952   5.486
 5878WAT      O17875   5.616   9.755   9.067
 5878WAT     H117876   5.560   9.809   9.129
 5878WAT     H217877   5.703   9.733   9.110
 5879WAT      O17878   0.955   9.484   1.393
 5879WAT     H117879   1.007   9.467   1.309
 5879WAT     H217880   0.907   9.401   1.420
 5880WAT      O17881   0.058   1.058   8.385
 5880WAT     H117882   0.101   1.142   8.417
 5880WAT     H217883   0.050   1.061   8.285
 5881WAT      O17884   7.671   6.507   0.480
 5881WAT     H117885   7.694   6.601   0.454
 5881WAT     H217886   7.584   6.481   0.438
 5882WAT      O17887   2.720   7.518   6.261
 5882WAT     H117888   2.773   7.571   6.328
 5882WAT     H217889   2.623   7.545   6.267
 5883WAT      O17890   2.688   1.774   7.122
 5883WAT     H117891   2.606   1.778   7.180
 5883WAT     H217892   2.767   1.807   7.173
 5884WAT      O17893   6.573   6.345   2.363
 5884WAT     H117894   6.479   6.360   2.333
 5884WAT     H217895   6.623   6.432   2.358
 5885WAT      O17896   8.652   4.792   1.781
 5885WAT     H117897   8.650   4.845   1.866
 5885WAT     H217898   8.568   4.807   1.730
 5886WAT      O17899   5.571   9.249   5.989
 5886WAT     H117900   5.620   9.243   5.902
 5886WAT     H217901   5.508   9.172   5.998
 5887WAT      O17902   6.473   7.565   7.892
 5887WAT     H117903   6.544   7.617   7.844
 5887WAT     H217904   6.498   7.468   7.893
 5888WAT      O17905   1.916   3.279   2.917
 5888WAT     H117906   1.963   3.216   2.979
 5888WAT     H217907   1.819   3.254   2.912
 5889WAT      O17908   1.763   9.748   9.415
 5889WAT     H117909   1.760   9.790   9.506
 5889WAT     H217910   1.847   9.775   9.369
 5890WAT      O17911   6.502   6.789   2.292
 5890WAT     H117912   6.573   6.736   2.339
 5890WAT     H217913   6.420   6.733   2.280
 5891WAT      O17914   3.364   8.668   1.324
 5891WAT     H117915   3.288   8.618   1.282
 5891WAT     H217916   3.425   8.603   1.370
 5892WAT      O17917   4.219   6.390   1.645
 5892WAT     H117918   4.297   6.443   1.610
 5892WAT     H217919   4.152   6.378   1.572
 5893WAT      O17920   7.563   9.743   3.049
 5893WAT     H117921   7.548   9.732   3.147
 5893WAT     H217922   7.611   9.830   3.033
 5894WAT      O17923   4.417   2.863   5.194
 5894WAT     H117924   4.422   2.773   5.153
 5894WAT     H217925   4.507   2.906   5.193
 5895WAT      O17926   9.676   2.117   3.470
 5895WAT     H117927   9.631   2.174   3.539
 5895WAT     H217928   9.680   2.167   3.383
 5896WAT      O17929   5.538   6.678   9.471
 5896WAT     H117930   5.503   6.765   9.506
 5896WAT     H217931   5.632   6.665   9.503
 5897WAT      O17932   4.089   0.494   1.546
 5897WAT     H117933   4.021   0.515   1.617
 5897WAT     H217934   4.053   0.423   1.485
 5898WAT      O17935   1.666   9.068   2.771
 5898WAT     H117936   1.705   9.024   2.691
 5898WAT     H217937   1.666   9.003   2.848
 5899WAT      O17938   4.233   8.109   5.535
 5899WAT     H117939   4.242   8.091   5.633
 5899WAT     H217940   4.312   8.072   5.486
 5900WAT      O17941   9.145   0.115   9.886
 5900WAT     H117942   9.195   0.100   9.971
 5900WAT     H217943   9.198   0.079   9.809
 5901WAT      O17944   3.842   1.671   2.000
 5901WAT     H117945   3.862   1.588   2.052
 5901WAT     H217946   3.778   1.728   2.051
 5902WAT      O17947   9.149   5.530   9.544
 5902WAT     H117948   9.248   5.534   9.528
 5902WAT     H217949   9.122   5.608   9.602
 5903WAT      O17950   3.357   3.202   4.648
 5903WAT     H117951   3.451   3.229   4.667
 5903WAT     H217952   3.312   3.175   4.733
 5904WAT      O17953   3.983   1.322   4.902
 5904WAT     H117954   4.030   1.241   4.937
 5904WAT     H217955   4.048   1.397   4.892
 5905WAT      O17956   6.576   2.644   9.339
 5905WAT     H117957   6.654   2.590   9.370
 5905WAT     H217958   6.541   2.605   9.253
 5906WAT      O17959   5.326   9.356   1.251
 5906WAT     H117960   5.406   9.303   1.222
 5906WAT     H217961   5.297   9.326   1.342
 5907WAT      O17962   9.785   6.324   0.035
 5907WAT     H117963   9.814   6.229   0.030
 5907WAT     H217964   9.732   6.347  -0.047
 5908WAT      O17965   8.160   7.002   9.810
 5908WAT     H117966   8.135   7.035   9.719
 5908WAT     H217967   8.228   6.929   9.802
 5909WAT      O17968   8.265   1.206   8.773
 5909WAT     H117969   8.204   1.283   8.791
 5909WAT     H217970   8.258   1.139   8.847
 5910WAT      O17971   1.244   3.759   8.357
 5910WAT     H117972   1.255   3.668   8.317
 5910WAT     H217973   1.195   3.752   8.444
 5911WAT      O17974   8.920   6.063   0.391
 5911WAT     H117975   8.879   5.978   0.424
 5911WAT     H217976   8.915   6.132   0.463
 5912WAT      O17977   6.785   2.734   4.333
 5912WAT     H117978   6.745   2.823   4.351
 5912WAT     H217979   6.885   2.743   4.330
 5913WAT      O17980   9.289   0.513   0.273
 5913WAT     H117981   9.250   0.474   0.356
 5913WAT     H217982   9.220   0.515   0.201
 5914WAT      O17983   6.539   2.805   2.231
 5914WAT     H117984   6.614   2.758   2.183
 5914WAT     H217985   6.511   2.885   2.179
 5915WAT      O17986   0.119   9.254   6.022
 5915WAT     H117987   0.183   9.197   5.970
 5915WAT     H217988   0.122   9.347   5.987
 5916WAT      O17989   8.741   3.957   9.606
 5916WAT     H117990   8.715   3.904   9.526
 5916WAT     H217991   8.806   3.904   9.661
 5917WAT      O17992   6.517   6.658   8.113
 5917WAT     H117993   6.513   6.600   8.031
 5917WAT     H217994   6.484   6.750   8.089
 5918WAT      O17995   8.312   2.705   4.299
 5918WAT     H117996   8.361   2.763   4.234
 5918WAT     H217997   8.312   2.611   4.266
 5919WAT      O17998   4.374   3.766   1.380
 5919WAT     H117999   4.415   3.855   1.403
 5919WAT     H218000   4.305   3.779   1.309
 5920WAT      O18001   9.390   1.349   4.794
 5920WAT     H118002   9.331   1.328   4.716
 5920WAT     H218003   9.479   1.381   4.761
 5921WAT      O18004   6.736   9.616   4.750
 5921WAT     H118005   6.796   9.640   4.674
 5921WAT     H218006   6.768   9.660   4.834
 5922WAT      O18007   5.139   1.879   0.506
 5922WAT     H118008   5.183   1.800   0.551
 5922WAT     H218009   5.068   1.916   0.566
 5923WAT      O18010   0.872   6.792   4.734
 5923WAT     H118011   0.862   6.797   4.833
 5923WAT     H218012   0.848   6.880   4.694
 5924WAT      O18013   0.607   3.638   8.875
 5924WAT     H118014   0.530   3.622   8.813
 5924WAT     H218015   0.588   3.595   8.963
 5925WAT      O18016   4.899   5.362   9.149
 5925WAT     H118017   4.963   5.419   9.201
 5925WAT     H218018   4.886   5.275   9.196
 5926WAT      O18019   4.637   1.142   8.264
 5926WAT     H118020   4.737   1.149   8.270
 5926WAT     H218021   4.598   1.137   8.356
 5927WAT      O18022   4.413   5.069   6.772
 5927WAT     H118023   4.508   5.037   6.770
 5927WAT     H218024   4.391   5.114   6.686
 5928WAT      O18025   5.761   5.196   1.287
 5928WAT     H118026   5.797   5.283   1.252
 5928WAT     H218027   5.723   5.211   1.378
 5929WAT      O18028   9.648   7.950   1.290
 5929WAT     H118029   9.552   7.935   1.268
 5929WAT     H218030   9.705   7.913   1.217
 5930WAT      O18031   1.947   5.691   3.594
 5930WAT     H118032   2.023   5.648   3.545
 5930WAT     H218033   1.887   5.621   3.632
 5931WAT      O18034   7.639   3.433   2.897
 5931WAT     H118035   7.616   3.505   2.831
 5931WAT     H218036   7.703   3.469   2.965
 5932WAT      O18037   6.923   5.282   6.183
 5932WAT     H118038   6.826   5.305   6.189
 5932WAT     H218039   6.940   5.230   6.099
 5933WAT      O18040   0.981   4.889   8.413
 5933WAT     H118041   1.027   4.972   8.447
 5933WAT     H218042   1.033   4.808   8.442
 5934WAT      O18043   8.337   8.930   2.593
 5934WAT     H118044   8.377   8.915   2.683
 5934WAT     H218045   8.290   9.018   2.591
 5935WAT      O18046   5.695   2.357   9.409
 5935WAT     H118047   5.707   2.389   9.504
 5935WAT     H218048   5.609   2.393   9.373
 5936WAT      O18049   4.823   8.499   1.055
 5936WAT     H118050   4.899   8.562   1.038
 5936WAT     H218051   4.771   8.486   0.970
 5937WAT      O18052   7.982   6.862   6.893
 5937WAT     H118053   8.063   6.919   6.908
 5937WAT     H218054   7.900   6.917   6.908
 5938WAT      O18055   3.030   7.976   4.683
 5938WAT     H118056   3.006   8.053   4.624
 5938WAT     H218057   2.991   7.892   4.645
 5939WAT      O18058   2.975   5.593   6.038
 5939WAT     H118059   3.044   5.525   6.061
 5939WAT     H218060   2.989   5.675   6.094
 5940WAT      O18061   8.721   3.566   3.610
 5940WAT     H118062   8.705   3.523   3.521
 5940WAT     H218063   8.750   3.661   3.596
 5941WAT      O18064   8.234   5.170   8.753
 5941WAT     H118065   8.325   5.212   8.752
 5941WAT     H218066   8.235   5.087   8.697
 5942WAT      O18067   1.439   2.738   5.396
 5942WAT     H118068   1.380   2.767   5.320
 5942WAT     H218069   1.402   2.774   5.482
 5943WAT      O18070   2.864   7.756   0.038
 5943WAT     H118071   2.828   7.709  -0.043
 5943WAT     H218072   2.879   7.688   0.111
 5944WAT      O18073   8.549   7.970   9.562
 5944WAT     H118074   8.615   7.909   9.517
 5944WAT     H218075   8.592   8.012   9.642
 5945WAT      O18076   7.116   8.423   4.385
 5945WAT     H118077   7.041   8.467   4.335
 5945WAT     H218078   7.087   8.403   4.478
 5946WAT      O18079   3.169   4.529   8.757
 5946WAT     H118080   3.193   4.449   8.812
 5946WAT     H218081   3.165   4.503   8.660
 5947WAT      O18082   8.018   4.972   1.000
 5947WAT     H118083   8.066   4.999   1.084
 5947WAT     H218084   7.919   4.983   1.014
 5948WAT      O18085   1.645   1.471   7.135
 5948WAT     H118086   1.642   1.466   7.235
 5948WAT     H218087   1.625   1.381   7.096
 5949WAT      O18088   5.379   4.557   2.424
 5949WAT     H118089   5.466   4.579   2.380
 5949WAT     H218090   5.393   4.550   2.523
 5950WAT      O18091   3.513   1.257   4.582
 5950WAT     H118092   3.611   1.273   4.582
 5950WAT     H218093   3.492   1.175   4.636
 5951WAT      O18094   4.967   5.264   8.579
 5951WAT     H118095   5.063   5.238   8.576
 5951WAT     H218096   4.936   5.271   8.674
 5952WAT      O18097   4.385   8.803   4.833
 5952WAT     H118098   4.468   8.759   4.866
 5952WAT     H218099   4.377   8.792   4.734
 5953WAT      O18100   6.739   3.609   9.460
 5953WAT     H118101   6.819   3.555   9.487
 5953WAT     H218102   6.676   3.616   9.537
 5954WAT      O18103   4.792   0.095   1.558
 5954WAT     H118104   4.709   0.058   1.600
 5954WAT     H218105   4.774   0.119   1.462
 5955WAT      O18106   4.190   2.769   1.642
 5955WAT     H118107   4.241   2.720   1.713
 5955WAT     H218108   4.224   2.742   1.552
 5956WAT      O18109   3.077   8.444   3.551
 5956WAT     H118110   3.000   8.382   3.531
 5956WAT     H218111   3.076   8.468   3.648
 5957WAT      O18112   6.325   9.140   2.715
 5957WAT     H118113   6.266   9.221   2.708
 5957WAT     H218114   6.275   9.066   2.761
 5958WAT      O18115   5.770   8.730   5.167
 5958WAT     H118116   5.751   8.679   5.251
 5958WAT     H218117   5.705   8.702   5.096
 5959WAT      O18118   0.904   2.026   9.840
 5959WAT     H118119   0.809   2.006   9.815
 5959WAT     H218120   0.918   2.125   9.845
 5960WAT      O18121   4.828   5.236   8.079
 5960WAT     H118122   4.911   5.281   8.046
 5960WAT     H218123   4.748   5.291   8.055
 5961WAT      O18124   3.233   5.155   0.396
 5961WAT     H118125   3.168   5.198   0.334
 5961WAT     H218126   3.185   5.090   0.455
 5962WAT      O18127   8.719   7.058   5.277
 5962WAT     H118128   8.643   7.038   5.339
 5962WAT     H218129   8.743   6.975   5.226
 5963WAT      O18130   6.509   2.951   4.897
 5963WAT     H118131   6.560   2.945   4.811
 5963WAT     H218132   6.411   2.945   4.877
 5964WAT      O18133   4.058   0.067   9.681
 5964WAT     H118134   4.005   0.151   9.670
 5964WAT     H218135   3.996  -0.008   9.702
 5965WAT      O18136   1.489   3.572   9.566
 5965WAT     H118137   1.551   3.495   9.583
 5965WAT     H218138   1.543   3.655   9.547
 5966WAT      O18139   0.297   9.649   1.997
 5966WAT     H118140   0.305   9.737   1.950
 5966WAT     H218141   0.230   9.591   1.950
 5967WAT      O18142   2.618   4.065   0.399
 5967WAT     H118143   2.535   4.016   0.375
 5967WAT     H218144   2.601   4.164   0.397
 5968WAT      O18145   7.291   0.826   0.913
 5968WAT     H118146   7.356   0.895   0.945
 5968WAT     H218147   7.212   0.824   0.974
 5969WAT      O18148   2.800   5.571   5.637
 5969WAT     H118149   2.823   5.606   5.728
 5969WAT     H218150   2.788   5.648   5.574
 5970WAT      O18151   4.511   2.959   0.407
 5970WAT     H118152   4.451   3.020   0.458
 5970WAT     H218153   4.596   3.006   0.384
 5971WAT      O18154   6.077   3.859   6.252
 5971WAT     H118155   6.060   3.886   6.347
 5971WAT     H218156   6.043   3.766   6.238
 5972WAT      O18157   2.587   0.065   2.123
 5972WAT     H118158   2.596   0.095   2.218
 5972WAT     H218159   2.657  -0.004   2.103
 5973WAT      O18160   7.134   1.346   0.418
 5973WAT     H118161   7.127   1.338   0.319
 5973WAT     H218162   7.137   1.443   0.443
 5974WAT      O18163   6.048   9.022   3.256
 5974WAT     H118164   6.145   9.001   3.244
 5974WAT     H218165   6.035   9.071   3.342
 5975WAT      O18166   5.150   4.816   7.601
 5975WAT     H118167   5.210   4.743   7.634
 5975WAT     H218168   5.185   4.852   7.515
 5976WAT      O18169   2.560   1.844   2.484
 5976WAT     H118170   2.592   1.933   2.453
 5976WAT     H218171   2.504   1.802   2.413
 5977WAT      O18172   7.428   6.361   8.016
 5977WAT     H118173   7.362   6.294   8.050
 5977WAT     H218174   7.519   6.321   8.015
 5978WAT      O18175   4.003   3.919   7.583
 5978WAT     H118176   3.956   3.948   7.666
 5978WAT     H218177   4.101   3.926   7.595
 5979WAT      O18178   4.954   3.857   7.614
 5979WAT     H118179   4.910   3.941   7.583
 5979WAT     H218180   5.006   3.817   7.539
 5980WAT      O18181   0.025   6.499   1.072
 5980WAT     H118182   0.014   6.572   1.004
 5980WAT     H218183   0.083   6.532   1.146
 5981WAT      O18184   1.407   6.524   3.388
 5981WAT     H118185   1.364   6.559   3.471
 5981WAT     H218186   1.488   6.471   3.413
 5982WAT      O18187   2.713   8.111   8.380
 5982WAT     H118188   2.771   8.126   8.460
 5982WAT     H218189   2.765   8.065   8.309
 5983WAT      O18190   7.679   7.540   9.425
 5983WAT     H118191   7.714   7.528   9.518
 5983WAT     H218192   7.595   7.486   9.414
 5984WAT      O18193   6.514   0.722   3.198
 5984WAT     H118194   6.600   0.772   3.208
 5984WAT     H218195   6.473   0.709   3.288
 5985WAT      O18196   8.598   5.348   3.822
 5985WAT     H118197   8.673   5.374   3.761
 5985WAT     H218198   8.532   5.423   3.827
 5986WAT      O18199   2.583   2.785   2.420
 5986WAT     H118200   2.511   2.852   2.403
 5986WAT     H218201   2.542   2.694   2.431
 5987WAT      O18202   0.897   3.988   1.709
 5987WAT     H118203   0.838   4.068   1.720
 5987WAT     H218204   0.869   3.936   1.628
 5988WAT      O18205   3.566   3.766   9.447
 5988WAT     H118206   3.591   3.676   9.482
 5988WAT     H218207   3.515   3.816   9.516
 5989WAT      O18208   0.805   6.715   3.319
 5989WAT     H118209   0.720   6.677   3.357
 5989WAT     H218210   0.877   6.646   3.322
 5990WAT      O18211   2.710   4.400   6.635
 5990WAT     H118212   2.782   4.462   6.664
 5990WAT     H218213   2.623   4.428   6.676
 5991WAT      O18214   3.829   0.658   3.417
 5991WAT     H118215   3.858   0.736   3.472
 5991WAT     H218216   3.887   0.579   3.436
 5992WAT      O18217   0.683   7.834   6.340
 5992WAT     H118218   0.749   7.839   6.415
 5992WAT     H218219   0.720   7.883   6.261
 5993WAT      O18220   4.928   2.714   2.448
 5993WAT     H118221   4.842   2.684   2.489
 5993WAT     H218222   4.930   2.688   2.351
 5994WAT      O18223   2.244   8.522   1.448
 5994WAT     H118224   2.204   8.471   1.525
 5994WAT     H218225   2.341   8.501   1.442
 5995WAT      O18226   7.924   2.519   6.394
 5995WAT     H118227   7.860   2.454   6.354
 5995WAT     H218228   7.951   2.488   6.486
 5996WAT      O18229   1.336   1.541   7.313
 5996WAT     H118230   1.307   1.635   7.332
 5996WAT     H218231   1.433   1.531   7.336
 5997WAT      O18232   7.417   8.918   9.754
 5997WAT     H118233   7.474   8.836   9.749
 5997WAT     H218234   7.364   8.926   9.669
 5998WAT      O18235   7.848   5.523   0.021
 5998WAT     H118236   7.919   5.493   0.084
 5998WAT     H218237   7.811   5.610   0.053
 5999WAT      O18238   1.515   3.000   5.686
 5999WAT     H118239   1.461   3.055   5.623
 5999WAT     H218240   1.594   3.052   5.717
 6000WAT      O18241   7.318   3.662   3.697
 6000WAT     H118242   7.307   3.731   3.626
 6000WAT     H218243   7.406   3.616   3.685
 6001WAT      O18244   3.715   2.469   7.538
 6001WAT     H118245   3.686   2.496   7.630
 6001WAT     H218246   3.808   2.502   7.522
 6002WAT      O18247   4.069   4.773   9.884
 6002WAT     H118248   3.979   4.812   9.868
 6002WAT     H218249   4.124   4.838   9.937
 6003WAT      O18250   1.775   1.822   1.149
 6003WAT     H118251   1.692   1.860   1.190
 6003WAT     H218252   1.848   1.890   1.154
 6004WAT      O18253   4.026   8.625   8.151
 6004WAT     H118254   4.012   8.661   8.243
 6004WAT     H218255   4.091   8.684   8.103
 6005WAT      O18256   8.520   7.111   5.751
 6005WAT     H118257   8.614   7.142   5.736
 6005WAT     H218258   8.519   7.011   5.762
 6006WAT      O18259   9.037   4.035   9.141
 6006WAT     H118260   9.071   4.123   9.175
 6006WAT     H218261   8.943   4.045   9.109
 6007WAT      O18262   7.796   1.785   0.846
 6007WAT     H118263   7.782   1.799   0.944
 6007WAT     H218264   7.832   1.693   0.831
 6008WAT      O18265   1.768   8.147   6.404
 6008WAT     H118266   1.831   8.168   6.329
 6008WAT     H218267   1.694   8.090   6.370
 6009WAT      O18268   4.986   2.622   9.723
 6009WAT     H118269   4.923   2.545   9.731
 6009WAT     H218270   4.936   2.705   9.700
 6010WAT      O18271   9.420   8.204   8.399
 6010WAT     H118272   9.503   8.223   8.451
 6010WAT     H218273   9.342   8.202   8.462
 6011WAT      O18274   9.110   1.425   0.446
 6011WAT     H118275   9.046   1.466   0.512
 6011WAT     H218276   9.204   1.442   0.477
 6012WAT      O18277   5.869   5.265   2.018
 6012WAT     H118278   5.782   5.262   1.970
 6012WAT     H218279   5.905   5.358   2.016
 6013WAT      O18280   7.031   3.084   7.044
 6013WAT     H118281   7.001   3.151   6.976
 6013WAT     H218282   7.071   3.130   7.122
 6014WAT      O18283   5.731   7.608   9.787
 6014WAT     H118284   5.686   7.689   9.825
 6014WAT     H218285   5.740   7.539   9.859
 6015WAT      O18286   0.811   2.839   4.812
 6015WAT     H118287   0.787   2.743   4.799
 6015WAT     H218288   0.802   2.889   4.725
 6016WAT      O18289   7.918   2.653   3.928
 6016WAT     H118290   7.923   2.606   4.016
 6016WAT     H218291   8.004   2.639   3.879
 6017WAT      O18292   3.644   5.788   4.078
 6017WAT     H118293   3.708   5.863   4.097
 6017WAT     H218294   3.611   5.749   4.164
 6018WAT      O18295   2.698   5.686   8.066
 6018WAT     H118296   2.796   5.693   8.079
 6018WAT     H218297   2.659   5.627   8.137
 6019WAT      O18298   2.741   0.437   2.660
 6019WAT     H118299   2.685   0.354   2.662
 6019WAT     H218300   2.697   0.508   2.715
 6020WAT      O18301   0.209   5.636   7.903
 6020WAT     H118302   0.276   5.563   7.915
 6020WAT     H218303   0.252   5.713   7.857
 6021WAT      O18304   5.410   6.820   6.967
 6021WAT     H118305   5.503   6.783   6.974
 6021WAT     H218306   5.356   6.791   7.046
 6022WAT      O18307   7.386   5.531   3.154
 6022WAT     H118308   7.344   5.473   3.083
 6022WAT     H218309   7.372   5.489   3.243
 6023WAT      O18310   9.311   7.622   8.202
 6023WAT     H118311   9.306   7.643   8.300
 6023WAT     H218312   9.326   7.523   8.190
 6024WAT      O18313   5.066   6.242   9.728
 6024WAT     H118314   5.158   6.254   9.691
 6024WAT     H218315   5.028   6.156   9.695
 6025WAT      O18316   8.304   4.861   9.051
 6025WAT     H118317   8.287   4.959   9.037
 6025WAT     H218318   8.223   4.819   9.090
 6026WAT      O18319   7.189   7.489   7.954
 6026WAT     H118320   7.280   7.510   7.991
 6026WAT     H218321   7.138   7.574   7.939
 6027WAT      O18322   3.218   9.630   8.039
 6027WAT     H118323   3.144   9.609   8.103
 6027WAT     H218324   3.281   9.696   8.082
 6028WAT      O18325   0.391   5.118   3.169
 6028WAT     H118326   0.454   5.196   3.169
 6028WAT     H218327   0.360   5.100   3.075
 6029WAT      O18328   9.566   4.132   0.671
 6029WAT     H118329   9.640   4.171   0.616
 6029WAT     H218330   9.535   4.047   0.628
 6030WAT      O18331   6.315   7.397   6.007
 6030WAT     H118332   6.276   7.416   6.097
 6030WAT     H218333   6.265   7.321   5.965
 6031WAT      O18334   7.795   0.698   7.990
 6031WAT     H118335   7.858   0.710   8.067
 6031WAT     H218336   7.739   0.780   7.980
 6032WAT      O18337   1.616   5.132   9.261
 6032WAT     H118338   1.591   5.184   9.180
 6032WAT     H218339   1.570   5.043   9.259
 6033WAT      O18340   1.957   7.654   4.691
 6033WAT     H118341   1.966   7.621   4.785
 6033WAT     H218342   1.948   7.754   4.691
 6034WAT      O18343   2.779   7.149   5.463
 6034WAT     H118344   2.737   7.089   5.395
 6034WAT     H218345   2.863   7.105   5.497
 6035WAT      O18346   5.095   9.138   0.498
 6035WAT     H118347   5.160   9.187   0.556
 6035WAT     H218348   5.075   9.049   0.538
 6036WAT      O18349   2.582   3.570   1.885
 6036WAT     H118350   2.635   3.507   1.828
 6036WAT     H218351   2.568   3.529   1.975
 6037WAT      O18352   5.705   4.660   7.919
 6037WAT     H118353   5.665   4.671   7.828
 6037WAT     H218354   5.703   4.747   7.968
 6038WAT      O18355   7.273   6.366   1.803
 6038WAT     H118356   7.358   6.377   1.752
 6038WAT     H218357   7.213   6.444   1.784
 6039WAT      O18358   2.775   9.706   9.414
 6039WAT     H118359   2.717   9.638   9.369
 6039WAT     H218360   2.719   9.762   9.475
 6040WAT      O18361   0.925   6.298   7.166
 6040WAT     H118362   0.834   6.275   7.132
 6040WAT     H218363   0.917   6.354   7.249
 6041WAT      O18364   4.641   9.221   4.131
 6041WAT     H118365   4.618   9.267   4.216
 6041WAT     H218366   4.735   9.243   4.106
 6042WAT      O18367   0.500   4.761   2.316
 6042WAT     H118368   0.429   4.726   2.255
 6042WAT     H218369   0.550   4.684   2.356
 6043WAT      O18370   6.516   8.332   1.608
 6043WAT     H118371   6.498   8.275   1.689
 6043WAT     H218372   6.501   8.428   1.631
 6044WAT      O18373   1.618   2.255   4.274
 6044WAT     H118374   1.599   2.282   4.180
 6044WAT     H218375   1.532   2.247   4.325
 6045WAT      O18376   8.331   7.371   9.201
 6045WAT     H118377   8.428   7.382   9.220
 6045WAT     H218378   8.309   7.412   9.113
 6046WAT      O18379   7.085   4.121   7.651
 6046WAT     H118380   7.074   4.215   7.617
 6046WAT     H218381   7.043   4.113   7.741
 6047WAT      O18382   6.753   0.743   0.509
 6047WAT     H118383   6.794   0.830   0.481
 6047WAT     H218384   6.795   0.711   0.594
 6048WAT      O18385   8.344   9.623   8.311
 6048WAT     H118386   8.283   9.694   8.274
 6048WAT     H218387   8.339   9.542   8.253
 6049WAT      O18388   7.089   4.191   1.971
 6049WAT     H118389   7.144   4.163   1.892
 6049WAT     H218390   6.993   4.175   1.952
 6050WAT      O18391   1.170   2.976   4.905
 6050WAT     H118392   1.225   3.053   4.873
 6050WAT     H218393   1.087   3.010   4.950
 6051WAT      O18394   0.819   7.667   6.904
 6051WAT     H118395   0.902   7.696   6.857
 6051WAT     H218396   0.755   7.627   6.838
 6052WAT      O18397   2.216   0.708   7.215
 6052WAT     H118398   2.284   0.756   7.160
 6052WAT     H218399   2.246   0.706   7.311
 6053WAT      O18400   6.193   9.226   3.943
 6053WAT     H118401   6.191   9.133   3.906
 6053WAT     H218402   6.120   9.280   3.901
 6054WAT      O18403   6.915   8.746   3.506
 6054WAT     H118404   6.888   8.791   3.591
 6054WAT     H218405   6.938   8.650   3.525
 6055WAT      O18406   0.453   6.875   8.139
 6055WAT     H118407   0.488   6.964   8.110
 6055WAT     H218408   0.358   6.886   8.172
 6056WAT      O18409   1.202   2.072   0.851
 6056WAT     H118410   1.153   2.152   0.884
 6056WAT     H218411   1.211   2.005   0.924
 6057WAT      O18412   8.463   3.679   6.243
 6057WAT     H118413   8.542   3.625   6.272
 6057WAT     H218414   8.485   3.776   6.249
 6058WAT      O18415   5.221   6.506   0.168
 6058WAT     H118416   5.292   6.543   0.110
 6058WAT     H218417   5.221   6.553   0.256
 6059WAT      O18418   4.909   8.777   0.767
 6059WAT     H118419   4.945   8.862   0.805
 6059WAT     H218420   4.815   8.763   0.798
 6060WAT      O18421   7.926   5.481   8.098
 6060WAT     H118422   7.955   5.440   8.011
 6060WAT     H218423   7.826   5.491   8.098
 6061WAT      O18424   0.496   4.169   6.592
 6061WAT     H118425   0.428   4.106   6.630
 6061WAT     H218426   0.461   4.263   6.598
 6062WAT      O18427   6.829   7.956   9.842
 6062WAT     H118428   6.831   7.866   9.885
 6062WAT     H218429   6.797   7.947   9.748
 6063WAT      O18430   5.577   3.053   7.068
 6063WAT     H118431   5.650   3.101   7.018
 6063WAT     H218432   5.534   3.117   7.132
 6064WAT      O18433   0.878   3.288   7.463
 6064WAT     H118434   0.912   3.367   7.413
 6064WAT     H218435   0.778   3.287   7.460
 6065WAT      O18436   3.242   7.350   1.427
 6065WAT     H118437   3.290   7.418   1.482
 6065WAT     H218438   3.151   7.333   1.466
 6066WAT      O18439   7.681   5.672   2.820
 6066WAT     H118440   7.596   5.702   2.862
 6066WAT     H218441   7.714   5.743   2.757
 6067WAT      O18442   1.392   5.672   7.397
 6067WAT     H118443   1.311   5.731   7.408
 6067WAT     H218444   1.363   5.577   7.387
 6068WAT      O18445   7.901   6.869   0.325
 6068WAT     H118446   7.923   6.914   0.411
 6068WAT     H218447   7.970   6.799   0.305
 6069WAT      O18448   9.040   0.784   7.260
 6069WAT     H118449   9.050   0.777   7.359
 6069WAT     H218450   9.011   0.877   7.237
 6070WAT      O18451   5.430   2.856   8.559
 6070WAT     H118452   5.508   2.888   8.505
 6070WAT     H218453   5.348   2.853   8.503
 6071WAT      O18454   6.403   6.532   5.369
 6071WAT     H118455   6.340   6.607   5.387
 6071WAT     H218456   6.352   6.450   5.343
 6072WAT      O18457   5.299   6.448   3.906
 6072WAT     H118458   5.376   6.388   3.927
 6072WAT     H218459   5.314   6.537   3.950
 6073WAT      O18460   0.159   1.998   9.070
 6073WAT     H118461   0.094   1.986   9.145
 6073WAT     H218462   0.139   1.932   8.997
 6074WAT      O18463   2.232   1.334   0.763
 6074WAT     H118464   2.318   1.302   0.803
 6074WAT     H218465   2.249   1.416   0.708
 6075WAT      O18466   0.972   0.527   5.087
 6075WAT     H118467   0.875   0.507   5.086
 6075WAT     H218468   1.009   0.516   5.179
 6076WAT      O18469   9.883   8.155   2.820
 6076WAT     H118470   9.881   8.189   2.726
 6076WAT     H218471   9.978   8.146   2.849
 6077WAT      O18472   8.492   7.932   3.975
 6077WAT     H118473   8.537   7.945   3.886
 6077WAT     H218474   8.508   7.838   4.006
 6078WAT      O18475   0.918   9.836   0.875
 6078WAT     H118476   0.917   9.860   0.778
 6078WAT     H218477   0.973   9.902   0.926
 6079WAT      O18478   1.718   4.269   0.549
 6079WAT     H118479   1.762   4.221   0.473
 6079WAT     H218480   1.623   4.289   0.524
 6080WAT      O18481   6.876   7.361   0.037
 6080WAT     H118482   6.973   7.344   0.018
 6080WAT     H218483   6.866   7.395   0.131
 6081WAT      O18484   2.174   2.159   4.345
 6081WAT     H118485   2.266   2.158   4.386
 6081WAT     H218486   2.166   2.239   4.285
 6082WAT      O18487   4.842   1.610   7.363
 6082WAT     H118488   4.844   1.708   7.382
 6082WAT     H218489   4.934   1.572   7.374
 6083WAT      O18490   2.997   7.292   1.542
 6083WAT     H118491   3.028   7.324   1.631
 6083WAT     H218492   2.962   7.198   1.550
 6084WAT      O18493   8.467   4.508   3.543
 6084WAT     H118494   8.397   4.446   3.576
 6084WAT     H218495   8.442   4.602   3.567
 6085WAT      O18496   1.640   6.183   0.133
 6085WAT     H118497   1.634   6.091   0.172
 6085WAT     H218498   1.677   6.178   0.041
 6086WAT      O18499   6.178   8.022   4.017
 6086WAT     H118500   6.173   8.064   3.927
 6086WAT     H218501   6.139   8.084   4.086
 6087WAT      O18502   7.581   5.052   2.114
 6087WAT     H118503   7.518   4.975   2.123
 6087WAT     H218504   7.669   5.027   2.153
 6088WAT      O18505   2.981   5.587   6.610
 6088WAT     H118506   3.077   5.584   6.640
 6088WAT     H218507   2.925   5.624   6.684
 6089WAT      O18508   8.002   5.529   3.595
 6089WAT     H118509   7.975   5.447   3.544
 6089WAT     H218510   8.062   5.502   3.670
 6090WAT      O18511   6.489   2.104   3.405
 6090WAT     H118512   6.544   2.020   3.405
 6090WAT     H218513   6.510   2.159   3.325
 6091WAT      O18514   5.532   7.180   6.306
 6091WAT     H118515   5.467   7.114   6.342
 6091WAT     H218516   5.625   7.147   6.319
 6092WAT      O18517   4.055   8.276   6.053
 6092WAT     H118518   4.101   8.309   5.970
 6092WAT     H218519   4.058   8.347   6.123
 6093WAT      O18520   2.844   8.750   9.351
 6093WAT     H118521   2.825   8.697   9.268
 6093WAT     H218522   2.860   8.846   9.326
 6094WAT      O18523   8.027   7.793   2.365
 6094WAT     H118524   7.934   7.758   2.371
 6094WAT     H218525   8.074   7.752   2.287
 6095WAT      O18526   2.291   4.980   8.143
 6095WAT     H118527   2.308   5.014   8.051
 6095WAT     H218528   2.357   4.907   8.163
 6096WAT      O18529   2.623   7.301   3.331
 6096WAT     H118530   2.589   7.380   3.281
 6096WAT     H218531   2.560   7.224   3.318
 6097WAT      O18532   9.659   3.078   9.688
 6097WAT     H118533   9.603   3.019   9.629
 6097WAT     H218534   9.735   3.115   9.635
 6098WAT      O18535   0.832   5.987   5.275
 6098WAT     H118536   0.929   5.975   5.252
 6098WAT     H218537   0.792   6.057   5.217
 6099WAT      O18538   2.622   2.950   6.599
 6099WAT     H118539   2.694   2.946   6.668
 6099WAT     H218540   2.551   3.015   6.629
 6100WAT      O18541   6.039   0.761   4.154
 6100WAT     H118542   6.039   0.860   4.163
 6100WAT     H218543   6.026   0.736   4.057
 6101WAT      O18544   5.289   6.571   2.458
 6101WAT     H118545   5.271   6.561   2.361
 6101WAT     H218546   5.203   6.582   2.507
 6102WAT      O18547   1.588   2.552   7.964
 6102WAT     H118548   1.594   2.504   8.051
 6102WAT     H218549   1.588   2.650   7.980
 6103WAT      O18550   0.374   2.945   0.538
 6103WAT     H118551   0.324   3.018   0.585
 6103WAT     H218552   0.322   2.860   0.543
 6104WAT      O18553   2.301   7.997   7.274
 6104WAT     H118554   2.266   8.068   7.335
 6104WAT     H218555   2.390   7.966   7.306
 6105WAT      O18556   4.585   3.332   0.922
 6105WAT     H118557   4.533   3.349   0.838
 6105WAT     H218558   4.614   3.419   0.961
 6106WAT      O18559   8.944   1.224   3.724
 6106WAT     H118560   8.920   1.222   3.821
 6106WAT     H218561   8.939   1.131   3.686
 6107WAT      O18562   9.454   2.674   9.600
 6107WAT     H118563   9.432   2.577   9.607
 6107WAT     H218564   9.548   2.689   9.629
 6108WAT      O18565   1.467   3.032   0.676
 6108WAT     H118566   1.395   3.031   0.746
 6108WAT     H218567   1.543   2.974   0.705
 6109WAT      O18568   2.196   4.798   7.038
 6109WAT     H118569   2.260   4.743   7.092
 6109WAT     H218570   2.102   4.774   7.062
 6110WAT      O18571   3.942   2.339   8.163
 6110WAT     H118572   3.948   2.256   8.107
 6110WAT     H218573   3.905   2.316   8.253
 6111WAT      O18574   7.401   8.003   5.616
 6111WAT     H118575   7.424   8.087   5.567
 6111WAT     H218576   7.302   7.988   5.611
 6112WAT      O18577   0.403   1.534   2.041
 6112WAT     H118578   0.418   1.495   1.950
 6112WAT     H218579   0.400   1.460   2.108
 6113WAT      O18580   5.101   4.757   9.870
 6113WAT     H118581   5.147   4.826   9.926
 6113WAT     H218582   5.098   4.787   9.775
 6114WAT      O18583   8.665   3.041   5.247
 6114WAT     H118584   8.665   2.951   5.289
 6114WAT     H218585   8.728   3.042   5.170
 6115WAT      O18586   0.982   9.535   2.211
 6115WAT     H118587   0.977   9.458   2.275
 6115WAT     H218588   0.958   9.504   2.119
 6116WAT      O18589   2.515   0.672   5.580
 6116WAT     H118590   2.560   0.640   5.663
 6116WAT     H218591   2.505   0.772   5.583
 6117WAT      O18592   3.148   8.512   4.374
 6117WAT     H118593   3.171   8.575   4.299
 6117WAT     H218594   3.138   8.419   4.338
 6118WAT      O18595   7.581   0.701   7.582
 6118WAT     H118596   7.516   0.768   7.618
 6118WAT     H218597   7.565   0.613   7.626
 6119WAT      O18598   7.516   8.103   5.037
 6119WAT     H118599   7.561   8.016   5.059
 6119WAT     H218600   7.536   8.170   5.108
 6120WAT      O18601   8.018   2.977   1.568
 6120WAT     H118602   8.011   3.077   1.564
 6120WAT     H218603   8.114   2.951   1.575
 6121WAT      O18604   3.710   5.641   2.344
 6121WAT     H118605   3.718   5.733   2.304
 6121WAT     H218606   3.684   5.576   2.272
 6122WAT      O18607   6.317   6.342   1.857
 6122WAT     H118608   6.406   6.388   1.858
 6122WAT     H218609   6.328   6.247   1.827
 6123WAT      O18610   2.186   5.473   0.421
 6123WAT     H118611   2.238   5.397   0.383
 6123WAT     H218612   2.136   5.519   0.347
 6124WAT      O18613   0.423   4.720   2.885
 6124WAT     H118614   0.447   4.712   2.982
 6124WAT     H218615   0.477   4.654   2.832
 6125WAT      O18616   2.753   6.990   5.743
 6125WAT     H118617   2.676   6.953   5.691
 6125WAT     H218618   2.720   7.044   5.820
 6126WAT      O18619   6.095   3.360   0.199
 6126WAT     H118620   6.194   3.358   0.182
 6126WAT     H218621   6.078   3.374   0.296
 6127WAT      O18622   7.448   6.279   5.768
 6127WAT     H118623   7.482   6.194   5.806
 6127WAT     H218624   7.427   6.343   5.842
 6128WAT      O18625   3.284   2.318   6.948
 6128WAT     H118626   3.340   2.401   6.944
 6128WAT     H218627   3.280   2.276   6.858
 6129WAT      O18628   3.271   0.262   9.028
 6129WAT     H118629   3.254   0.167   9.052
 6129WAT     H218630   3.204   0.292   8.960
 6130WAT      O18631   0.564   1.356   7.615
 6130WAT     H118632   0.663   1.344   7.608
 6130WAT     H218633   0.542   1.400   7.702
 6131WAT      O18634   8.442   3.306   7.776
 6131WAT     H118635   8.431   3.405   7.789
 6131WAT     H218636   8.501   3.289   7.697
 6132WAT      O18637   0.232   1.684   7.485
 6132WAT     H118638   0.313   1.639   7.447
 6132WAT     H218639   0.235   1.676   7.585
 6133WAT      O18640   8.887   5.767   2.665
 6133WAT     H118641   8.876   5.866   2.677
 6133WAT     H218642   8.802   5.721   2.690
 6134WAT      O18643   6.409   7.399   1.128
 6134WAT     H118644   6.458   7.474   1.173
 6134WAT     H218645   6.395   7.421   1.032
 6135WAT      O18646   8.915   4.530   5.091
 6135WAT     H118647   8.877   4.618   5.066
 6135WAT     H218648   9.002   4.517   5.044
 6136WAT      O18649   2.718   7.633   3.312
 6136WAT     H118650   2.630   7.586   3.305
 6136WAT     H218651   2.712   7.722   3.267
 6137WAT      O18652   3.379   1.338   2.478
 6137WAT     H118653   3.452   1.401   2.452
 6137WAT     H218654   3.290   1.380   2.457
 6138WAT      O18655   9.702   8.650   4.328
 6138WAT     H118656   9.634   8.630   4.257
 6138WAT     H218657   9.791   8.667   4.285
 6139WAT      O18658   1.056   5.847   6.720
 6139WAT     H118659   1.059   5.938   6.678
 6139WAT     H218660   1.135   5.794   6.690
 6140WAT      O18661   7.454   9.512   3.488
 6140WAT     H118662   7.476   9.581   3.557
 6140WAT     H218663   7.526   9.442   3.487
 6141WAT      O18664   5.113   8.395   1.303
 6141WAT     H118665   5.014   8.386   1.309
 6141WAT     H218666   5.153   8.386   1.395
 6142WAT      O18667   5.351   9.668   8.712
 6142WAT     H118668   5.415   9.607   8.759
 6142WAT     H218669   5.399   9.752   8.684
 6143WAT      O18670   5.881   2.458   7.192
 6143WAT     H118671   5.974   2.424   7.181
 6143WAT     H218672   5.827   2.392   7.244
 6144WAT      O18673   4.106   8.213   0.068
 6144WAT     H118674   4.081   8.261   0.152
 6144WAT     H218675   4.042   8.138   0.052
 6145WAT      O18676   7.906   1.979   7.084
 6145WAT     H118677   7.964   2.010   7.008
 6145WAT     H218678   7.875   2.058   7.137
 6146WAT      O18679   1.656   1.955   0.112
 6146WAT     H118680   1.608   1.895   0.175
 6146WAT     H218681   1.623   1.940   0.019
 6147WAT      O18682   6.919   3.297   7.520
 6147WAT     H118683   6.850   3.334   7.583
 6147WAT     H218684   6.992   3.363   7.508
 6148WAT      O18685   5.913   3.786   0.873
 6148WAT     H118686   5.889   3.746   0.785
 6148WAT     H218687   6.011   3.807   0.876
 6149WAT      O18688   6.501   9.259   6.246
 6149WAT     H118689   6.525   9.282   6.341
 6149WAT     H218690   6.527   9.164   6.228
 6150WAT      O18691   7.693   3.087   3.160
 6150WAT     H118692   7.619   3.134   3.208
 6150WAT     H218693   7.657   3.046   3.076
 6151WAT      O18694   3.931   2.861   6.475
 6151WAT     H118695   3.954   2.777   6.424
 6151WAT     H218696   3.848   2.901   6.437
 6152WAT      O18697   7.443   2.055   2.656
 6152WAT     H118698   7.413   2.085   2.566
 6152WAT     H218699   7.454   1.955   2.657
 6153WAT      O18700   5.278   1.200   6.606
 6153WAT     H118701   5.281   1.116   6.551
 6153WAT     H218702   5.371   1.233   6.621
 6154WAT      O18703   1.529   8.870   5.557
 6154WAT     H118704   1.575   8.907   5.476
 6154WAT     H218705   1.556   8.774   5.569
 6155WAT      O18706   1.158   4.566   6.289
 6155WAT     H118707   1.061   4.583   6.272
 6155WAT     H218708   1.169   4.519   6.377
 6156WAT      O18709   5.142   5.580   4.916
 6156WAT     H118710   5.069   5.591   4.984
 6156WAT     H218711   5.188   5.667   4.902
 6157WAT      O18712   6.284   0.632   4.717
 6157WAT     H118713   6.375   0.636   4.758
 6157WAT     H218714   6.271   0.712   4.658
 6158WAT      O18715   6.507   5.365   7.579
 6158WAT     H118716   6.559   5.380   7.663
 6158WAT     H218717   6.409   5.368   7.600
 6159WAT      O18718   8.280   6.514   5.790
 6159WAT     H118719   8.205   6.555   5.841
 6159WAT     H218720   8.251   6.498   5.695
 6160WAT      O18721   3.728   9.087   3.023
 6160WAT     H118722   3.751   9.077   3.120
 6160WAT     H218723   3.789   9.030   2.968
 6161WAT      O18724   1.981   8.167   1.262
 6161WAT     H118725   1.906   8.208   1.313
 6161WAT     H218726   2.017   8.088   1.313
 6162WAT      O18727   2.908   8.896   7.620
 6162WAT     H118728   2.961   8.930   7.542
 6162WAT     H218729   2.881   8.801   7.603
 6163WAT      O18730   5.994   3.777   3.319
 6163WAT     H118731   5.997   3.852   3.385
 6163WAT     H218732   6.040   3.804   3.234
 6164WAT      O18733   1.061   3.247   2.344
 6164WAT     H118734   1.029   3.208   2.258
 6164WAT     H218735   1.150   3.209   2.367
 6165WAT      O18736   5.365   6.169   7.908
 6165WAT     H118737   5.383   6.123   7.996
 6165WAT     H218738   5.267   6.186   7.900
 6166WAT      O18739   8.394   9.249   2.249
 6166WAT     H118740   8.308   9.202   2.268
 6166WAT     H218741   8.396   9.275   2.152
 6167WAT      O18742   1.989   7.735   4.107
 6167WAT     H118743   2.001   7.773   4.015
 6167WAT     H218744   1.911   7.672   4.107
 6168WAT      O18745   5.417   8.938   1.452
 6168WAT     H118746   5.440   8.878   1.528
 6168WAT     H218747   5.340   8.900   1.401
 6169WAT      O18748   6.161   6.550   6.415
 6169WAT     H118749   6.242   6.530   6.470
 6169WAT     H218750   6.146   6.477   6.349
 6170WAT      O18751   4.540   7.746   3.182
 6170WAT     H118752   4.629   7.752   3.226
 6170WAT     H218753   4.553   7.740   3.083
 6171WAT      O18754   7.858   6.653   0.637
 6171WAT     H118755   7.844   6.650   0.736
 6171WAT     H218756   7.819   6.571   0.595
 6172WAT      O18757   7.835   8.216   4.881
 6172WAT     H118758   7.746   8.260   4.869
 6172WAT     H218759   7.901   8.283   4.913
 6173WAT      O18760   0.867   3.271   4.953
 6173WAT     H118761   0.953   3.321   4.961
 6173WAT     H218762   0.882   3.175   4.975
 6174WAT      O18763   2.009   5.263   5.611
 6174WAT     H118764   2.017   5.362   5.614
 6174WAT     H218765   1.967   5.231   5.696
 6175WAT      O18766   7.392   0.589   0.807
 6175WAT     H118767   7.370   0.683   0.832
 6175WAT     H218768   7.410   0.584   0.708
 6176WAT      O18769   1.235   0.414   3.576
 6176WAT     H118770   1.275   0.414   3.667
 6176WAT     H218771   1.184   0.498   3.561
 6177WAT      O18772   7.444   6.587   1.616
 6177WAT     H118773   7.482   6.647   1.544
 6177WAT     H218774   7.367   6.634   1.660
 6178WAT      O18775   1.284   5.602   5.033
 6178WAT     H118776   1.305   5.692   4.996
 6178WAT     H218777   1.186   5.595   5.050
 6179WAT      O18778   3.531   3.805   6.813
 6179WAT     H118779   3.592   3.757   6.749
 6179WAT     H218780   3.585   3.847   6.885
 6180WAT      O18781   9.234   7.270   2.818
 6180WAT     H118782   9.253   7.365   2.795
 6180WAT     H218783   9.274   7.248   2.907
 6181WAT      O18784   7.547   5.444   4.246
 6181WAT     H118785   7.486   5.491   4.308
 6181WAT     H218786   7.628   5.500   4.230
 6182WAT      O18787   1.215   6.403   1.948
 6182WAT     H118788   1.290   6.449   1.901
 6182WAT     H218789   1.137   6.464   1.955
 6183WAT      O18790   9.100   2.730   6.091
 6183WAT     H118791   9.031   2.664   6.121
 6183WAT     H218792   9.059   2.821   6.087
 6184WAT      O18793   7.148   1.416   2.299
 6184WAT     H118794   7.145   1.337   2.360
 6184WAT     H218795   7.064   1.470   2.309
 6185WAT      O18796   1.616   9.041   8.363
 6185WAT     H118797   1.618   9.017   8.266
 6185WAT     H218798   1.709   9.052   8.396
 6186WAT      O18799   0.308   3.345   3.400
 6186WAT     H118800   0.363   3.400   3.337
 6186WAT     H218801   0.262   3.272   3.349
 6187WAT      O18802   8.113   6.115   7.297
 6187WAT     H118803   8.198   6.168   7.305
 6187WAT     H218804   8.040   6.175   7.266
 6188WAT      O18805   9.098   4.819   5.057
 6188WAT     H118806   9.046   4.839   4.973
 6188WAT     H218807   9.039   4.832   5.136
 6189WAT      O18808   6.616   5.957   0.378
 6189WAT     H118809   6.627   6.052   0.351
 6189WAT     H218810   6.650   5.944   0.471
 6190WAT      O18811   4.935   9.176   4.422
 6190WAT     H118812   4.913   9.169   4.325
 6190WAT     H218813   5.017   9.232   4.434
 6191WAT      O18814   6.959   9.419   1.587
 6191WAT     H118815   6.931   9.421   1.491
 6191WAT     H218816   6.997   9.508   1.613
 6192WAT      O18817   8.874   4.387   2.467
 6192WAT     H118818   8.970   4.413   2.458
 6192WAT     H218819   8.847   4.392   2.563
 6193WAT      O18820   9.864   6.052   9.690
 6193WAT     H118821   9.781   5.996   9.690
 6193WAT     H218822   9.902   6.056   9.782
 6194WAT      O18823   8.538   5.978   8.030
 6194WAT     H118824   8.468   5.933   7.975
 6194WAT     H218825   8.615   5.916   8.044
 6195WAT      O18826   0.574   9.147   0.362
 6195WAT     H118827   0.587   9.048   0.362
 6195WAT     H218828   0.569   9.180   0.457
 6196WAT      O18829   6.765   5.983   3.570
 6196WAT     H118830   6.773   5.887   3.545
 6196WAT     H218831   6.853   6.029   3.553
 6197WAT      O18832   9.275   1.631   7.847
 6197WAT     H118833   9.250   1.580   7.764
 6197WAT     H218834   9.351   1.584   7.893
 6198WAT      O18835   1.864   4.572   9.791
 6198WAT     H118836   1.913   4.595   9.876
 6198WAT     H218837   1.787   4.512   9.813
 6199WAT      O18838   3.504   5.185   6.656
 6199WAT     H118839   3.561   5.120   6.607
 6199WAT     H218840   3.555   5.222   6.734
 6200WAT      O18841   3.736   5.875   1.929
 6200WAT     H118842   3.834   5.868   1.912
 6200WAT     H218843   3.699   5.953   1.879
 6201WAT      O18844   2.543   3.554   7.818
 6201WAT     H118845   2.522   3.629   7.881
 6201WAT     H218846   2.603   3.488   7.864
 6202WAT      O18847   0.538   2.628   8.737
 6202WAT     H118848   0.519   2.725   8.721
 6202WAT     H218849   0.623   2.618   8.787
 6203WAT      O18850   2.862   1.316   6.455
 6203WAT     H118851   2.947   1.347   6.496
 6203WAT     H218852   2.802   1.280   6.527
 6204WAT      O18853   8.390   5.231   0.200
 6204WAT     H118854   8.314   5.257   0.141
 6204WAT     H218855   8.453   5.308   0.209
 6205WAT      O18856   8.163   9.681   3.458
 6205WAT     H118857   8.096   9.707   3.389
 6205WAT     H218858   8.244   9.644   3.414
 6206WAT      O18859   0.239   4.670   1.890
 6206WAT     H118860   0.170   4.730   1.850
 6206WAT     H218861   0.198   4.582   1.914
 6207WAT      O18862   8.098   7.394   4.984
 6207WAT     H118863   8.118   7.348   4.897
 6207WAT     H218864   8.092   7.493   4.968
 6208WAT      O18865   3.393   1.384   6.315
 6208WAT     H118866   3.420   1.417   6.224
 6208WAT     H218867   3.340   1.455   6.361
 6209WAT      O18868   4.234   2.180   8.537
 6209WAT     H118869   4.191   2.267   8.560
 6209WAT     H218870   4.189   2.141   8.457
 6210WAT      O18871   1.895   7.936   0.386
 6210WAT     H118872   1.947   7.901   0.464
 6210WAT     H218873   1.850   7.860   0.340
 6211WAT      O18874   7.533   0.114   6.191
 6211WAT     H118875   7.588   0.059   6.128
 6211WAT     H218876   7.593   0.171   6.246
 6212WAT      O18877   9.081   5.750   9.733
 6212WAT     H118878   9.040   5.830   9.689
 6212WAT     H218879   9.134   5.778   9.813
 6213WAT      O18880   0.731   4.376   1.919
 6213WAT     H118881   0.660   4.321   1.963
 6213WAT     H218882   0.785   4.423   1.989
 6214WAT      O18883   9.062   4.110   6.376
 6214WAT     H118884   8.976   4.073   6.339
 6214WAT     H218885   9.139   4.067   6.328
 6215WAT      O18886   2.868   7.299   0.170
 6215WAT     H118887   2.774   7.294   0.202
 6215WAT     H218888   2.929   7.255   0.237
 6216WAT      O18889   1.813   5.828   2.311
 6216WAT     H118890   1.716   5.845   2.296
 6216WAT     H218891   1.866   5.873   2.239
 6217WAT      O18892   3.367   9.520   7.697
 6217WAT     H118893   3.467   9.514   7.686
 6217WAT     H218894   3.339   9.464   7.774
 6218WAT      O18895   6.588   9.388   2.810
 6218WAT     H118896   6.560   9.464   2.751
 6218WAT     H218897   6.686   9.395   2.828
 6219WAT      O18898   4.156   5.980   6.221
 6219WAT     H118899   4.239   6.031   6.196
 6219WAT     H218900   4.158   5.890   6.178
 6220WAT      O18901   2.084   6.632   0.507
 6220WAT     H118902   2.076   6.689   0.426
 6220WAT     H218903   2.175   6.643   0.547
 6221WAT      O18904   1.892   5.939   5.822
 6221WAT     H118905   1.812   5.973   5.870
 6221WAT     H218906   1.964   6.009   5.821
 6222WAT      O18907   0.823   9.197   8.047
 6222WAT     H118908   0.872   9.252   8.114
 6222WAT     H218909   0.811   9.104   8.083
 6223WAT      O18910   0.358   3.138   0.977
 6223WAT     H118911   0.288   3.160   1.045
 6223WAT     H218912   0.401   3.051   0.999
 6224WAT      O18913   2.621   6.713   0.346
 6224WAT     H118914   2.683   6.792   0.342
 6224WAT     H218915   2.582   6.706   0.437
 6225WAT      O18916   3.630   4.237   3.047
 6225WAT     H118917   3.577   4.223   3.131
 6225WAT     H218918   3.671   4.328   3.049
 6226WAT      O18919   4.665   0.937   9.570
 6226WAT     H118920   4.615   0.967   9.651
 6226WAT     H218921   4.629   0.984   9.489
 6227WAT      O18922   8.201   9.822   4.763
 6227WAT     H118923   8.183   9.858   4.671
 6227WAT     H218924   8.123   9.841   4.822
 6228WAT      O18925   7.408   8.532   2.298
 6228WAT     H118926   7.313   8.535   2.268
 6228WAT     H218927   7.436   8.437   2.311
 6229WAT      O18928   6.760   6.351   3.494
 6229WAT     H118929   6.785   6.392   3.581
 6229WAT     H218930   6.823   6.382   3.423
 6230WAT      O18931   4.079   3.050   6.551
 6230WAT     H118932   4.017   2.976   6.524
 6230WAT     H218933   4.072   3.125   6.485
 6231WAT      O18934   0.377   3.557   3.559
 6231WAT     H118935   0.301   3.610   3.596
 6231WAT     H218936   0.345   3.466   3.535
 6232WAT      O18937   3.726   7.056   2.279
 6232WAT     H118938   3.794   7.022   2.343
 6232WAT     H218939   3.769   7.117   2.213
 6233WAT      O18940   5.784   8.941   1.634
 6233WAT     H118941   5.780   8.848   1.597
 6233WAT     H218942   5.845   8.943   1.713
 6234WAT      O18943   0.631   5.402   4.261
 6234WAT     H118944   0.649   5.421   4.165
 6234WAT     H218945   0.713   5.423   4.315
 6235WAT      O18946   2.460   7.341   0.039
 6235WAT     H118947   2.436   7.275  -0.033
 6235WAT     H218948   2.494   7.425  -0.002
 6236WAT      O18949   7.134   4.836   9.274
 6236WAT     H118950   7.169   4.743   9.269
 6236WAT     H218951   7.183   4.886   9.345
 6237WAT      O18952   6.032   6.860   7.781
 6237WAT     H118953   5.976   6.943   7.781
 6237WAT     H218954   6.082   6.854   7.694
 6238WAT      O18955   0.833   6.224   4.286
 6238WAT     H118956   0.854   6.281   4.365
 6238WAT     H218957   0.888   6.253   4.208
 6239WAT      O18958   2.733   9.142   9.809
 6239WAT     H118959   2.830   9.126   9.830
 6239WAT     H218960   2.700   9.069   9.749
 6240WAT      O18961   5.773   6.635   1.954
 6240WAT     H118962   5.681   6.612   1.988
 6240WAT     H218963   5.802   6.566   1.887
 6241WAT      O18964   8.195   4.826   0.439
 6241WAT     H118965   8.265   4.897   0.444
 6241WAT     H218966   8.158   4.821   0.346
 6242WAT      O18967   1.159   9.209   1.758
 6242WAT     H118968   1.061   9.222   1.746
 6242WAT     H218969   1.176   9.118   1.797
 6243WAT      O18970   4.243   0.714   9.132
 6243WAT     H118971   4.170   0.712   9.064
 6243WAT     H218972   4.304   0.791   9.114
 6244WAT      O18973   8.682   5.410   5.096
 6244WAT     H118974   8.741   5.469   5.042
 6244WAT     H218975   8.590   5.450   5.100
 6245WAT      O18976   8.205   3.694   6.317
 6245WAT     H118977   8.288   3.665   6.270
 6245WAT     H218978   8.126   3.680   6.256
 6246WAT      O18979   6.514   0.011   4.941
 6246WAT     H118980   6.604  -0.024   4.964
 6246WAT     H218981   6.489   0.083   5.006
 6247WAT      O18982   7.465   5.486   5.638
 6247WAT     H118983   7.493   5.545   5.714
 6247WAT     H218984   7.376   5.516   5.603
 6248WAT      O18985   7.410   4.265   5.255
 6248WAT     H118986   7.343   4.200   5.221
 6248WAT     H218987   7.409   4.347   5.198
 6249WAT      O18988   3.385   8.295   8.863
 6249WAT     H118989   3.449   8.361   8.823
 6249WAT     H218990   3.388   8.302   8.963
 6250WAT      O18991   7.563   6.690   7.731
 6250WAT     H118992   7.624   6.630   7.679
 6250WAT     H218993   7.582   6.785   7.708
 6251WAT      O18994   4.512   9.408   1.094
 6251WAT     H118995   4.477   9.499   1.070
 6251WAT     H218996   4.539   9.360   1.011
 6252WAT      O18997   6.009   7.654   4.168
 6252WAT     H118998   5.913   7.673   4.144
 6252WAT     H218999   6.042   7.726   4.230
 6253WAT      O19000   4.760   2.231   2.913
 6253WAT     H119001   4.753   2.328   2.889
 6253WAT     H219002   4.846   2.194   2.877
 6254WAT      O19003   6.933   4.754   2.360
 6254WAT     H119004   6.897   4.848   2.354
 6254WAT     H219005   6.999   4.739   2.286
 6255WAT      O19006   3.045   6.716   0.974
 6255WAT     H119007   2.964   6.772   0.993
 6255WAT     H219008   3.127   6.772   0.985
 6256WAT      O19009   2.081   8.451   5.973
 6256WAT     H119010   2.142   8.372   5.980
 6256WAT     H219011   2.111   8.522   6.037
 6257WAT      O19012   7.800   5.341   4.603
 6257WAT     H119013   7.711   5.374   4.636
 6257WAT     H219014   7.871   5.408   4.626
 6258WAT      O19015   5.006   5.558   5.973
 6258WAT     H119016   4.935   5.552   6.043
 6258WAT     H219017   5.053   5.646   5.980
 6259WAT      O19018   0.901   2.744   5.797
 6259WAT     H119019   0.973   2.695   5.846
 6259WAT     H219020   0.856   2.809   5.858
 6260WAT      O19021   0.083   3.934   9.011
 6260WAT     H119022   0.147   3.997   9.056
 6260WAT     H219023   0.118   3.841   9.019
 6261WAT      O19024   8.026   4.147   4.978
 6261WAT     H119025   7.931   4.119   4.969
 6261WAT     H219026   8.070   4.093   5.050
 6262WAT      O19027   4.991   0.438   2.061
 6262WAT     H119028   5.021   0.343   2.049
 6262WAT     H219029   5.053   0.484   2.125
 6263WAT      O19030   5.631   9.846   0.043
 6263WAT     H119031   5.667   9.753   0.038
 6263WAT     H219032   5.568   9.853   0.121
 6264WAT      O19033   2.581   1.567   0.536
 6264WAT     H119034   2.656   1.544   0.475
 6264WAT     H219035   2.605   1.649   0.588
 6265WAT      O19036   4.723   2.629   1.207
 6265WAT     H119037   4.669   2.683   1.142
 6265WAT     H219038   4.681   2.634   1.298
 6266WAT      O19039   9.485   1.785   6.828
 6266WAT     H119040   9.454   1.690   6.819
 6266WAT     H219041   9.478   1.831   6.739
 6267WAT      O19042   7.951   6.469   1.595
 6267WAT     H119043   7.980   6.375   1.577
 6267WAT     H219044   7.886   6.470   1.671
 6268WAT      O19045   1.881   5.426   8.375
 6268WAT     H119046   1.918   5.346   8.423
 6268WAT     H219047   1.956   5.487   8.349
 6269WAT      O19048   2.011   9.518   2.432
 6269WAT     H119049   2.005   9.599   2.374
 6269WAT     H219050   1.950   9.528   2.511
 6270WAT      O19051   3.476   1.571   1.865
 6270WAT     H119052   3.388   1.527   1.847
 6270WAT     H219053   3.517   1.600   1.779
 6271WAT      O19054   5.629   7.992   5.128
 6271WAT     H119055   5.589   8.079   5.156
 6271WAT     H219056   5.562   7.919   5.141
 6272WAT      O19057   8.653   4.591   0.989
 6272WAT     H119058   8.686   4.589   1.083
 6272WAT     H219059   8.685   4.509   0.941
 6273WAT      O19060   7.762   2.392   6.701
 6273WAT     H119061   7.753   2.293   6.690
 6273WAT     H219062   7.855   2.414   6.731
 6274WAT      O19063   4.378   0.878   3.196
 6274WAT     H119064   4.460   0.922   3.159
 6274WAT     H219065   4.398   0.845   3.289
 6275WAT      O19066   3.616   7.408   9.329
 6275WAT     H119067   3.561   7.483   9.364
 6275WAT     H219068   3.678   7.442   9.257
 6276WAT      O19069   2.987   0.969   3.638
 6276WAT     H119070   3.045   0.933   3.565
 6276WAT     H219071   3.035   1.042   3.686
 6277WAT      O19072   6.077   5.046   2.534
 6277WAT     H119073   6.155   5.107   2.518
 6277WAT     H219074   6.008   5.094   2.589
 6278WAT      O19075   0.624   6.419   1.962
 6278WAT     H119076   0.678   6.483   2.016
 6278WAT     H219077   0.682   6.346   1.927
 6279WAT      O19078   6.719   6.620   2.686
 6279WAT     H119079   6.771   6.537   2.704
 6279WAT     H219080   6.719   6.678   2.767
 6280WAT      O19081   1.397   4.552   3.994
 6280WAT     H119082   1.474   4.497   4.028
 6280WAT     H219083   1.402   4.558   3.895
 6281WAT      O19084   9.605   4.302   2.943
 6281WAT     H119085   9.681   4.320   3.006
 6281WAT     H219086   9.635   4.316   2.849
 6282WAT      O19087   6.174   6.428   7.332
 6282WAT     H119088   6.215   6.351   7.381
 6282WAT     H219089   6.246   6.480   7.285
 6283WAT      O19090   0.073   6.243   9.506
 6283WAT     H119091   0.057   6.157   9.555
 6283WAT     H219092   0.005   6.252   9.433
 6284WAT      O19093   1.368   0.834   1.635
 6284WAT     H119094   1.364   0.917   1.690
 6284WAT     H219095   1.276   0.800   1.619
 6285WAT      O19096   0.792   6.904   0.021
 6285WAT     H119097   0.799   6.810   0.055
 6285WAT     H219098   0.710   6.947   0.060
 6286WAT      O19099   0.471   5.012   9.531
 6286WAT     H119100   0.478   4.984   9.435
 6286WAT     H219101   0.376   5.029   9.554
 6287WAT      O19102   5.455   6.492   4.349
 6287WAT     H119103   5.419   6.538   4.268
 6287WAT     H219104   5.383   6.487   4.419
 6288WAT      O19105   9.069   0.557   3.851
 6288WAT     H119106   9.008   0.496   3.901
 6288WAT     H219107   9.141   0.591   3.912
 6289WAT      O19108   5.104   0.617   2.250
 6289WAT     H119109   5.171   0.621   2.324
 6289WAT     H219110   5.085   0.710   2.218
 6290WAT      O19111   4.706   5.224   1.551
 6290WAT     H119112   4.644   5.181   1.485
 6290WAT     H219113   4.709   5.169   1.634
 6291WAT      O19114   4.755   8.197   3.147
 6291WAT     H119115   4.784   8.279   3.196
 6291WAT     H219116   4.820   8.123   3.164
 6292WAT      O19117   6.148   2.361   4.110
 6292WAT     H119118   6.119   2.455   4.125
 6292WAT     H219119   6.067   2.302   4.102
 6293WAT      O19120   2.886   8.279   5.224
 6293WAT     H119121   2.936   8.334   5.291
 6293WAT     H219122   2.789   8.277   5.249
 6294WAT      O19123   8.966   5.217   8.038
 6294WAT     H119124   9.000   5.126   8.012
 6294WAT     H219125   8.888   5.208   8.099
 6295WAT      O19126   2.082   2.906   9.361
 6295WAT     H119127   2.034   2.863   9.285
 6295WAT     H219128   2.180   2.892   9.351
 6296WAT      O19129   3.579   7.909   7.718
 6296WAT     H119130   3.587   7.986   7.781
 6296WAT     H219131   3.546   7.829   7.768
 6297WAT      O19132   7.149   7.501   6.634
 6297WAT     H119133   7.095   7.521   6.716
 6297WAT     H219134   7.243   7.531   6.648
 6298WAT      O19135   2.002   0.666   5.076
 6298WAT     H119136   2.060   0.746   5.063
 6298WAT     H219137   1.919   0.692   5.126
 6299WAT      O19138   7.318   9.564   6.899
 6299WAT     H119139   7.411   9.537   6.874
 6299WAT     H219140   7.274   9.489   6.949
 6300WAT      O19141   7.760   1.769   2.423
 6300WAT     H119142   7.820   1.843   2.453
 6300WAT     H219143   7.668   1.806   2.407
 6301WAT      O19144   2.931   1.765   0.738
 6301WAT     H119145   3.013   1.808   0.777
 6301WAT     H219146   2.959   1.697   0.671
 6302WAT      O19147   6.244   7.152   2.117
 6302WAT     H119148   6.145   7.165   2.127
 6302WAT     H219149   6.269   7.163   2.021
 6303WAT      O19150   3.963   5.336   5.183
 6303WAT     H119151   3.947   5.341   5.084
 6303WAT     H219152   3.971   5.240   5.209
 6304WAT      O19153   5.977   0.641   5.117
 6304WAT     H119154   5.976   0.651   5.217
 6304WAT     H219155   6.029   0.559   5.092
 6305WAT      O19156   5.498   1.740   0.902
 6305WAT     H119157   5.463   1.826   0.865
 6305WAT     H219158   5.472   1.664   0.842
 6306WAT      O19159   6.007   5.161   1.066
 6306WAT     H119160   5.972   5.070   1.047
 6306WAT     H219161   6.018   5.173   1.165
 6307WAT      O19162   4.020   1.390   2.945
 6307WAT     H119163   3.987   1.386   3.039
 6307WAT     H219164   3.942   1.383   2.882
 6308WAT      O19165   7.967   0.997   8.789
 6308WAT     H119166   8.063   0.999   8.816
 6308WAT     H219167   7.928   0.908   8.814
 6309WAT      O19168   8.957   5.936   8.677
 6309WAT     H119169   8.967   5.956   8.775
 6309WAT     H219170   9.036   5.972   8.628
 6310WAT      O19171   0.417   3.199   1.320
 6310WAT     H119172   0.334   3.190   1.265
 6310WAT     H219173   0.440   3.110   1.360
 6311WAT      O19174   0.229   5.646   4.626
 6311WAT     H119175   0.316   5.611   4.591
 6311WAT     H219176   0.240   5.743   4.651
 6312WAT      O19177   4.247   5.921   3.141
 6312WAT     H119178   4.308   5.862   3.088
 6312WAT     H219179   4.259   6.016   3.112
 6313WAT      O19180   9.498   8.421   0.544
 6313WAT     H119181   9.551   8.396   0.463
 6313WAT     H219182   9.547   8.491   0.595
 6314WAT      O19183   7.654   6.749   0.361
 6314WAT     H119184   7.578   6.815   0.366
 6314WAT     H219185   7.738   6.798   0.336
 6315WAT      O19186   2.530   2.609   2.994
 6315WAT     H119187   2.594   2.546   2.950
 6315WAT     H219188   2.448   2.558   3.023
 6316WAT      O19189   0.748   6.094   0.326
 6316WAT     H119190   0.666   6.133   0.367
 6316WAT     H219191   0.727   6.004   0.287
 6317WAT      O19192   8.423   3.368   5.002
 6317WAT     H119193   8.367   3.307   4.946
 6317WAT     H219194   8.430   3.331   5.095
 6318WAT      O19195   5.098   4.754   8.016
 6318WAT     H119196   5.022   4.817   8.034
 6318WAT     H219197   5.097   4.680   8.084
 6319WAT      O19198   0.780   2.276   1.832
 6319WAT     H119199   0.844   2.282   1.755
 6319WAT     H219200   0.687   2.283   1.797
 6320WAT      O19201   0.995   7.856   2.487
 6320WAT     H119202   1.060   7.850   2.563
 6320WAT     H219203   1.020   7.790   2.417
 6321WAT      O19204   2.516   2.226   8.462
 6321WAT     H119205   2.603   2.226   8.510
 6321WAT     H219206   2.532   2.240   8.364
 6322WAT      O19207   2.395   0.747   6.144
 6322WAT     H119208   2.389   0.819   6.075
 6322WAT     H219209   2.311   0.744   6.197
 6323WAT      O19210   3.676   1.548   1.180
 6323WAT     H119211   3.752   1.506   1.229
 6323WAT     H219212   3.592   1.498   1.201
 6324WAT      O19213   6.572   8.776   2.758
 6324WAT     H119214   6.624   8.706   2.709
 6324WAT     H219215   6.591   8.866   2.718
 6325WAT      O19216   9.207   7.673   1.480
 6325WAT     H119217   9.182   7.578   1.499
 6325WAT     H219218   9.290   7.696   1.530
 6326WAT      O19219   0.998   8.508   7.929
 6326WAT     H119220   0.962   8.440   7.865
 6326WAT     H219221   0.928   8.578   7.946
 6327WAT      O19222   4.943   9.383   6.890
 6327WAT     H119223   4.998   9.449   6.838
 6327WAT     H219224   4.898   9.320   6.827
 6328WAT      O19225   4.459   7.718   4.764
 6328WAT     H119226   4.550   7.738   4.727
 6328WAT     H219227   4.430   7.627   4.735
 6329WAT      O19228   0.072   8.923   8.133
 6329WAT     H119229   0.133   8.950   8.059
 6329WAT     H219230   0.083   8.986   8.210
 6330WAT      O19231   4.747   7.629   5.846
 6330WAT     H119232   4.687   7.548   5.853
 6330WAT     H219233   4.824   7.607   5.787
 6331WAT      O19234   6.356   5.221   1.872
 6331WAT     H119235   6.309   5.146   1.919
 6331WAT     H219236   6.410   5.273   1.939
 6332WAT      O19237   1.402   1.607   8.328
 6332WAT     H119238   1.379   1.610   8.426
 6332WAT     H219239   1.485   1.661   8.313
 6333WAT      O19240   7.212   2.123   5.847
 6333WAT     H119241   7.218   2.219   5.822
 6333WAT     H219242   7.290   2.073   5.811
 6334WAT      O19243   9.714   6.713   7.705
 6334WAT     H119244   9.651   6.790   7.714
 6334WAT     H219245   9.795   6.742   7.653
 6335WAT      O19246   9.756   9.790   5.609
 6335WAT     H119247   9.687   9.720   5.624
 6335WAT     H219248   9.721   9.857   5.543
 6336WAT      O19249   8.668   2.296   5.770
 6336WAT     H119250   8.634   2.320   5.862
 6336WAT     H219251   8.634   2.205   5.745
 6337WAT      O19252   1.548   4.226   4.507
 6337WAT     H119253   1.625   4.248   4.568
 6337WAT     H219254   1.503   4.142   4.540
 6338WAT      O19255   8.010   2.561   5.152
 6338WAT     H119256   7.931   2.616   5.180
 6338WAT     H219257   8.026   2.489   5.219
 6339WAT      O19258   5.494   5.955   0.655
 6339WAT     H119259   5.460   5.867   0.688
 6339WAT     H219260   5.465   6.027   0.718
 6340WAT      O19261   5.943   5.234   0.618
 6340WAT     H119262   5.852   5.244   0.658
 6340WAT     H219263   5.948   5.286   0.533
 6341WAT      O19264   7.460   1.335   0.990
 6341WAT     H119265   7.503   1.354   0.902
 6341WAT     H219266   7.365   1.308   0.976
 6342WAT      O19267   3.669   6.281   2.118
 6342WAT     H119268   3.657   6.211   2.188
 6342WAT     H219269   3.593   6.278   2.054
 6343WAT      O19270   0.817   7.038   8.085
 6343WAT     H119271   0.727   7.055   8.044
 6343WAT     H219272   0.888   7.068   8.021
 6344WAT      O19273   8.820   6.186   7.718
 6344WAT     H119274   8.857   6.256   7.658
 6344WAT     H219275   8.841   6.095   7.681
 6345WAT      O19276   1.867   6.228   7.471
 6345WAT     H119277   1.836   6.323   7.485
 6345WAT     H219278   1.896   6.216   7.377
 6346WAT      O19279   8.698   7.440   2.970
 6346WAT     H119280   8.774   7.378   2.992
 6346WAT     H219281   8.727   7.534   2.983
 6347WAT      O19282   6.190   8.744   8.860
 6347WAT     H119283   6.145   8.760   8.948
 6347WAT     H219284   6.198   8.646   8.844
 6348WAT      O19285   2.632   6.645   2.327
 6348WAT     H119286   2.602   6.665   2.421
 6348WAT     H219287   2.719   6.689   2.310
 6349WAT      O19288   3.021   3.079   0.017
 6349WAT     H119289   3.054   3.167  -0.016
 6349WAT     H219290   3.008   3.017  -0.061
 6350WAT      O19291   7.495   7.842   6.211
 6350WAT     H119292   7.450   7.808   6.293
 6350WAT     H219293   7.543   7.927   6.232
 6351WAT      O19294   1.919   5.761   8.432
 6351WAT     H119295   1.841   5.768   8.370
 6351WAT     H219296   1.894   5.707   8.512
 6352WAT      O19297   7.408   0.719   1.407
 6352WAT     H119298   7.327   0.737   1.351
 6352WAT     H219299   7.462   0.645   1.366
 6353WAT      O19300   6.587   5.222   0.284
 6353WAT     H119301   6.595   5.122   0.277
 6353WAT     H219302   6.675   5.261   0.309
 6354WAT      O19303   6.174   0.918   6.259
 6354WAT     H119304   6.235   0.970   6.200
 6354WAT     H219305   6.199   0.933   6.354
 6355WAT      O19306   9.838   9.400   0.859
 6355WAT     H119307   9.851   9.369   0.954
 6355WAT     H219308   9.816   9.321   0.801
 6356WAT      O19309   5.945   1.991   2.983
 6356WAT     H119310   5.989   2.043   2.909
 6356WAT     H219311   5.977   2.026   3.071
 6357WAT      O19312   2.493   5.731   4.689
 6357WAT     H119313   2.456   5.667   4.622
 6357WAT     H219314   2.538   5.681   4.763
 6358WAT      O19315   2.800   7.699   7.311
 6358WAT     H119316   2.760   7.607   7.312
 6358WAT     H219317   2.814   7.727   7.216
 6359WAT      O19318   3.933   9.415   0.374
 6359WAT     H119319   3.914   9.317   0.370
 6359WAT     H219320   3.882   9.456   0.449
 6360WAT      O19321   3.391   7.080   1.462
 6360WAT     H119322   3.361   7.175   1.449
 6360WAT     H219323   3.355   7.024   1.387
 6361WAT      O19324   9.827   3.011   1.594
 6361WAT     H119325   9.763   2.957   1.539
 6361WAT     H219326   9.775   3.070   1.657
 6362WAT      O19327   9.083   3.127   5.231
 6362WAT     H119328   9.077   3.222   5.202
 6362WAT     H219329   9.174   3.108   5.268
 6363WAT      O19330   3.250   9.166   6.695
 6363WAT     H119331   3.313   9.224   6.642
 6363WAT     H219332   3.219   9.090   6.638
 6364WAT      O19333   5.854   4.825   6.823
 6364WAT     H119334   5.774   4.765   6.821
 6364WAT     H219335   5.825   4.921   6.823
 6365WAT      O19336   5.623   3.676   7.409
 6365WAT     H119337   5.532   3.691   7.370
 6365WAT     H219338   5.687   3.743   7.371
 6366WAT      O19339   7.099   6.361   8.671
 6366WAT     H119340   7.058   6.380   8.582
 6366WAT     H219341   7.028   6.360   8.741
 6367WAT      O19342   7.332   4.416   6.849
 6367WAT     H119343   7.381   4.376   6.927
 6367WAT     H219344   7.241   4.376   6.843
 6368WAT      O19345   0.147   0.967   4.436
 6368WAT     H119346   0.119   1.026   4.512
 6368WAT     H219347   0.228   1.005   4.392
 6369WAT      O19348   0.546   6.807   8.393
 6369WAT     H119349   0.603   6.729   8.366
 6369WAT     H219350   0.509   6.851   8.311
 6370WAT      O19351   2.806   4.480   5.937
 6370WAT     H119352   2.813   4.562   5.880
 6370WAT     H219353   2.845   4.402   5.889
 6371WAT      O19354   9.445   6.832   2.420
 6371WAT     H119355   9.530   6.787   2.449
 6371WAT     H219356   9.462   6.882   2.335
 6372WAT      O19357   0.776   5.650   9.419
 6372WAT     H119358   0.699   5.591   9.443
 6372WAT     H219359   0.790   5.718   9.491
 6373WAT      O19360   6.330   8.183   7.526
 6373WAT     H119361   6.361   8.203   7.433
 6373WAT     H219362   6.392   8.225   7.592
 6374WAT      O19363   3.407   2.084   0.810
 6374WAT     H119364   3.395   2.149   0.735
 6374WAT     H219365   3.433   1.994   0.773
 6375WAT      O19366   4.408   5.281   3.217
 6375WAT     H119367   4.486   5.313   3.271
 6375WAT     H219368   4.433   5.198   3.169
 6376WAT      O19369   9.105   9.389   2.841
 6376WAT     H119370   9.044   9.331   2.896
 6376WAT     H219371   9.078   9.383   2.745
 6377WAT      O19372   8.651   8.172   6.232
 6377WAT     H119373   8.673   8.075   6.234
 6377WAT     H219374   8.572   8.189   6.292
 6378WAT      O19375   8.070   4.177   8.176
 6378WAT     H119376   8.165   4.167   8.206
 6378WAT     H219377   8.043   4.273   8.184
 6379WAT      O19378   3.672   6.048   9.878
 6379WAT     H119379   3.732   6.128   9.875
 6379WAT     H219380   3.622   6.047   9.965
 6380WAT      O19381   9.426   6.468   6.342
 6380WAT     H119382   9.473   6.386   6.310
 6380WAT     H219383   9.493   6.536   6.370
 6381WAT      O19384   8.660   2.441   1.042
 6381WAT     H119385   8.637   2.451   1.139
 6381WAT     H219386   8.689   2.529   1.005
 6382WAT      O19387   6.384   9.196   8.454
 6382WAT     H119388   6.296   9.229   8.419
 6382WAT     H219389   6.452   9.270   8.449
 6383WAT      O19390   3.628   1.590   4.367
 6383WAT     H119391   3.726   1.575   4.356
 6383WAT     H219392   3.583   1.582   4.278
 6384WAT      O19393   7.487   4.426   9.266
 6384WAT     H119394   7.518   4.382   9.350
 6384WAT     H219395   7.389   4.408   9.254
 6385WAT      O19396   8.448   0.623   3.134
 6385WAT     H119397   8.520   0.692   3.124
 6385WAT     H219398   8.401   0.637   3.222
 6386WAT      O19399   8.310   7.755   8.924
 6386WAT     H119400   8.385   7.798   8.874
 6386WAT     H219401   8.229   7.814   8.919
 6387WAT      O19402   3.054   7.736   9.522
 6387WAT     H119403   3.085   7.830   9.508
 6387WAT     H219404   3.055   7.688   9.434
 6388WAT      O19405   6.998   3.505   2.309
 6388WAT     H119406   6.953   3.480   2.223
 6388WAT     H219407   6.932   3.502   2.384
 6389WAT      O19408   4.435   1.909   9.043
 6389WAT     H119409   4.502   1.869   8.981
 6389WAT     H219410   4.375   1.837   9.078
 6390WAT      O19411   7.841   7.879   7.256
 6390WAT     H119412   7.899   7.806   7.221
 6390WAT     H219413   7.839   7.874   7.356
 6391WAT      O19414   5.723   0.196   8.044
 6391WAT     H119415   5.775   0.224   8.125
 6391WAT     H219416   5.738   0.099   8.027
 6392WAT      O19417   7.824   7.519   4.215
 6392WAT     H119418   7.823   7.617   4.234
 6392WAT     H219419   7.816   7.503   4.117
 6393WAT      O19420   5.857   1.253   3.006
 6393WAT     H119421   5.767   1.266   2.963
 6393WAT     H219422   5.854   1.291   3.099
 6394WAT      O19423   0.930   4.198   2.602
 6394WAT     H119424   0.984   4.234   2.525
 6394WAT     H219425   0.991   4.178   2.679
 6395WAT      O19426   9.093   3.672   7.308
 6395WAT     H119427   9.103   3.578   7.274
 6395WAT     H219428   9.181   3.718   7.306
 6396WAT      O19429   7.841   0.536   6.695
 6396WAT     H119430   7.785   0.483   6.758
 6396WAT     H219431   7.901   0.475   6.643
 6397WAT      O19432   9.295   5.501   2.318
 6397WAT     H119433   9.206   5.468   2.290
 6397WAT     H219434   9.307   5.486   2.416
 6398WAT      O19435   6.696   0.906   0.808
 6398WAT     H119436   6.604   0.943   0.792
 6398WAT     H219437   6.690   0.831   0.874
 6399WAT      O19438   4.227   3.958   8.050
 6399WAT     H119439   4.256   4.017   8.126
 6399WAT     H219440   4.288   3.971   7.972
 6400WAT      O19441   6.985   2.012   6.828
 6400WAT     H119442   7.048   2.090   6.818
 6400WAT     H219443   6.942   2.015   6.918
 6401WAT      O19444   6.266   7.620   8.819
 6401WAT     H119445   6.360   7.586   8.816
 6401WAT     H219446   6.266   7.718   8.799
 6402WAT      O19447   4.244   6.829   6.500
 6402WAT     H119448   4.218   6.880   6.582
 6402WAT     H219449   4.178   6.847   6.427
 6403WAT      O19450   4.004   0.344   7.725
 6403WAT     H119451   3.985   0.314   7.632
 6403WAT     H219452   4.098   0.378   7.731
 6404WAT      O19453   9.133   9.644   4.962
 6404WAT     H119454   9.033   9.642   4.967
 6404WAT     H219455   9.169   9.674   5.050
 6405WAT      O19456   0.618   4.167   8.928
 6405WAT     H119457   0.572   4.081   8.948
 6405WAT     H219458   0.668   4.198   9.008
 6406WAT      O19459   1.396   3.594   3.232
 6406WAT     H119460   1.453   3.662   3.277
 6406WAT     H219461   1.453   3.535   3.174
 6407WAT      O19462   0.468   3.604   5.985
 6407WAT     H119463   0.399   3.658   6.035
 6407WAT     H219464   0.548   3.661   5.968
 6408WAT      O19465   4.723   0.335   2.156
 6408WAT     H119466   4.710   0.289   2.069
 6408WAT     H219467   4.791   0.285   2.210
 6409WAT      O19468   6.457   0.240   6.447
 6409WAT     H119469   6.527   0.279   6.507
 6409WAT     H219470   6.490   0.242   6.353
 6410WAT      O19471   9.125   5.645   5.920
 6410WAT     H119472   9.044   5.596   5.953
 6410WAT     H219473   9.097   5.735   5.886
 6411WAT      O19474   7.890   5.048   0.202
 6411WAT     H119475   7.829   4.981   0.244
 6411WAT     H219476   7.836   5.123   0.164
 6412WAT      O19477   4.520   7.569   3.962
 6412WAT     H119478   4.518   7.665   3.933
 6412WAT     H219479   4.435   7.524   3.935
 6413WAT      O19480   2.097   0.367   7.608
 6413WAT     H119481   2.187   0.362   7.650
 6413WAT     H219482   2.099   0.324   7.517
 6414WAT      O19483   4.875   3.819   1.277
 6414WAT     H119484   4.845   3.735   1.322
 6414WAT     H219485   4.800   3.856   1.222
 6415WAT      O19486   1.184   6.895   5.491
 6415WAT     H119487   1.157   6.990   5.476
 6415WAT     H219488   1.256   6.891   5.561
 6416WAT      O19489   5.308   0.666   3.568
 6416WAT     H119490   5.293   0.648   3.665
 6416WAT     H219491   5.399   0.634   3.541
 6417WAT      O19492   5.148   3.764   0.908
 6417WAT     H119493   5.120   3.746   1.002
 6417WAT     H219494   5.248   3.775   0.905
 6418WAT      O19495   7.702   7.314   1.330
 6418WAT     H119496   7.620   7.370   1.344
 6418WAT     H219497   7.750   7.345   1.248
 6419WAT      O19498   4.905   5.822   3.095
 6419WAT     H119499   4.846   5.744   3.073
 6419WAT     H219500   4.851   5.907   3.090
 6420WAT      O19501   7.852   1.327   2.038
 6420WAT     H119502   7.814   1.236   2.024
 6420WAT     H219503   7.802   1.393   1.982
 6421WAT      O19504   6.624   2.097   2.126
 6421WAT     H119505   6.568   2.130   2.201
 6421WAT     H219506   6.692   2.167   2.102
 6422WAT      O19507   3.203   3.758   6.167
 6422WAT     H119508   3.237   3.749   6.074
 6422WAT     H219509   3.156   3.846   6.176
 6423WAT      O19510   9.433   0.144   7.543
 6423WAT     H119511   9.442   0.185   7.634
 6423WAT     H219512   9.422   0.045   7.552
 6424WAT      O19513   8.590   1.820   4.518
 6424WAT     H119514   8.671   1.766   4.544
 6424WAT     H219515   8.509   1.761   4.519
 6425WAT      O19516   6.258   9.774   9.284
 6425WAT     H119517   6.207   9.688   9.284
 6425WAT     H219518   6.304   9.785   9.196
 6426WAT      O19519   3.783   8.558   2.664
 6426WAT     H119520   3.873   8.528   2.634
 6426WAT     H219521   3.769   8.531   2.759
 6427WAT      O19522   2.013   9.513   3.394
 6427WAT     H119523   1.958   9.489   3.314
 6427WAT     H219524   1.966   9.481   3.477
 6428WAT      O19525   9.808   8.945   1.268
 6428WAT     H119526   9.716   8.984   1.265
 6428WAT     H219527   9.836   8.933   1.363
 6429WAT      O19528   5.628   7.233   9.348
 6429WAT     H119529   5.528   7.228   9.340
 6429WAT     H219530   5.657   7.328   9.333
 6430WAT      O19531   6.572   7.603   0.963
 6430WAT     H119532   6.660   7.559   0.948
 6430WAT     H219533   6.500   7.550   0.918
 6431WAT      O19534   0.609   3.270   6.287
 6431WAT     H119535   0.620   3.295   6.191
 6431WAT     H219536   0.686   3.213   6.316
 6432WAT      O19537   6.757   7.171   3.793
 6432WAT     H119538   6.853   7.142   3.789
 6432WAT     H219539   6.713   7.152   3.705
 6433WAT      O19540   4.909   0.850   0.734
 6433WAT     H119541   4.853   0.830   0.814
 6433WAT     H219542   4.971   0.773   0.717
 6434WAT      O19543   4.619   1.617   1.521
 6434WAT     H119544   4.585   1.524   1.533
 6434WAT     H219545   4.583   1.676   1.594
 6435WAT      O19546   1.655   6.181   2.455
 6435WAT     H119547   1.602   6.228   2.385
 6435WAT     H219548   1.751   6.176   2.427
 6436WAT      O19549   6.617   0.545   5.193
 6436WAT     H119550   6.607   0.644   5.206
 6436WAT     H219551   6.643   0.503   5.280
 6437WAT      O19552   0.154   3.244   4.607
 6437WAT     H119553   0.180   3.299   4.686
 6437WAT     H219554   0.188   3.151   4.618
 6438WAT      O19555   7.851   1.781   8.282
 6438WAT     H119556   7.822   1.864   8.330
 6438WAT     H219557   7.939   1.796   8.239
 6439WAT      O19558   3.600   3.116   3.118
 6439WAT     H119559   3.540   3.196   3.119
 6439WAT     H219560   3.695   3.146   3.130
 6440WAT      O19561   4.516   0.196   1.702
 6440WAT     H119562   4.520   0.238   1.612
 6440WAT     H219563   4.456   0.116   1.700
 6441WAT      O19564   1.274   0.090   5.830
 6441WAT     H119565   1.254  -0.005   5.805
 6441WAT     H219566   1.350   0.092   5.894
 6442WAT      O19567   2.260   6.739   0.255
 6442WAT     H119568   2.319   6.807   0.298
 6442WAT     H219569   2.314   6.658   0.232
 6443WAT      O19570   8.438   5.861   1.745
 6443WAT     H119571   8.528   5.856   1.701
 6443WAT     H219572   8.408   5.956   1.749
 6444WAT      O19573   0.327   8.761   4.893
 6444WAT     H119574   0.380   8.846   4.895
 6444WAT     H219575   0.240   8.776   4.941
 6445WAT      O19576   1.644   8.486   9.092
 6445WAT     H119577   1.645   8.578   9.131
 6445WAT     H219578   1.731   8.440   9.111
 6446WAT      O19579   6.504   2.050   0.958
 6446WAT     H119580   6.492   2.132   0.903
 6446WAT     H219581   6.416   2.021   0.995
 6447WAT      O19582   6.294   8.107   0.314
 6447WAT     H119583   6.213   8.048   0.310
 6447WAT     H219584   6.310   8.134   0.409
 6448WAT      O19585   4.026   0.472   5.035
 6448WAT     H119586   4.009   0.437   4.944
 6448WAT     H219587   3.980   0.561   5.046
 6449WAT      O19588   8.928   9.273   3.008
 6449WAT     H119589   8.835   9.311   3.009
 6449WAT     H219590   8.953   9.246   3.101
 6450WAT      O19591   5.955   8.368   1.689
 6450WAT     H119592   5.878   8.341   1.747
 6450WAT     H219593   5.985   8.291   1.634
 6451WAT      O19594   1.417   0.970   3.745
 6451WAT     H119595   1.414   1.063   3.711
 6451WAT     H219596   1.505   0.954   3.792
 6452WAT      O19597   3.128   9.479   1.438
 6452WAT     H119598   3.060   9.511   1.372
 6452WAT     H219599   3.208   9.538   1.436
 6453WAT      O19600   2.514   7.252   7.183
 6453WAT     H119601   2.469   7.235   7.271
 6453WAT     H219602   2.446   7.269   7.113
 6454WAT      O19603   7.363   7.789   7.804
 6454WAT     H119604   7.384   7.731   7.725
 6454WAT     H219605   7.267   7.778   7.829
 6455WAT      O19606   9.369   2.079   8.760
 6455WAT     H119607   9.357   2.107   8.665
 6455WAT     H219608   9.457   2.112   8.794
 6456WAT      O19609   7.256   4.592   9.228
 6456WAT     H119610   7.288   4.613   9.320
 6456WAT     H219611   7.231   4.495   9.222
 6457WAT      O19612   5.988   4.121   5.197
 6457WAT     H119613   5.981   4.219   5.213
 6457WAT     H219614   6.003   4.075   5.285
 6458WAT      O19615   1.224   8.064   1.758
 6458WAT     H119616   1.307   8.039   1.807
 6458WAT     H219617   1.172   7.981   1.735
 6459WAT      O19618   4.556   5.327   2.307
 6459WAT     H119619   4.474   5.350   2.360
 6459WAT     H219620   4.614   5.265   2.361
 6460WAT      O19621   9.385   3.203   3.659
 6460WAT     H119622   9.294   3.209   3.701
 6460WAT     H219623   9.447   3.266   3.705
 6461WAT      O19624   1.675   1.085   7.324
 6461WAT     H119625   1.722   1.151   7.383
 6461WAT     H219626   1.729   1.001   7.318
 6462WAT      O19627   1.158   6.124   7.558
 6462WAT     H119628   1.128   6.107   7.464
 6462WAT     H219629   1.201   6.042   7.594
 6463WAT      O19630   0.880   9.153   9.024
 6463WAT     H119631   0.788   9.169   8.987
 6463WAT     H219632   0.907   9.232   9.079
 6464WAT      O19633   0.395   4.081   8.126
 6464WAT     H119634   0.381   4.158   8.063
 6464WAT     H219635   0.347   4.099   8.212
 6465WAT      O19636   5.172   2.666   5.017
 6465WAT     H119637   5.164   2.579   4.968
 6465WAT     H219638   5.125   2.658   5.105
 6466WAT      O19639   1.822   7.973   5.135
 6466WAT     H119640   1.780   8.054   5.093
 6466WAT     H219641   1.921   7.982   5.131
 6467WAT      O19642   9.499   4.008   6.252
 6467WAT     H119643   9.505   4.083   6.318
 6467WAT     H219644   9.591   3.972   6.234
 6468WAT      O19645   5.526   8.604   5.443
 6468WAT     H119646   5.603   8.586   5.382
 6468WAT     H219647   5.549   8.574   5.535
 6469WAT      O19648   1.145   0.370   4.937
 6469WAT     H119649   1.215   0.431   4.901
 6469WAT     H219650   1.082   0.422   4.995
 6470WAT      O19651   4.062   8.332   2.057
 6470WAT     H119652   4.116   8.285   2.127
 6470WAT     H219653   3.966   8.307   2.066
 6471WAT      O19654   3.471   1.837   0.745
 6471WAT     H119655   3.470   1.742   0.778
 6471WAT     H219656   3.533   1.844   0.666
 6472WAT      O19657   8.415   6.178   8.428
 6472WAT     H119658   8.336   6.184   8.489
 6472WAT     H219659   8.490   6.133   8.475
 6473WAT      O19660   0.928   3.169   4.529
 6473WAT     H119661   0.880   3.216   4.602
 6473WAT     H219662   1.027   3.180   4.542
 6474WAT      O19663   2.740   1.987   9.750
 6474WAT     H119664   2.815   1.972   9.686
 6474WAT     H219665   2.747   2.079   9.788
 6475WAT      O19666   9.395   3.877   1.615
 6475WAT     H119667   9.444   3.961   1.638
 6475WAT     H219668   9.371   3.828   1.699
 6476WAT      O19669   7.054   0.298   1.055
 6476WAT     H119670   7.070   0.213   1.006
 6476WAT     H219671   7.003   0.279   1.140
 6477WAT      O19672   5.978   2.930   6.997
 6477WAT     H119673   5.980   2.994   6.920
 6477WAT     H219674   5.928   2.971   7.073
 6478WAT      O19675   9.054   5.196   1.798
 6478WAT     H119676   9.007   5.123   1.848
 6478WAT     H219677   8.989   5.244   1.739
 6479WAT      O19678   2.692   8.753   2.734
 6479WAT     H119679   2.638   8.672   2.712
 6479WAT     H219680   2.751   8.734   2.812
 6480WAT      O19681   5.771   1.736   6.653
 6480WAT     H119682   5.782   1.743   6.753
 6480WAT     H219683   5.749   1.827   6.617
 6481WAT      O19684   8.929   5.699   7.685
 6481WAT     H119685   9.024   5.670   7.681
 6481WAT     H219686   8.874   5.629   7.731
 6482WAT      O19687   7.208   8.781   7.844
 6482WAT     H119688   7.135   8.825   7.896
 6482WAT     H219689   7.210   8.683   7.867
 6483WAT      O19690   7.578   7.427   5.531
 6483WAT     H119691   7.676   7.412   5.536
 6483WAT     H219692   7.559   7.504   5.470
 6484WAT      O19693   1.299   7.587   4.385
 6484WAT     H119694   1.255   7.644   4.454
 6484WAT     H219695   1.234   7.520   4.349
 6485WAT      O19696   3.288   6.965   1.245
 6485WAT     H119697   3.231   7.047   1.243
 6485WAT     H219698   3.229   6.884   1.249
 6486WAT      O19699   6.636   3.937   8.061
 6486WAT     H119700   6.611   3.969   7.970
 6486WAT     H219701   6.580   3.982   8.130
 6487WAT      O19702   7.983   4.576   4.649
 6487WAT     H119703   8.004   4.480   4.634
 6487WAT     H219704   7.926   4.610   4.573
 6488WAT      O19705   2.599   0.975   9.054
 6488WAT     H119706   2.500   0.988   9.056
 6488WAT     H219707   2.626   0.916   9.130
 6489WAT      O19708   0.336   8.212   9.788
 6489WAT     H119709   0.419   8.259   9.755
 6489WAT     H219710   0.355   8.114   9.796
 6490WAT      O19711   8.706   4.845   5.687
 6490WAT     H119712   8.694   4.898   5.603
 6490WAT     H219713   8.655   4.888   5.762
 6491WAT      O19714   1.968   7.985   0.866
 6491WAT     H119715   1.920   7.994   0.778
 6491WAT     H219716   2.008   7.893   0.872
 6492WAT      O19717   0.381   2.901   1.760
 6492WAT     H119718   0.452   2.873   1.696
 6492WAT     H219719   0.302   2.934   1.709
 6493WAT      O19720   6.274   0.582   0.585
 6493WAT     H119721   6.290   0.485   0.597
 6493WAT     H219722   6.356   0.625   0.546
 6494WAT      O19723   6.704   4.070   3.598
 6494WAT     H119724   6.691   4.046   3.694
 6494WAT     H219725   6.752   4.157   3.591
 6495WAT      O19726   8.933   3.364   5.498
 6495WAT     H119727   8.877   3.291   5.458
 6495WAT     H219728   9.028   3.354   5.466
 6496WAT      O19729   3.622   7.009   8.735
 6496WAT     H119730   3.578   6.964   8.813
 6496WAT     H219731   3.600   7.107   8.737
 6497WAT      O19732   8.105   8.547   7.157
 6497WAT     H119733   8.153   8.554   7.069
 6497WAT     H219734   8.171   8.528   7.229
 6498WAT      O19735   2.740   3.878   6.121
 6498WAT     H119736   2.791   3.886   6.036
 6498WAT     H219737   2.725   3.782   6.142
 6499WAT      O19738   2.323   1.770   8.910
 6499WAT     H119739   2.418   1.761   8.882
 6499WAT     H219740   2.299   1.867   8.914
 6500WAT      O19741   7.559   4.145   0.493
 6500WAT     H119742   7.629   4.078   0.467
 6500WAT     H219743   7.601   4.221   0.541
 6501WAT      O19744   6.531   1.368   9.710
 6501WAT     H119745   6.456   1.304   9.693
 6501WAT     H219746   6.597   1.363   9.635
 6502WAT      O19747   8.181   2.213   0.415
 6502WAT     H119748   8.244   2.141   0.384
 6502WAT     H219749   8.139   2.256   0.335
 6503WAT      O19750   3.221   5.520   7.844
 6503WAT     H119751   3.135   5.529   7.795
 6503WAT     H219752   3.297   5.546   7.785
 6504WAT      O19753   1.274   6.283   9.832
 6504WAT     H119754   1.294   6.302   9.928
 6504WAT     H219755   1.186   6.325   9.809
 6505WAT      O19756   6.168   9.701   1.231
 6505WAT     H119757   6.181   9.700   1.131
 6505WAT     H219758   6.257   9.703   1.276
 6506WAT      O19759   8.024   5.778   3.835
 6506WAT     H119760   7.932   5.745   3.812
 6506WAT     H219761   8.028   5.877   3.822
 6507WAT      O19762   1.201   6.946   6.529
 6507WAT     H119763   1.170   6.857   6.495
 6507WAT     H219764   1.256   6.990   6.458
 6508WAT      O19765   1.088   2.771   3.078
 6508WAT     H119766   0.992   2.789   3.101
 6508WAT     H219767   1.129   2.713   3.149
 6509WAT      O19768   8.428   7.945   7.448
 6509WAT     H119769   8.399   7.986   7.361
 6509WAT     H219770   8.460   7.851   7.431
 6510WAT      O19771   7.997   1.904   1.975
 6510WAT     H119772   7.965   1.854   1.895
 6510WAT     H219773   7.968   1.856   2.058
 6511WAT      O19774   8.618   3.049   8.932
 6511WAT     H119775   8.657   3.059   9.024
 6511WAT     H219776   8.668   3.108   8.868
 6512WAT      O19777   9.331   9.590   0.831
 6512WAT     H119778   9.408   9.648   0.858
 6512WAT     H219779   9.327   9.583   0.731
 6513WAT      O19780   3.797   6.641   1.560
 6513WAT     H119781   3.783   6.549   1.522
 6513WAT     H219782   3.859   6.636   1.638
 6514WAT      O19783   4.803   5.870   8.118
 6514WAT     H119784   4.892   5.916   8.118
 6514WAT     H219785   4.802   5.797   8.050
 6515WAT      O19786   1.553   2.835   8.051
 6515WAT     H119787   1.525   2.826   8.147
 6515WAT     H219788   1.502   2.909   8.008
 6516WAT      O19789   7.897   1.539   0.828
 6516WAT     H119790   7.894   1.453   0.880
 6516WAT     H219791   7.945   1.525   0.742
 6517WAT      O19792   5.467   5.082   4.669
 6517WAT     H119793   5.469   5.056   4.765
 6517WAT     H219794   5.486   5.180   4.661
 6518WAT      O19795   4.328   1.806   6.233
 6518WAT     H119796   4.314   1.871   6.159
 6518WAT     H219797   4.416   1.761   6.221
 6519WAT      O19798   5.054   0.930   8.504
 6519WAT     H119799   4.966   0.891   8.528
 6519WAT     H219800   5.080   0.998   8.573
 6520WAT      O19801   2.848   8.149   5.710
 6520WAT     H119802   2.906   8.111   5.638
 6520WAT     H219803   2.890   8.133   5.799
 6521WAT      O19804   8.455   0.722   7.690
 6521WAT     H119805   8.464   0.634   7.738
 6521WAT     H219806   8.527   0.729   7.621
 6522WAT      O19807   2.553   5.878   0.692
 6522WAT     H119808   2.579   5.963   0.738
 6522WAT     H219809   2.560   5.802   0.756
 6523WAT      O19810   7.281   9.501   1.087
 6523WAT     H119811   7.316   9.448   1.165
 6523WAT     H219812   7.356   9.517   1.023
 6524WAT      O19813   0.131   3.218   7.805
 6524WAT     H119814   0.100   3.185   7.894
 6524WAT     H219815   0.211   3.276   7.817
 6525WAT      O19816   2.266   6.120   9.890
 6525WAT     H119817   2.258   6.021   9.899
 6525WAT     H219818   2.357   6.143   9.855
 6526WAT      O19819   7.467   9.790   2.686
 6526WAT     H119820   7.414   9.849   2.625
 6526WAT     H219821   7.551   9.838   2.713
 6527WAT      O19822   1.251   9.756   0.575
 6527WAT     H119823   1.241   9.729   0.671
 6527WAT     H219824   1.298   9.684   0.524
 6528WAT      O19825   6.726   0.795   7.817
 6528WAT     H119826   6.768   0.740   7.889
 6528WAT     H219827   6.659   0.857   7.857
 6529WAT      O19828   4.417   3.517   0.166
 6529WAT     H119829   4.400   3.588   0.235
 6529WAT     H219830   4.472   3.444   0.206
 6530WAT      O19831   6.707   1.595   2.923
 6530WAT     H119832   6.713   1.513   2.865
 6530WAT     H219833   6.626   1.590   2.980
 6531WAT      O19834   7.837   8.165   4.016
 6531WAT     H119835   7.840   8.065   4.022
 6531WAT     H219836   7.842   8.204   4.107
 6532WAT      O19837   9.341   9.296   9.381
 6532WAT     H119838   9.370   9.222   9.320
 6532WAT     H219839   9.270   9.262   9.443
 6533WAT      O19840   5.253   1.962   4.630
 6533WAT     H119841   5.192   2.014   4.572
 6533WAT     H219842   5.203   1.886   4.673
 6534WAT      O19843   5.709   9.147   4.934
 6534WAT     H119844   5.707   9.239   4.974
 6534WAT     H219845   5.677   9.152   4.839
 6535WAT      O19846   0.146   3.660   9.025
 6535WAT     H119847   0.210   3.625   9.093
 6535WAT     H219848   0.064   3.604   9.023
 6536WAT      O19849   2.260   4.367   5.060
 6536WAT     H119850   2.327   4.359   4.986
 6536WAT     H219851   2.291   4.314   5.139
 6537WAT      O19852   9.498   7.633   5.693
 6537WAT     H119853   9.493   7.615   5.595
 6537WAT     H219854   9.418   7.592   5.738
 6538WAT      O19855   6.499   3.606   1.785
 6538WAT     H119856   6.502   3.661   1.702
 6538WAT     H219857   6.430   3.534   1.776
 6539WAT      O19858   2.388   7.312   2.884
 6539WAT     H119859   2.320   7.341   2.816
 6539WAT     H219860   2.346   7.247   2.947
 6540WAT      O19861   1.840   2.983   6.970
 6540WAT     H119862   1.750   2.996   7.011
 6540WAT     H219863   1.832   2.930   6.886
 6541WAT      O19864   1.605   5.900   8.408
 6541WAT     H119865   1.556   5.823   8.367
 6541WAT     H219866   1.543   5.951   8.467
 6542WAT      O19867   2.016   0.958   7.069
 6542WAT     H119868   1.929   1.003   7.049
 6542WAT     H219869   2.012   0.862   7.043
 6543WAT      O19870   6.258   6.320   5.278
 6543WAT     H119871   6.255   6.285   5.185
 6543WAT     H219872   6.171   6.302   5.324
 6544WAT      O19873   0.373   1.596   4.314
 6544WAT     H119874   0.296   1.532   4.309
 6544WAT     H219875   0.341   1.684   4.349
 6545WAT      O19876   0.957   0.128   8.228
 6545WAT     H119877   1.055   0.149   8.223
 6545WAT     H219878   0.937   0.082   8.314
 6546WAT      O19879   3.175   4.700   6.479
 6546WAT     H119880   3.266   4.728   6.449
 6546WAT     H219881   3.107   4.735   6.416
 6547WAT      O19882   2.206   6.203   9.211
 6547WAT     H119883   2.167   6.187   9.302
 6547WAT     H219884   2.203   6.301   9.190
 6548WAT      O19885   7.592   6.510   6.610
 6548WAT     H119886   7.659   6.497   6.683
 6548WAT     H219887   7.639   6.534   6.525
 6549WAT      O19888   8.823   5.906   5.306
 6549WAT     H119889   8.857   5.884   5.214
 6549WAT     H219890   8.871   5.850   5.373
 6550WAT      O19891   4.807   8.247   4.109
 6550WAT     H119892   4.766   8.181   4.046
 6550WAT     H219893   4.738   8.313   4.138
 6551WAT      O19894   5.603   2.629   0.162
 6551WAT     H119895   5.685   2.573   0.156
 6551WAT     H219896   5.585   2.651   0.258
 6552WAT      O19897   2.330   8.357   8.317
 6552WAT     H119898   2.352   8.362   8.414
 6552WAT     H219899   2.386   8.286   8.274
 6553WAT      O19900   2.705   2.256   0.005
 6553WAT     H119901   2.797   2.295   0.002
 6553WAT     H219902   2.656   2.279  -0.079
 6554WAT      O19903   0.713   5.919   3.287
 6554WAT     H119904   0.720   5.823   3.262
 6554WAT     H219905   0.730   5.976   3.207
 6555WAT      O19906   6.681   5.919   5.684
 6555WAT     H119907   6.666   6.000   5.741
 6555WAT     H219908   6.593   5.879   5.660
 6556WAT      O19909   8.059   0.189   8.943
 6556WAT     H119910   8.007   0.108   8.971
 6556WAT     H219911   8.152   0.162   8.920
 6557WAT      O19912   1.214   0.813   3.774
 6557WAT     H119913   1.281   0.881   3.745
 6557WAT     H219914   1.216   0.806   3.874
 6558WAT      O19915   7.634   9.118   1.546
 6558WAT     H119916   7.724   9.144   1.513
 6558WAT     H219917   7.585   9.200   1.576
 6559WAT      O19918   2.956   3.143   5.253
 6559WAT     H119919   2.913   3.205   5.188
 6559WAT     H219920   3.032   3.189   5.298
 6560WAT      O19921   1.832   9.766   4.712
 6560WAT     H119922   1.931   9.777   4.708
 6560WAT     H219923   1.798   9.801   4.800
 6561WAT      O19924   5.607   8.852   9.117
 6561WAT     H119925   5.610   8.802   9.030
 6561WAT     H219926   5.637   8.946   9.102
 6562WAT      O19927   2.989   7.466   8.295
 6562WAT     H119928   2.948   7.436   8.382
 6562WAT     H219929   2.988   7.390   8.230
 6563WAT      O19930   0.304   7.496   6.522
 6563WAT     H119931   0.257   7.506   6.434
 6563WAT     H219932   0.347   7.406   6.527
 6564WAT      O19933   1.184   4.147   8.856
 6564WAT     H119934   1.269   4.100   8.831
 6564WAT     H219935   1.108   4.111   8.801
 6565WAT      O19936   3.666   8.933   3.306
 6565WAT     H119937   3.586   8.898   3.354
 6565WAT     H219938   3.678   8.884   3.220
 6566WAT      O19939   4.849   7.225   6.532
 6566WAT     H119940   4.929   7.179   6.493
 6566WAT     H219941   4.856   7.225   6.632
 6567WAT      O19942   9.313   1.646   8.473
 6567WAT     H119943   9.258   1.563   8.479
 6567WAT     H219944   9.284   1.710   8.544
 6568WAT      O19945   6.962   0.810   8.852
 6568WAT     H119946   6.880   0.754   8.859
 6568WAT     H219947   7.038   0.765   8.899
 6569WAT      O19948   2.118   2.339   0.422
 6569WAT     H119949   2.050   2.277   0.461
 6569WAT     H219950   2.209   2.312   0.452
 6570WAT      O19951   7.252   2.902   0.561
 6570WAT     H119952   7.225   2.952   0.643
 6570WAT     H219953   7.172   2.861   0.519
 6571WAT      O19954   5.401   0.466   9.392
 6571WAT     H119955   5.481   0.418   9.428
 6571WAT     H219956   5.399   0.559   9.429
 6572WAT      O19957   7.538   2.264   9.223
 6572WAT     H119958   7.611   2.258   9.155
 6572WAT     H219959   7.550   2.348   9.276
 6573WAT      O19960   7.203   7.618   1.652
 6573WAT     H119961   7.301   7.609   1.671
 6573WAT     H219962   7.184   7.712   1.622
 6574WAT      O19963   0.077   6.236   5.786
 6574WAT     H119964   0.175   6.248   5.769
 6574WAT     H219965   0.057   6.260   5.881
 6575WAT      O19966   4.063   7.004   9.403
 6575WAT     H119967   4.100   6.995   9.310
 6575WAT     H219968   4.019   7.093   9.412
 6576WAT      O19969   1.720   2.108   2.031
 6576WAT     H119970   1.712   2.202   2.064
 6576WAT     H219971   1.757   2.050   2.103
 6577WAT      O19972   2.886   2.417   8.597
 6577WAT     H119973   2.869   2.409   8.695
 6577WAT     H219974   2.853   2.334   8.551
 6578WAT      O19975   2.179   9.783   2.760
 6578WAT     H119976   2.169   9.851   2.687
 6578WAT     H219977   2.206   9.829   2.845
 6579WAT      O19978   2.844   6.401   4.832
 6579WAT     H119979   2.913   6.421   4.763
 6579WAT     H219980   2.872   6.320   4.884
 6580WAT      O19981   6.569   6.832   8.518
 6580WAT     H119982   6.580   6.733   8.527
 6580WAT     H219983   6.545   6.855   8.424
 6581WAT      O19984   7.304   9.305   9.757
 6581WAT     H119985   7.357   9.280   9.676
 6581WAT     H219986   7.359   9.366   9.815
 6582WAT      O19987   6.789   7.940   1.134
 6582WAT     H119988   6.790   7.843   1.158
 6582WAT     H219989   6.773   7.995   1.216
 6583WAT      O19990   0.878   3.190   6.596
 6583WAT     H119991   0.916   3.161   6.508
 6583WAT     H219992   0.819   3.117   6.632
 6584WAT      O19993   5.990   6.464   3.547
 6584WAT     H119994   6.058   6.466   3.621
 6584WAT     H219995   6.035   6.434   3.463
 6585WAT      O19996   3.815   3.185   6.445
 6585WAT     H119997   3.821   3.241   6.362
 6585WAT     H219998   3.762   3.103   6.427
 6586WAT      O19999   0.736   7.114   1.704
 6586WAT     H120000   0.653   7.162   1.732
 6586WAT     H220001   0.755   7.131   1.608
 6587WAT      O20002   1.332   8.626   3.445
 6587WAT     H120003   1.410   8.649   3.502
 6587WAT     H220004   1.363   8.605   3.353
 6588WAT      O20005   9.385   4.887   7.718
 6588WAT     H120006   9.453   4.868   7.648
 6588WAT     H220007   9.294   4.865   7.682
 6589WAT      O20008   1.938   3.180   4.064
 6589WAT     H120009   1.902   3.100   4.111
 6589WAT     H220010   1.979   3.152   3.977
 6590WAT      O20011   5.212   1.606   0.330
 6590WAT     H120012   5.118   1.630   0.352
 6590WAT     H220013   5.219   1.587   0.232
 6591WAT      O20014   2.546   2.236   9.497
 6591WAT     H120015   2.558   2.305   9.568
 6591WAT     H220016   2.467   2.259   9.441
 6592WAT      O20017   1.014   6.346   8.184
 6592WAT     H120018   1.085   6.414   8.164
 6592WAT     H220019   1.057   6.258   8.204
 6593WAT      O20020   8.985   0.863   1.425
 6593WAT     H120021   8.990   0.810   1.510
 6593WAT     H220022   8.905   0.834   1.373
 6594WAT      O20023   8.404   1.028   8.056
 6594WAT     H120024   8.416   1.060   8.150
 6594WAT     H220025   8.340   0.952   8.055
 6595WAT      O20026   0.288   4.266   7.447
 6595WAT     H120027   0.200   4.221   7.460
 6595WAT     H220028   0.288   4.316   7.361
 6596WAT      O20029   2.436   0.831   7.125
 6596WAT     H120030   2.481   0.879   7.049
 6596WAT     H220031   2.485   0.747   7.146
 6597WAT      O20032   3.271   9.364   6.904
 6597WAT     H120033   3.253   9.294   6.835
 6597WAT     H220034   3.358   9.410   6.884
 6598WAT      O20035   3.178   1.817   8.910
 6598WAT     H120036   3.181   1.780   9.003
 6598WAT     H220037   3.121   1.899   8.908
 6599WAT      O20038   4.447   3.263   6.669
 6599WAT     H120039   4.545   3.258   6.690
 6599WAT     H220040   4.433   3.316   6.586
 6600WAT      O20041   9.847   8.876   2.154
 6600WAT     H120042   9.813   8.895   2.062
 6600WAT     H220043   9.926   8.935   2.174
 6601WAT      O20044   9.293   5.175   2.097
 6601WAT     H120045   9.365   5.140   2.157
 6601WAT     H220046   9.301   5.133   2.007
 6602WAT      O20047   6.107   5.043   5.911
 6602WAT     H120048   6.023   5.028   5.859
 6602WAT     H220049   6.087   5.039   6.009
 6603WAT      O20050   8.193   3.819   8.369
 6603WAT     H120051   8.096   3.833   8.348
 6603WAT     H220052   8.206   3.727   8.405
 6604WAT      O20053   6.754   7.673   1.735
 6604WAT     H120054   6.831   7.648   1.794
 6604WAT     H220055   6.675   7.616   1.756
 6605WAT      O20056   5.302   8.423   5.741
 6605WAT     H120057   5.345   8.513   5.738
 6605WAT     H220058   5.371   8.354   5.764
 6606WAT      O20059   6.713   0.043   1.921
 6606WAT     H120060   6.759   0.094   1.993
 6606WAT     H220061   6.711   0.097   1.837
 6607WAT      O20062   1.072   7.228   4.947
 6607WAT     H120063   1.156   7.257   4.993
 6607WAT     H220064   1.095   7.172   4.868
 6608WAT      O20065   6.970   7.177   4.248
 6608WAT     H120066   6.935   7.255   4.196
 6608WAT     H220067   6.893   7.116   4.271
 6609WAT      O20068   2.542   9.260   7.547
 6609WAT     H120069   2.476   9.193   7.580
 6609WAT     H220070   2.635   9.226   7.561
 6610WAT      O20071   3.882   4.463   9.369
 6610WAT     H120072   3.967   4.473   9.317
 6610WAT     H220073   3.904   4.455   9.466
 6611WAT      O20074   6.196   9.802   0.547
 6611WAT     H120075   6.134   9.879   0.565
 6611WAT     H220076   6.212   9.753   0.632
 6612WAT      O20077   1.891   5.479   4.178
 6612WAT     H120078   1.879   5.539   4.099
 6612WAT     H220079   1.978   5.498   4.222
 6613WAT      O20080   8.994   6.226   7.925
 6613WAT     H120081   8.920   6.222   7.858
 6613WAT     H220082   9.080   6.201   7.882
 6614WAT      O20083   2.090   8.277   0.229
 6614WAT     H120084   2.157   8.314   0.164
 6614WAT     H220085   2.139   8.245   0.311
 6615WAT      O20086   1.162   4.739   3.279
 6615WAT     H120087   1.111   4.660   3.245
 6615WAT     H220088   1.160   4.740   3.379
 6616WAT      O20089   8.364   6.059   4.889
 6616WAT     H120090   8.445   6.067   4.831
 6616WAT     H220091   8.392   6.031   4.981
 6617WAT      O20092   0.384   0.488   5.361
 6617WAT     H120093   0.399   0.431   5.443
 6617WAT     H220094   0.286   0.493   5.342
 6618WAT      O20095   0.858   5.238   8.328
 6618WAT     H120096   0.947   5.232   8.281
 6618WAT     H220097   0.861   5.313   8.394
 6619WAT      O20098   4.168   7.753   3.966
 6619WAT     H120099   4.168   7.744   4.066
 6619WAT     H220100   4.258   7.783   3.935
 6620WAT      O20101   3.879   7.273   4.630
 6620WAT     H120102   3.813   7.325   4.684
 6620WAT     H220103   3.924   7.205   4.688
 6621WAT      O20104   7.164   2.091   0.221
 6621WAT     H120105   7.249   2.076   0.271
 6621WAT     H220106   7.105   2.154   0.272
 6622WAT      O20107   0.182   1.035   7.214
 6622WAT     H120108   0.172   1.066   7.308
 6622WAT     H220109   0.262   1.079   7.173
 6623WAT      O20110   1.875   6.513   0.135
 6623WAT     H120111   1.794   6.517   0.076
 6623WAT     H220112   1.872   6.589   0.201
 6624WAT      O20113   6.397   4.496   6.835
 6624WAT     H120114   6.457   4.431   6.788
 6624WAT     H220115   6.385   4.466   6.930
 6625WAT      O20116   4.363   1.935   7.502
 6625WAT     H120117   4.287   1.969   7.446
 6625WAT     H220118   4.379   1.999   7.577
 6626WAT      O20119   5.590   7.298   5.804
 6626WAT     H120120   5.559   7.254   5.888
 6626WAT     H220121   5.636   7.230   5.747
 6627WAT      O20122   1.954   2.884   9.631
 6627WAT     H120123   1.870   2.830   9.643
 6627WAT     H220124   1.982   2.882   9.535
 6628WAT      O20125   3.355   3.453   0.687
 6628WAT     H120126   3.404   3.523   0.738
 6628WAT     H220127   3.388   3.451   0.592
 6629WAT      O20128   4.598   2.556   0.085
 6629WAT     H120129   4.544   2.545   0.001
 6629WAT     H220130   4.538   2.550   0.164
 6630WAT      O20131   7.227   5.599   9.295
 6630WAT     H120132   7.283   5.655   9.234
 6630WAT     H220133   7.239   5.502   9.271
 6631WAT      O20134   5.991   1.378   8.145
 6631WAT     H120135   5.902   1.384   8.099
 6631WAT     H220136   6.029   1.287   8.131
 6632WAT      O20137   6.233   7.793   2.762
 6632WAT     H120138   6.247   7.889   2.738
 6632WAT     H220139   6.149   7.783   2.816
 6633WAT      O20140   9.504   4.787   0.413
 6633WAT     H120141   9.560   4.734   0.349
 6633WAT     H220142   9.491   4.879   0.377
 6634WAT      O20143   2.274   0.211   4.145
 6634WAT     H120144   2.302   0.173   4.234
 6634WAT     H220145   2.176   0.195   4.132
 6635WAT      O20146   5.026   0.122   8.957
 6635WAT     H120147   5.121   0.090   8.950
 6635WAT     H220148   4.991   0.144   8.866
 6636WAT      O20149   3.193   2.338   0.130
 6636WAT     H120150   3.253   2.291   0.194
 6636WAT     H220151   3.208   2.437   0.137
 6637WAT      O20152   0.378   9.298   2.155
 6637WAT     H120153   0.294   9.249   2.130
 6637WAT     H220154   0.358   9.364   2.227
 6638WAT      O20155   8.271   9.325   1.592
 6638WAT     H120156   8.331   9.261   1.544
 6638WAT     H220157   8.198   9.354   1.531
 6639WAT      O20158   9.586   5.263   5.037
 6639WAT     H120159   9.673   5.299   5.069
 6639WAT     H220160   9.515   5.277   5.107
 6640WAT      O20161   3.762   4.915   1.321
 6640WAT     H120162   3.802   4.988   1.265
 6640WAT     H220163   3.669   4.940   1.348
 6641WAT      O20164   0.095   5.006   6.104
 6641WAT     H120165   0.020   4.942   6.091
 6641WAT     H220166   0.127   5.001   6.198
 6642WAT      O20167   7.252   6.308   5.098
 6642WAT     H120168   7.308   6.245   5.045
 6642WAT     H220169   7.221   6.263   5.182
 6643WAT      O20170   5.045   3.736   0.261
 6643WAT     H120171   5.088   3.646   0.254
 6643WAT     H220172   5.103   3.795   0.318
 6644WAT      O20173   3.168   2.611   0.134
 6644WAT     H120174   3.214   2.676   0.073
 6644WAT     H220175   3.069   2.628   0.132
 6645WAT      O20176   8.743   2.698   4.149
 6645WAT     H120177   8.770   2.631   4.079
 6645WAT     H220178   8.821   2.717   4.208
 6646WAT      O20179   0.285   5.427   5.922
 6646WAT     H120180   0.228   5.488   5.866
 6646WAT     H220181   0.225   5.364   5.972
 6647WAT      O20182   1.343   5.470   3.076
 6647WAT     H120183   1.424   5.510   3.118
 6647WAT     H220184   1.354   5.468   2.977
 6648WAT      O20185   1.467   2.859   4.140
 6648WAT     H120186   1.471   2.945   4.191
 6648WAT     H220187   1.417   2.873   4.054
 6649WAT      O20188   0.030   8.758   6.036
 6649WAT     H120189   0.006   8.758   5.939
 6649WAT     H220190   0.023   8.851   6.072
 6650WAT      O20191   4.985   7.641   5.341
 6650WAT     H120192   4.972   7.728   5.389
 6650WAT     H220193   5.080   7.635   5.310
 6651WAT      O20194   0.914   1.577   9.520
 6651WAT     H120195   0.949   1.579   9.614
 6651WAT     H220196   0.861   1.494   9.507
 6652WAT      O20197   9.683   0.373   8.297
 6652WAT     H120198   9.731   0.287   8.309
 6652WAT     H220199   9.585   0.356   8.289
 6653WAT      O20200   5.260   6.887   5.447
 6653WAT     H120201   5.254   6.875   5.546
 6653WAT     H220202   5.346   6.849   5.414
 6654WAT      O20203   8.036   1.760   7.375
 6654WAT     H120204   7.972   1.704   7.322
 6654WAT     H220205   8.094   1.812   7.312
 6655WAT      O20206   0.009   3.943   7.207
 6655WAT     H120207  -0.028   3.859   7.248
 6655WAT     H220208  -0.020   4.022   7.261
 6656WAT      O20209   7.911   4.059   2.316
 6656WAT     H120210   8.003   4.098   2.322
 6656WAT     H220211   7.853   4.119   2.262
 6657WAT      O20212   2.118   4.625   8.141
 6657WAT     H120213   2.086   4.682   8.217
 6657WAT     H220214   2.178   4.553   8.177
 6658WAT      O20215   7.343   6.932   6.512
 6658WAT     H120216   7.247   6.909   6.494
 6658WAT     H220217   7.385   6.967   6.428
 6659WAT      O20218   4.170   1.334   2.123
 6659WAT     H120219   4.088   1.291   2.161
 6659WAT     H220220   4.229   1.264   2.083
 6660WAT      O20221   7.792   5.707   7.010
 6660WAT     H120222   7.872   5.667   7.055
 6660WAT     H220223   7.820   5.753   6.926
 6661WAT      O20224   3.314   1.418   1.635
 6661WAT     H120225   3.410   1.406   1.607
 6661WAT     H220226   3.279   1.502   1.594
 6662WAT      O20227   8.006   7.535   7.880
 6662WAT     H120228   8.071   7.496   7.816
 6662WAT     H220229   7.923   7.562   7.831
 6663WAT      O20230   0.587   1.722   1.625
 6663WAT     H120231   0.619   1.744   1.717
 6663WAT     H220232   0.523   1.645   1.630
 6664WAT      O20233   4.731   8.340   6.580
 6664WAT     H120234   4.632   8.331   6.592
 6664WAT     H220235   4.754   8.436   6.564
 6665WAT      O20236   6.224   8.026   9.398
 6665WAT     H120237   6.225   7.940   9.346
 6665WAT     H220238   6.146   8.082   9.369
 6666WAT      O20239   4.671   2.954   5.207
 6666WAT     H120240   4.674   3.011   5.125
 6666WAT     H220241   4.763   2.944   5.244
 6667WAT      O20242   4.185   8.097   3.511
 6667WAT     H120243   4.153   8.063   3.599
 6667WAT     H220244   4.170   8.196   3.506
 6668WAT      O20245   8.120   3.833   0.272
 6668WAT     H120246   8.106   3.844   0.173
 6668WAT     H220247   8.033   3.845   0.320
 6669WAT      O20248   1.354   7.574   5.126
 6669WAT     H120249   1.348   7.657   5.070
 6669WAT     H220250   1.333   7.596   5.221
 6670WAT      O20251   5.453   5.581   9.323
 6670WAT     H120252   5.481   5.605   9.230
 6670WAT     H220253   5.477   5.486   9.342
 6671WAT      O20254   6.290   4.400   2.939
 6671WAT     H120255   6.334   4.453   3.010
 6671WAT     H220256   6.352   4.328   2.907
 6672WAT      O20257   2.910   6.750   5.541
 6672WAT     H120258   2.954   6.662   5.523
 6672WAT     H220259   2.900   6.762   5.640
 6673WAT      O20260   0.308   2.942   9.706
 6673WAT     H120261   0.351   2.853   9.690
 6673WAT     H220262   0.330   2.973   9.799
 6674WAT      O20263   7.105   6.397   8.295
 6674WAT     H120264   7.164   6.322   8.267
 6674WAT     H220265   7.130   6.480   8.245
 6675WAT      O20266   4.044   5.803   8.314
 6675WAT     H120267   4.092   5.843   8.236
 6675WAT     H220268   3.959   5.853   8.330
 6676WAT      O20269   2.780   4.747   5.877
 6676WAT     H120270   2.716   4.824   5.862
 6676WAT     H220271   2.867   4.768   5.832
 6677WAT      O20272   0.867   0.038   3.096
 6677WAT     H120273   0.949   0.044   3.153
 6677WAT     H220274   0.799  -0.018   3.142
 6678WAT      O20275   4.477   9.261   9.637
 6678WAT     H120276   4.506   9.204   9.714
 6678WAT     H220277   4.557   9.304   9.596
 6679WAT      O20278   2.479   7.050   9.002
 6679WAT     H120279   2.421   7.116   9.049
 6679WAT     H220280   2.422   6.979   8.959
 6680WAT      O20281   8.226   2.620   1.094
 6680WAT     H120282   8.261   2.688   1.158
 6680WAT     H220283   8.164   2.663   1.029
 6681WAT      O20284   2.334   7.173   6.075
 6681WAT     H120285   2.348   7.101   6.008
 6681WAT     H220286   2.415   7.231   6.080
 6682WAT      O20287   5.919   2.093   5.070
 6682WAT     H120288   5.966   2.057   4.989
 6682WAT     H220289   5.941   2.036   5.149
 6683WAT      O20290   3.230   2.040   2.114
 6683WAT     H120291   3.183   2.056   2.027
 6683WAT     H220292   3.320   2.000   2.097
 6684WAT      O20293   8.499   7.907   3.283
 6684WAT     H120294   8.471   8.001   3.302
 6684WAT     H220295   8.473   7.848   3.359
 6685WAT      O20296   2.891   6.179   3.061
 6685WAT     H120297   2.855   6.132   2.981
 6685WAT     H220298   2.864   6.275   3.058
 6686WAT      O20299   2.866   0.861   2.625
 6686WAT     H120300   2.771   0.883   2.605
 6686WAT     H220301   2.908   0.820   2.544
 6687WAT      O20302   8.694   5.107   6.182
 6687WAT     H120303   8.603   5.116   6.222
 6687WAT     H220304   8.741   5.196   6.184
 6688WAT      O20305   8.179   2.196   3.151
 6688WAT     H120306   8.202   2.246   3.235
 6688WAT     H220307   8.263   2.167   3.106
 6689WAT      O20308   3.169   0.050   5.442
 6689WAT     H120309   3.148  -0.035   5.393
 6689WAT     H220310   3.210   0.116   5.379
 6690WAT      O20311   6.079   1.952   9.143
 6690WAT     H120312   6.061   1.861   9.105
 6690WAT     H220313   6.072   2.020   9.071
 6691WAT      O20314   0.497   8.617   2.991
 6691WAT     H120315   0.477   8.674   3.071
 6691WAT     H220316   0.432   8.541   2.987
 6692WAT      O20317   0.495   4.737   1.054
 6692WAT     H120318   0.427   4.809   1.044
 6692WAT     H220319   0.469   4.657   1.000
 6693WAT      O20320   0.428   6.804   3.957
 6693WAT     H120321   0.481   6.726   3.992
 6693WAT     H220322   0.396   6.783   3.865
 6694WAT      O20323   7.958   2.104   8.361
 6694WAT     H120324   8.013   2.056   8.293
 6694WAT     H220325   7.973   2.203   8.352
 6695WAT      O20326   2.510   0.087   8.948
 6695WAT     H120327   2.536   0.179   8.979
 6695WAT     H220328   2.413   0.086   8.925
 6696WAT      O20329   0.023   3.409   3.637
 6696WAT     H120330   0.079   3.492   3.640
 6696WAT     H220331   0.066   3.337   3.690
 6697WAT      O20332   8.217   1.318   5.612
 6697WAT     H120333   8.129   1.287   5.648
 6697WAT     H220334   8.209   1.413   5.583
 6698WAT      O20335   8.131   3.622   3.166
 6698WAT     H120336   8.184   3.625   3.081
 6698WAT     H220337   8.076   3.704   3.174
 6699WAT      O20338   3.348   2.468   3.525
 6699WAT     H120339   3.426   2.449   3.584
 6699WAT     H220340   3.263   2.456   3.576
 6700WAT      O20341   8.716   8.279   5.982
 6700WAT     H120342   8.816   8.277   5.987
 6700WAT     H220343   8.678   8.247   6.069
 6701WAT      O20344   0.632   0.046   7.894
 6701WAT     H120345   0.693   0.096   7.832
 6701WAT     H220346   0.612  -0.044   7.856
 6702WAT      O20347   3.788   7.248   7.724
 6702WAT     H120348   3.799   7.330   7.668
 6702WAT     H220349   3.693   7.240   7.753
 6703WAT      O20350   2.839   7.022   2.354
 6703WAT     H120351   2.914   7.085   2.336
 6703WAT     H220352   2.816   7.023   2.451
 6704WAT      O20353   3.048   2.742   3.601
 6704WAT     H120354   3.061   2.656   3.651
 6704WAT     H220355   3.125   2.803   3.618
 6705WAT      O20356   1.974   0.085   0.450
 6705WAT     H120357   2.018   0.018   0.391
 6705WAT     H220358   1.986   0.177   0.412
 6706WAT      O20359   1.502   2.533   4.907
 6706WAT     H120360   1.590   2.486   4.913
 6706WAT     H220361   1.430   2.473   4.941
 6707WAT      O20362   1.361   9.203   8.474
 6707WAT     H120363   1.429   9.244   8.534
 6707WAT     H220364   1.403   9.132   8.418
 6708WAT      O20365   6.254   4.255   8.365
 6708WAT     H120366   6.243   4.321   8.440
 6708WAT     H220367   6.189   4.180   8.377
 6709WAT      O20368   4.306   5.940   9.538
 6709WAT     H120369   4.344   5.853   9.569
 6709WAT     H220370   4.212   5.927   9.507
 6710WAT      O20371   7.028   1.870   6.372
 6710WAT     H120372   7.066   1.953   6.413
 6710WAT     H220373   7.042   1.872   6.273
 6711WAT      O20374   3.345   8.031   8.824
 6711WAT     H120375   3.333   8.129   8.840
 6711WAT     H220376   3.415   7.995   8.885
 6712WAT      O20377   8.244   8.285   0.854
 6712WAT     H120378   8.197   8.197   0.862
 6712WAT     H220379   8.197   8.343   0.788
 6713WAT      O20380   5.742   5.656   8.111
 6713WAT     H120381   5.721   5.565   8.146
 6713WAT     H220382   5.659   5.697   8.073
 6714WAT      O20383   1.539   3.198   1.026
 6714WAT     H120384   1.625   3.234   0.990
 6714WAT     H220385   1.467   3.266   1.015
 6715WAT      O20386   2.219   5.157   8.870
 6715WAT     H120387   2.146   5.200   8.923
 6715WAT     H220388   2.178   5.105   8.795
 6716WAT      O20389   6.664   8.706   1.279
 6716WAT     H120390   6.578   8.657   1.261
 6716WAT     H220391   6.728   8.644   1.324
 6717WAT      O20392   6.996   7.225   6.273
 6717WAT     H120393   7.013   7.283   6.194
 6717WAT     H220394   7.067   7.241   6.342
 6718WAT      O20395   7.231   4.611   1.731
 6718WAT     H120396   7.275   4.648   1.812
 6718WAT     H220397   7.135   4.592   1.750
 6719WAT      O20398   7.103   1.239   7.745
 6719WAT     H120399   7.019   1.192   7.717
 6719WAT     H220400   7.098   1.264   7.841
 6720WAT      O20401   8.828   7.633   1.607
 6720WAT     H120402   8.903   7.698   1.618
 6720WAT     H220403   8.811   7.586   1.694
 6721WAT      O20404   2.424   9.037   7.649
 6721WAT     H120405   2.508   8.988   7.670
 6721WAT     H220406   2.377   8.991   7.574
 6722WAT      O20407   3.198   2.541   6.712
 6722WAT     H120408   3.207   2.442   6.699
 6722WAT     H220409   3.276   2.575   6.764
 6723WAT      O20410   9.114   5.261   3.295
 6723WAT     H120411   9.212   5.243   3.288
 6723WAT     H220412   9.064   5.196   3.237
 6724WAT      O20413   9.215   7.665   4.290
 6724WAT     H120414   9.269   7.727   4.346
 6724WAT     H220415   9.271   7.588   4.260
 6725WAT      O20416   1.191   5.100   8.422
 6725WAT     H120417   1.220   5.118   8.516
 6725WAT     H220418   1.272   5.089   8.364
 6726WAT      O20419   0.593   6.398   1.537
 6726WAT     H120420   0.533   6.350   1.601
 6726WAT     H220421   0.591   6.352   1.449
 6727WAT      O20422   9.429   4.334   7.961
 6727WAT     H120423   9.489   4.255   7.954
 6727WAT     H220424   9.452   4.400   7.889
 6728WAT      O20425   9.130   4.238   6.105
 6728WAT     H120426   9.036   4.204   6.112
 6728WAT     H220427   9.129   4.332   6.070
 6729WAT      O20428   4.083   0.426   1.889
 6729WAT     H120429   4.075   0.397   1.985
 6729WAT     H220430   4.177   0.413   1.858
 6730WAT      O20431   3.471   2.491   2.352
 6730WAT     H120432   3.498   2.525   2.442
 6730WAT     H220433   3.471   2.567   2.286
 6731WAT      O20434   3.472   1.683   6.360
 6731WAT     H120435   3.392   1.660   6.414
 6731WAT     H220436   3.544   1.615   6.375
 6732WAT      O20437   7.130   8.098   0.491
 6732WAT     H120438   7.035   8.071   0.477
 6732WAT     H220439   7.183   8.078   0.408
 6733WAT      O20440   6.007   9.181   1.637
 6733WAT     H120441   5.935   9.163   1.570
 6733WAT     H220442   6.032   9.278   1.634
 6734WAT      O20443   4.783   4.895   0.804
 6734WAT     H120444   4.807   4.902   0.901
 6734WAT     H220445   4.866   4.874   0.751
 6735WAT      O20446   8.140   3.031   8.278
 6735WAT     H120447   8.041   3.039   8.265
 6735WAT     H220448   8.187   3.096   8.218
 6736WAT      O20449   5.993   7.944   9.587
 6736WAT     H120450   5.975   7.911   9.494
 6736WAT     H220451   5.907   7.971   9.630
 6737WAT      O20452   7.427   0.254   6.593
 6737WAT     H120453   7.374   0.182   6.548
 6737WAT     H220454   7.369   0.304   6.657
 6738WAT      O20455   2.934   9.094   7.127
 6738WAT     H120456   2.962   9.036   7.051
 6738WAT     H220457   2.984   9.068   7.209
 6739WAT      O20458   4.983   8.599   7.438
 6739WAT     H120459   4.964   8.504   7.413
 6739WAT     H220460   5.057   8.634   7.381
 6740WAT      O20461   1.151   6.341   1.265
 6740WAT     H120462   1.235   6.376   1.223
 6740WAT     H220463   1.082   6.412   1.266
 6741WAT      O20464   5.667   7.282   8.150
 6741WAT     H120465   5.653   7.230   8.235
 6741WAT     H220466   5.626   7.232   8.073
 6742WAT      O20467   4.295   5.344   3.624
 6742WAT     H120468   4.330   5.252   3.639
 6742WAT     H220469   4.258   5.381   3.709
 6743WAT      O20470   0.819   3.668   5.072
 6743WAT     H120471   0.895   3.672   5.007
 6743WAT     H220472   0.785   3.761   5.088
 6744WAT      O20473   9.362   6.923   5.402
 6744WAT     H120474   9.336   6.832   5.368
 6744WAT     H220475   9.435   6.913   5.470
 6745WAT      O20476   8.868   1.574   6.059
 6745WAT     H120477   8.786   1.588   6.004
 6745WAT     H220478   8.916   1.661   6.070
 6746WAT      O20479   3.716   9.505   4.326
 6746WAT     H120480   3.719   9.422   4.271
 6746WAT     H220481   3.652   9.492   4.402
 6747WAT      O20482   5.551   0.689   7.793
 6747WAT     H120483   5.559   0.616   7.862
 6747WAT     H220484   5.545   0.647   7.703
 6748WAT      O20485   5.384   3.659   6.073
 6748WAT     H120486   5.436   3.604   6.008
 6748WAT     H220487   5.320   3.718   6.023
 6749WAT      O20488   0.028   6.844   7.580
 6749WAT     H120489  -0.014   6.934   7.578
 6749WAT     H220490   0.119   6.850   7.622
 6750WAT      O20491   0.655   5.464   4.008
 6750WAT     H120492   0.631   5.371   3.982
 6750WAT     H220493   0.641   5.525   3.930
 6751WAT      O20494   1.995   2.905   1.279
 6751WAT     H120495   1.910   2.936   1.237
 6751WAT     H220496   2.042   2.842   1.217
 6752WAT      O20497   0.468   7.620   2.247
 6752WAT     H120498   0.369   7.608   2.242
 6752WAT     H220499   0.510   7.537   2.285
 6753WAT      O20500   3.167   5.111   1.749
 6753WAT     H120501   3.194   5.070   1.662
 6753WAT     H220502   3.230   5.184   1.773
 6754WAT      O20503   1.167   3.710   1.029
 6754WAT     H120504   1.201   3.713   0.935
 6754WAT     H220505   1.069   3.731   1.029
 6755WAT      O20506   1.125   2.410   4.216
 6755WAT     H120507   1.184   2.373   4.144
 6755WAT     H220508   1.080   2.335   4.264
 6756WAT      O20509   5.139   0.292   6.717
 6756WAT     H120510   5.138   0.293   6.617
 6756WAT     H220511   5.046   0.276   6.751
 6757WAT      O20512   3.699   1.337   0.172
 6757WAT     H120513   3.764   1.309   0.101
 6757WAT     H220514   3.743   1.403   0.233
 6758WAT      O20515   4.093   4.730   2.508
 6758WAT     H120516   4.132   4.781   2.585
 6758WAT     H220517   4.020   4.782   2.466
 6759WAT      O20518   0.784   0.552   5.407
 6759WAT     H120519   0.784   0.472   5.467
 6759WAT     H220520   0.691   0.589   5.401
 6760WAT      O20521   8.134   0.389   1.570
 6760WAT     H120522   8.062   0.323   1.594
 6760WAT     H220523   8.183   0.358   1.488
 6761WAT      O20524   0.803   2.881   1.390
 6761WAT     H120525   0.880   2.940   1.414
 6761WAT     H220526   0.731   2.936   1.348
 6762WAT      O20527   7.848   7.744   6.922
 6762WAT     H120528   7.833   7.685   6.842
 6762WAT     H220529   7.771   7.733   6.986
 6763WAT      O20530   5.450   0.921   6.847
 6763WAT     H120531   5.457   0.859   6.769
 6763WAT     H220532   5.517   0.896   6.917
 6764WAT      O20533   2.864   9.373   2.088
 6764WAT     H120534   2.870   9.294   2.149
 6764WAT     H220535   2.954   9.415   2.080
 6765WAT      O20536   1.790   8.390   1.055
 6765WAT     H120537   1.862   8.451   1.089
 6765WAT     H220538   1.749   8.341   1.132
 6766WAT      O20539   0.242   7.051   3.595
 6766WAT     H120540   0.275   6.973   3.542
 6766WAT     H220541   0.313   7.121   3.597
 6767WAT      O20542   9.699   7.406   4.356
 6767WAT     H120543   9.791   7.437   4.332
 6767WAT     H220544   9.631   7.466   4.314
 6768WAT      O20545   2.143   8.837   6.951
 6768WAT     H120546   2.135   8.879   7.041
 6768WAT     H220547   2.094   8.750   6.950
 6769WAT      O20548   9.026   4.745   8.845
 6769WAT     H120549   9.105   4.754   8.785
 6769WAT     H220550   8.945   4.780   8.798
 6770WAT      O20551   9.013   5.739   6.888
 6770WAT     H120552   9.054   5.788   6.964
 6770WAT     H220553   8.915   5.757   6.885
 6771WAT      O20554   2.760   2.976   5.164
 6771WAT     H120555   2.746   2.893   5.218
 6771WAT     H220556   2.830   3.033   5.208
 6772WAT      O20557   0.204   4.620   7.421
 6772WAT     H120558   0.240   4.704   7.461
 6772WAT     H220559   0.221   4.620   7.323
 6773WAT      O20560   9.320   9.671   9.094
 6773WAT     H120561   9.336   9.673   9.192
 6773WAT     H220562   9.403   9.700   9.046
 6774WAT      O20563   8.944   4.180   7.290
 6774WAT     H120564   8.960   4.263   7.343
 6774WAT     H220565   8.935   4.204   7.193
 6775WAT      O20566   9.645   7.843   9.776
 6775WAT     H120567   9.703   7.871   9.699
 6775WAT     H220568   9.696   7.781   9.835
 6776WAT      O20569   4.233   5.424   7.580
 6776WAT     H120570   4.168   5.349   7.595
 6776WAT     H220571   4.287   5.403   7.498
 6777WAT      O20572   1.490   7.096   8.092
 6777WAT     H120573   1.418   7.146   8.141
 6777WAT     H220574   1.502   7.135   8.001
 6778WAT      O20575   3.907   2.171   7.478
 6778WAT     H120576   3.819   2.198   7.517
 6778WAT     H220577   3.904   2.074   7.454
 6779WAT      O20578   0.744   0.725   2.918
 6779WAT     H120579   0.830   0.741   2.869
 6779WAT     H220580   0.752   0.759   3.011
 6780WAT      O20581   1.674   3.419   3.483
 6780WAT     H120582   1.753   3.472   3.513
 6780WAT     H220583   1.591   3.456   3.525
 6781WAT      O20584   8.245   6.801   1.914
 6781WAT     H120585   8.167   6.744   1.892
 6781WAT     H220586   8.213   6.891   1.944
 6782WAT      O20587   2.504   1.156   5.030
 6782WAT     H120588   2.505   1.123   5.125
 6782WAT     H220589   2.591   1.200   5.009
 6783WAT      O20590   6.554   8.078   8.272
 6783WAT     H120591   6.628   8.135   8.306
 6783WAT     H220592   6.536   8.100   8.176
 6784WAT      O20593   4.248   7.536   3.494
 6784WAT     H120594   4.254   7.452   3.439
 6784WAT     H220595   4.294   7.611   3.445
 6785WAT      O20596   2.894   8.324   7.304
 6785WAT     H120597   2.902   8.247   7.241
 6785WAT     H220598   2.823   8.386   7.272
 6786WAT      O20599   0.542   5.725   2.441
 6786WAT     H120600   0.555   5.639   2.392
 6786WAT     H220601   0.607   5.730   2.517
 6787WAT      O20602   6.429   7.689   1.185
 6787WAT     H120603   6.340   7.707   1.145
 6787WAT     H220604   6.496   7.671   1.113
 6788WAT      O20605   6.312   2.391   1.045
 6788WAT     H120606   6.284   2.366   1.137
 6788WAT     H220607   6.411   2.382   1.036
 6789WAT      O20608   0.868   8.991   1.921
 6789WAT     H120609   0.829   8.904   1.949
 6789WAT     H220610   0.961   8.999   1.956
 6790WAT      O20611   7.186   6.776   0.320
 6790WAT     H120612   7.145   6.721   0.248
 6790WAT     H220613   7.119   6.843   0.353
 6791WAT      O20614   9.085   0.639   9.100
 6791WAT     H120615   9.097   0.717   9.160
 6791WAT     H220616   9.095   0.554   9.153
 6792WAT      O20617   9.798   1.906   6.462
 6792WAT     H120618   9.744   1.982   6.498
 6792WAT     H220619   9.857   1.871   6.535
 6793WAT      O20620   8.528   4.788   8.354
 6793WAT     H120621   8.530   4.874   8.405
 6793WAT     H220622   8.503   4.805   8.259
 6794WAT      O20623   8.595   6.845   5.765
 6794WAT     H120624   8.571   6.754   5.798
 6794WAT     H220625   8.695   6.857   5.769
 6795WAT      O20626   6.788   8.733   5.677
 6795WAT     H120627   6.806   8.657   5.739
 6795WAT     H220628   6.762   8.814   5.730
 6796WAT      O20629   3.488   0.262   3.004
 6796WAT     H120630   3.423   0.272   2.928
 6796WAT     H220631   3.554   0.337   3.001
 6797WAT      O20632   2.283   9.020   9.549
 6797WAT     H120633   2.236   9.100   9.586
 6797WAT     H220634   2.374   9.046   9.517
 6798WAT      O20635   6.554   8.858   9.335
 6798WAT     H120636   6.537   8.828   9.241
 6798WAT     H220637   6.608   8.942   9.334
 6799WAT      O20638   3.002   7.881   2.699
 6799WAT     H120639   2.974   7.790   2.730
 6799WAT     H220640   2.968   7.897   2.606
 6800WAT      O20641   2.364   3.150   0.725
 6800WAT     H120642   2.437   3.206   0.687
 6800WAT     H220643   2.306   3.205   0.783
 6801WAT      O20644   2.968   0.535   4.141
 6801WAT     H120645   2.976   0.449   4.191
 6801WAT     H220646   2.901   0.525   4.068
 6802WAT      O20647   4.013   6.991   4.434
 6802WAT     H120648   4.078   6.916   4.425
 6802WAT     H220649   3.962   6.983   4.520
 6803WAT      O20650   7.354   7.430   3.325
 6803WAT     H120651   7.386   7.391   3.411
 6803WAT     H220652   7.428   7.484   3.284
 6804WAT      O20653   6.397   3.082   6.372
 6804WAT     H120654   6.416   3.069   6.275
 6804WAT     H220655   6.411   2.995   6.420
 6805WAT      O20656   3.694   0.453   2.907
 6805WAT     H120657   3.736   0.542   2.886
 6805WAT     H220658   3.763   0.393   2.947
 6806WAT      O20659   2.417   7.612   1.435
 6806WAT     H120660   2.364   7.572   1.509
 6806WAT     H220661   2.409   7.712   1.439
 6807WAT      O20662   0.465   1.294   2.754
 6807WAT     H120663   0.499   1.379   2.714
 6807WAT     H220664   0.384   1.312   2.809
 6808WAT      O20665   3.787   4.340   2.229
 6808WAT     H120666   3.819   4.299   2.143
 6808WAT     H220667   3.688   4.341   2.231
 6809WAT      O20668   2.181   3.357   0.670
 6809WAT     H120669   2.242   3.432   0.694
 6809WAT     H220670   2.222   3.303   0.596
 6810WAT      O20671   5.534   3.171   8.262
 6810WAT     H120672   5.587   3.150   8.344
 6810WAT     H220673   5.442   3.200   8.287
 6811WAT      O20674   8.311   1.708   3.284
 6811WAT     H120675   8.317   1.747   3.375
 6811WAT     H220676   8.348   1.772   3.217
 6812WAT      O20677   1.380   1.380   2.239
 6812WAT     H120678   1.391   1.367   2.141
 6812WAT     H220679   1.470   1.396   2.281
 6813WAT      O20680   6.503   4.115   9.350
 6813WAT     H120681   6.457   4.203   9.365
 6813WAT     H220682   6.460   4.068   9.273
 6814WAT      O20683   5.509   6.154   8.549
 6814WAT     H120684   5.455   6.070   8.550
 6814WAT     H220685   5.557   6.162   8.462
 6815WAT      O20686   2.063   1.321   9.473
 6815WAT     H120687   2.113   1.393   9.521
 6815WAT     H220688   2.038   1.352   9.382
 6816WAT      O20689   8.221   9.556   2.175
 6816WAT     H120690   8.173   9.495   2.111
 6816WAT     H220691   8.316   9.528   2.182
 6817WAT      O20692   5.031   2.874   1.709
 6817WAT     H120693   5.044   2.783   1.748
 6817WAT     H220694   5.120   2.913   1.685
 6818WAT      O20695   4.259   7.273   7.779
 6818WAT     H120696   4.263   7.255   7.681
 6818WAT     H220697   4.350   7.266   7.818
 6819WAT      O20698   0.554   7.210   7.548
 6819WAT     H120699   0.535   7.152   7.469
 6819WAT     H220700   0.581   7.301   7.517
 6820WAT      O20701   3.815   7.376   0.148
 6820WAT     H120702   3.834   7.420   0.060
 6820WAT     H220703   3.766   7.440   0.207
 6821WAT      O20704   8.395   1.010   8.338
 6821WAT     H120705   8.306   1.038   8.374
 6821WAT     H220706   8.467   1.065   8.379
 6822WAT      O20707   0.683   8.731   0.765
 6822WAT     H120708   0.740   8.814   0.767
 6822WAT     H220709   0.741   8.651   0.778
 6823WAT      O20710   6.368   0.849   6.534
 6823WAT     H120711   6.389   0.776   6.470
 6823WAT     H220712   6.352   0.811   6.625
 6824WAT      O20713   2.322   7.463   6.489
 6824WAT     H120714   2.327   7.481   6.587
 6824WAT     H220715   2.226   7.470   6.459
 6825WAT      O20716   7.179   5.642   1.084
 6825WAT     H120717   7.253   5.705   1.107
 6825WAT     H220718   7.128   5.678   1.006
 6826WAT      O20719   9.396   4.043   4.526
 6826WAT     H120720   9.349   4.131   4.533
 6826WAT     H220721   9.450   4.026   4.608
 6827WAT      O20722   8.753   1.421   5.400
 6827WAT     H120723   8.789   1.472   5.322
 6827WAT     H220724   8.771   1.323   5.386
 6828WAT      O20725   6.284   5.212   2.448
 6828WAT     H120726   6.308   5.182   2.356
 6828WAT     H220727   6.247   5.305   2.444
 6829WAT      O20728   7.854   6.233   3.904
 6829WAT     H120729   7.792   6.304   3.870
 6829WAT     H220730   7.899   6.265   3.987
 6830WAT      O20731   1.473   7.247   7.120
 6830WAT     H120732   1.386   7.231   7.074
 6830WAT     H220733   1.538   7.290   7.057
 6831WAT      O20734   0.049   5.876   4.531
 6831WAT     H120735  -0.018   5.937   4.573
 6831WAT     H220736   0.138   5.886   4.577
 6832WAT      O20737   3.971   3.699   7.747
 6832WAT     H120738   4.045   3.639   7.776
 6832WAT     H220739   3.997   3.746   7.663
 6833WAT      O20740   0.928   6.617   6.213
 6833WAT     H120741   0.883   6.610   6.124
 6833WAT     H220742   0.972   6.530   6.235
 6834WAT      O20743   6.632   2.817   2.542
 6834WAT     H120744   6.635   2.718   2.524
 6834WAT     H220745   6.539   2.851   2.528
 6835WAT      O20746   3.807   1.291   9.815
 6835WAT     H120747   3.794   1.227   9.739
 6835WAT     H220748   3.752   1.374   9.799
 6836WAT      O20749   8.857   7.287   9.065
 6836WAT     H120750   8.851   7.278   8.966
 6836WAT     H220751   8.904   7.208   9.104
 6837WAT      O20752   1.255   4.091   2.224
 6837WAT     H120753   1.247   4.100   2.323
 6837WAT     H220754   1.236   3.996   2.197
 6838WAT      O20755   2.801   2.131   3.891
 6838WAT     H120756   2.715   2.125   3.941
 6838WAT     H220757   2.877   2.107   3.952
 6839WAT      O20758   0.927   3.048   9.389
 6839WAT     H120759   0.868   3.124   9.416
 6839WAT     H220760   0.959   3.061   9.295
 6840WAT      O20761   1.848   2.802   7.184
 6840WAT     H120762   1.857   2.793   7.283
 6840WAT     H220763   1.938   2.819   7.144
 6841WAT      O20764   1.891   1.299   8.755
 6841WAT     H120765   1.961   1.337   8.694
 6841WAT     H220766   1.812   1.360   8.756
 6842WAT      O20767   4.374   4.431   6.163
 6842WAT     H120768   4.472   4.447   6.151
 6842WAT     H220769   4.360   4.367   6.239
 6843WAT      O20770   4.350   2.548   4.652
 6843WAT     H120771   4.281   2.573   4.584
 6843WAT     H220772   4.309   2.546   4.743
 6844WAT      O20773   8.050   9.433   7.727
 6844WAT     H120774   8.049   9.335   7.747
 6844WAT     H220775   8.000   9.451   7.643
 6845WAT      O20776   3.253   8.971   4.529
 6845WAT     H120777   3.209   8.881   4.530
 6845WAT     H220778   3.222   9.024   4.608
 6846WAT      O20779   3.493   2.360   0.113
 6846WAT     H120780   3.436   2.322   0.186
 6846WAT     H220781   3.577   2.398   0.153
 6847WAT      O20782   0.540   0.169   4.807
 6847WAT     H120783   0.629   0.189   4.766
 6847WAT     H220784   0.476   0.139   4.736
 6848WAT      O20785   1.260   9.180   4.331
 6848WAT     H120786   1.257   9.088   4.369
 6848WAT     H220787   1.167   9.208   4.304
 6849WAT      O20788   8.247   7.088   5.631
 6849WAT     H120789   8.165   7.141   5.652
 6849WAT     H220790   8.320   7.113   5.694
 6850WAT      O20791   5.232   3.336   6.257
 6850WAT     H120792   5.206   3.425   6.218
 6850WAT     H220793   5.239   3.269   6.183
 6851WAT      O20794   7.977   0.807   9.803
 6851WAT     H120795   7.892   0.799   9.855
 6851WAT     H220796   8.054   0.817   9.866
 6852WAT      O20797   3.059   2.704   7.888
 6852WAT     H120798   2.973   2.661   7.912
 6852WAT     H220799   3.114   2.718   7.970
 6853WAT      O20800   0.471   0.708   8.216
 6853WAT     H120801   0.456   0.782   8.281
 6853WAT     H220802   0.520   0.743   8.136
 6854WAT      O20803   4.509   7.911   1.900
 6854WAT     H120804   4.560   7.854   1.836
 6854WAT     H220805   4.512   8.006   1.870
 6855WAT      O20806   0.277   2.894   4.890
 6855WAT     H120807   0.373   2.917   4.906
 6855WAT     H220808   0.271   2.822   4.821
 6856WAT      O20809   7.579   8.666   3.769
 6856WAT     H120810   7.525   8.602   3.824
 6856WAT     H220811   7.670   8.676   3.810
 6857WAT      O20812   0.718   1.909   7.880
 6857WAT     H120813   0.646   1.888   7.814
 6857WAT     H220814   0.779   1.830   7.889
 6858WAT      O20815   3.978   7.982   0.027
 6858WAT     H120816   3.938   7.947  -0.058
 6858WAT     H220817   3.926   7.948   0.105
 6859WAT      O20818   9.182   7.715   2.486
 6859WAT     H120819   9.107   7.768   2.526
 6859WAT     H220820   9.269   7.754   2.517
 6860WAT      O20821   9.231   1.888   2.343
 6860WAT     H120822   9.291   1.897   2.264
 6860WAT     H220823   9.143   1.850   2.314
 6861WAT      O20824   4.807   0.387   7.750
 6861WAT     H120825   4.896   0.397   7.795
 6861WAT     H220826   4.807   0.305   7.692
 6862WAT      O20827   5.901   2.899   7.956
 6862WAT     H120828   5.843   2.818   7.969
 6862WAT     H220829   5.859   2.960   7.888
 6863WAT      O20830   9.705   2.447   6.617
 6863WAT     H120831   9.749   2.533   6.591
 6863WAT     H220832   9.763   2.397   6.681
 6864WAT      O20833   0.427   3.690   1.373
 6864WAT     H120834   0.462   3.740   1.453
 6864WAT     H220835   0.498   3.685   1.303
 6865WAT      O20836   6.105   1.290   7.116
 6865WAT     H120837   6.110   1.213   7.052
 6865WAT     H220838   6.012   1.301   7.149
 6866WAT      O20839   4.854   3.393   7.966
 6866WAT     H120840   4.950   3.372   7.948
 6866WAT     H220841   4.799   3.373   7.885
 6867WAT      O20842   7.438   8.909   7.996
 6867WAT     H120843   7.372   8.931   8.067
 6867WAT     H220844   7.459   8.811   7.999
 6868WAT      O20845   6.223   1.946   0.675
 6868WAT     H120846   6.239   1.863   0.729
 6868WAT     H220847   6.308   1.972   0.629
 6869WAT      O20848   9.745   3.585   1.644
 6869WAT     H120849   9.823   3.545   1.692
 6869WAT     H220850   9.736   3.681   1.670
 6870WAT      O20851   7.588   1.225   7.101
 6870WAT     H120852   7.633   1.218   7.012
 6870WAT     H220853   7.495   1.188   7.094
 6871WAT      O20854   3.104   6.307   0.040
 6871WAT     H120855   3.183   6.251   0.014
 6871WAT     H220856   3.103   6.319   0.139
 6872WAT      O20857   3.288   2.567   7.756
 6872WAT     H120858   3.321   2.572   7.662
 6872WAT     H220859   3.224   2.642   7.773
 6873WAT      O20860   1.802   7.268   5.906
 6873WAT     H120861   1.802   7.366   5.925
 6873WAT     H220862   1.880   7.225   5.950
 6874WAT      O20863   6.134   4.197   3.077
 6874WAT     H120864   6.053   4.201   3.019
 6874WAT     H220865   6.204   4.258   3.041
 6875WAT      O20866   8.477   9.204   4.465
 6875WAT     H120867   8.551   9.155   4.510
 6875WAT     H220868   8.418   9.246   4.534
 6876WAT      O20869   9.511   7.035   4.929
 6876WAT     H120870   9.501   7.126   4.890
 6876WAT     H220871   9.420   6.996   4.945
 6877WAT      O20872   3.121   5.340   5.158
 6877WAT     H120873   3.025   5.309   5.163
 6877WAT     H220874   3.181   5.266   5.186
 6878WAT      O20875   9.621   9.339   5.687
 6878WAT     H120876   9.593   9.315   5.780
 6878WAT     H220877   9.591   9.433   5.666
 6879WAT      O20878   2.708   7.440   2.547
 6879WAT     H120879   2.653   7.425   2.630
 6879WAT     H220880   2.804   7.419   2.566
 6880WAT      O20881   0.067   6.264   6.069
 6880WAT     H120882   0.105   6.349   6.107
 6880WAT     H220883   0.078   6.190   6.136
 6881WAT      O20884   4.241   4.109   8.587
 6881WAT     H120885   4.219   4.017   8.554
 6881WAT     H220886   4.339   4.116   8.604
 6882WAT      O20887   1.952   7.408   5.701
 6882WAT     H120888   1.887   7.350   5.750
 6882WAT     H220889   2.044   7.372   5.712
 6883WAT      O20890   6.345   9.065   0.818
 6883WAT     H120891   6.440   9.054   0.848
 6883WAT     H220892   6.333   9.158   0.782
 6884WAT      O20893   1.240   1.863   1.031
 6884WAT     H120894   1.255   1.897   1.124
 6884WAT     H220895   1.226   1.764   1.034
 6885WAT      O20896   7.447   0.359   9.759
 6885WAT     H120897   7.508   0.285   9.787
 6885WAT     H220898   7.445   0.365   9.660
 6886WAT      O20899   0.820   6.220   5.097
 6886WAT     H120900   0.755   6.206   5.022
 6886WAT     H220901   0.781   6.285   5.162
 6887WAT      O20902   4.034   3.690   4.072
 6887WAT     H120903   4.102   3.759   4.046
 6887WAT     H220904   3.943   3.722   4.049
 6888WAT      O20905   2.341   9.035   4.430
 6888WAT     H120906   2.430   9.054   4.471
 6888WAT     H220907   2.354   9.000   4.338
 6889WAT      O20908   2.119   2.683   5.145
 6889WAT     H120909   2.021   2.700   5.137
 6889WAT     H220910   2.146   2.614   5.078
 6890WAT      O20911   2.869   7.132   4.450
 6890WAT     H120912   2.777   7.096   4.467
 6890WAT     H220913   2.907   7.089   4.369
 6891WAT      O20914   6.187   1.996   3.171
 6891WAT     H120915   6.185   1.922   3.105
 6891WAT     H220916   6.200   2.083   3.124
 6892WAT      O20917   4.560   7.307   0.325
 6892WAT     H120918   4.476   7.338   0.280
 6892WAT     H220919   4.628   7.282   0.255
 6893WAT      O20920   0.017   2.294   4.263
 6893WAT     H120921   0.045   2.308   4.168
 6893WAT     H220922  -0.026   2.378   4.298
 6894WAT      O20923   9.588   3.815   5.063
 6894WAT     H120924   9.543   3.903   5.079
 6894WAT     H220925   9.521   3.749   5.031
 6895WAT      O20926   4.550   5.486   4.468
 6895WAT     H120927   4.574   5.401   4.513
 6895WAT     H220928   4.626   5.551   4.475
 6896WAT      O20929   0.755   5.367   6.151
 6896WAT     H120930   0.761   5.432   6.227
 6896WAT     H220931   0.804   5.404   6.072
 6897WAT      O20932   3.410   0.259   1.705
 6897WAT     H120933   3.422   0.239   1.802
 6897WAT     H220934   3.454   0.346   1.682
 6898WAT      O20935   8.536   0.385   0.618
 6898WAT     H120936   8.478   0.372   0.538
 6898WAT     H220937   8.588   0.301   0.636
 6899WAT      O20938   5.530   9.693   7.870
 6899WAT     H120939   5.538   9.781   7.824
 6899WAT     H220940   5.621   9.660   7.896
 6900WAT      O20941   3.824   9.257   1.449
 6900WAT     H120942   3.786   9.238   1.358
 6900WAT     H220943   3.792   9.347   1.480
 6901WAT      O20944   0.034   3.683   0.254
 6901WAT     H120945   0.042   3.584   0.238
 6901WAT     H220946   0.030   3.700   0.352
 6902WAT      O20947   8.633   4.254   4.778
 6902WAT     H120948   8.694   4.291   4.848
 6902WAT     H220949   8.573   4.186   4.819
 6903WAT      O20950   2.395   6.538   4.403
 6903WAT     H120951   2.370   6.451   4.447
 6903WAT     H220952   2.312   6.583   4.369
 6904WAT      O20953   1.687   0.597   9.450
 6904WAT     H120954   1.667   0.499   9.443
 6904WAT     H220955   1.601   0.647   9.459
 6905WAT      O20956   2.304   9.489   6.593
 6905WAT     H120957   2.316   9.409   6.535
 6905WAT     H220958   2.236   9.551   6.552
 6906WAT      O20959   5.824   7.210   1.648
 6906WAT     H120960   5.830   7.310   1.650
 6906WAT     H220961   5.813   7.175   1.741
 6907WAT      O20962   8.307   9.062   1.464
 6907WAT     H120963   8.216   9.027   1.486
 6907WAT     H220964   8.361   8.989   1.421
 6908WAT      O20965   4.583   4.552   7.345
 6908WAT     H120966   4.516   4.625   7.334
 6908WAT     H220967   4.568   4.483   7.274
 6909WAT      O20968   2.340   4.389   0.475
 6909WAT     H120969   2.250   4.396   0.518
 6909WAT     H220970   2.402   4.456   0.516
 6910WAT      O20971   7.723   2.291   9.438
 6910WAT     H120972   7.784   2.350   9.385
 6910WAT     H220973   7.657   2.248   9.376
 6911WAT      O20974   5.848   8.090   0.982
 6911WAT     H120975   5.800   8.145   1.051
 6911WAT     H220976   5.935   8.134   0.960
 6912WAT      O20977   9.874   8.949   7.446
 6912WAT     H120978   9.829   9.008   7.514
 6912WAT     H220979   9.954   8.996   7.409
 6913WAT      O20980   5.089   8.223   0.013
 6913WAT     H120981   5.035   8.164   0.074
 6913WAT     H220982   5.134   8.166  -0.056
 6914WAT      O20983   1.773   1.543   8.899
 6914WAT     H120984   1.766   1.497   8.987
 6914WAT     H220985   1.866   1.578   8.887
 6915WAT      O20986   9.811   2.426   5.379
 6915WAT     H120987   9.808   2.496   5.451
 6915WAT     H220988   9.886   2.363   5.397
 6916WAT      O20989   9.817   7.882   7.373
 6916WAT     H120990   9.752   7.943   7.418
 6916WAT     H220991   9.900   7.932   7.351
 6917WAT      O20992   4.314   7.017   3.731
 6917WAT     H120993   4.397   6.961   3.735
 6917WAT     H220994   4.335   7.104   3.686
 6918WAT      O20995   0.555   7.821   5.776
 6918WAT     H120996   0.618   7.887   5.817
 6918WAT     H220997   0.564   7.824   5.677
 6919WAT      O20998   4.441   5.978   7.258
 6919WAT     H120999   4.429   5.880   7.244
 6919WAT     H221000   4.382   6.008   7.334
 6920WAT      O21001   4.859   1.437   1.793
 6920WAT     H121002   4.945   1.400   1.759
 6920WAT     H221003   4.877   1.493   1.874
 6921WAT      O21004   4.205   5.268   4.335
 6921WAT     H121005   4.304   5.259   4.334
 6921WAT     H221006   4.165   5.192   4.385
 6922WAT      O21007   2.981   9.413   6.321
 6922WAT     H121008   3.040   9.415   6.401
 6922WAT     H221009   2.972   9.506   6.284
 6923WAT      O21010   2.750   1.716   5.120
 6923WAT     H121011   2.706   1.725   5.031
 6923WAT     H221012   2.749   1.804   5.167
 6924WAT      O21013   2.622   5.551   6.498
 6924WAT     H121014   2.666   5.638   6.475
 6924WAT     H221015   2.641   5.484   6.426
 6925WAT      O21016   4.680   7.977   3.682
 6925WAT     H121017   4.708   7.899   3.626
 6925WAT     H221018   4.594   8.014   3.648
 6926WAT      O21019   9.277   9.241   0.154
 6926WAT     H121020   9.218   9.194   0.089
 6926WAT     H221021   9.341   9.300   0.104
 6927WAT      O21022   7.601   2.284   6.421
 6927WAT     H121023   7.653   2.225   6.483
 6927WAT     H221024   7.505   2.284   6.449
 6928WAT      O21025   3.756   0.603   1.371
 6928WAT     H121026   3.855   0.615   1.374
 6928WAT     H221027   3.713   0.686   1.334
 6929WAT      O21028   8.865   8.038   9.069
 6929WAT     H121029   8.903   8.122   9.109
 6929WAT     H221030   8.900   8.026   8.976
 6930WAT      O21031   7.768   8.730   2.786
 6930WAT     H121032   7.764   8.740   2.686
 6930WAT     H221033   7.821   8.806   2.825
 6931WAT      O21034   3.274   9.245   1.457
 6931WAT     H121035   3.276   9.220   1.554
 6931WAT     H221036   3.219   9.327   1.445
 6932WAT      O21037   4.348   8.711   5.856
 6932WAT     H121038   4.365   8.705   5.758
 6932WAT     H221039   4.303   8.798   5.877
 6933WAT      O21040   3.348   9.035   8.333
 6933WAT     H121041   3.346   9.048   8.233
 6933WAT     H221042   3.338   8.938   8.354
 6934WAT      O21043   0.426   4.325   2.982
 6934WAT     H121044   0.515   4.339   3.026
 6934WAT     H221045   0.364   4.398   3.009
 6935WAT      O21046   1.127   1.348   2.005
 6935WAT     H121047   1.125   1.352   2.105
 6935WAT     H221048   1.220   1.366   1.973
 6936WAT      O21049   9.708   1.948   2.303
 6936WAT     H121050   9.721   1.850   2.319
 6936WAT     H221051   9.783   1.983   2.247
 6937WAT      O21052   3.254   1.956   6.512
 6937WAT     H121053   3.239   2.055   6.520
 6937WAT     H221054   3.190   1.907   6.571
 6938WAT      O21055   6.839   2.293   3.630
 6938WAT     H121056   6.823   2.350   3.550
 6938WAT     H221057   6.936   2.294   3.654
 6939WAT      O21058   8.398   5.990   9.011
 6939WAT     H121059   8.445   5.933   8.943
 6939WAT     H221060   8.433   5.969   9.102
 6940WAT      O21061   8.262   2.782   6.847
 6940WAT     H121062   8.321   2.863   6.848
 6940WAT     H221063   8.207   2.781   6.931
 6941WAT      O21064   5.213   5.653   5.505
 6941WAT     H121065   5.189   5.557   5.519
 6941WAT     H221066   5.163   5.710   5.571
 6942WAT      O21067   9.099   5.332   5.281
 6942WAT     H121068   9.186   5.283   5.281
 6942WAT     H221069   9.093   5.391   5.361
 6943WAT      O21070   4.685   3.211   5.069
 6943WAT     H121071   4.659   3.257   4.984
 6943WAT     H221072   4.690   3.278   5.143
 6944WAT      O21073   6.988   8.928   7.893
 6944WAT     H121074   6.896   8.909   7.861
 6944WAT     H221075   7.018   9.017   7.860
 6945WAT      O21076   5.217   6.229   4.322
 6945WAT     H121077   5.176   6.190   4.240
 6945WAT     H221078   5.154   6.217   4.399
 6946WAT      O21079   8.484   4.039   4.906
 6946WAT     H121080   8.400   4.084   4.873
 6946WAT     H221081   8.463   3.945   4.932
 6947WAT      O21082   8.744   4.292   0.537
 6947WAT     H121083   8.724   4.206   0.584
 6947WAT     H221084   8.836   4.322   0.560
 6948WAT      O21085   6.926   4.868   0.320
 6948WAT     H121086   6.840   4.866   0.370
 6948WAT     H221087   6.932   4.953   0.267
 6949WAT      O21088   4.944   3.693   8.340
 6949WAT     H121089   4.985   3.742   8.417
 6949WAT     H221090   4.846   3.715   8.336
 6950WAT      O21091   3.906   6.287   9.027
 6950WAT     H121092   3.861   6.281   9.116
 6950WAT     H221093   3.843   6.256   8.955
 6951WAT      O21094   4.141   1.500   7.817
 6951WAT     H121095   4.129   1.556   7.735
 6951WAT     H221096   4.237   1.475   7.826
 6952WAT      O21097   7.640   1.809   8.974
 6952WAT     H121098   7.707   1.879   8.948
 6952WAT     H221099   7.553   1.827   8.929
 6953WAT      O21100   7.028   2.304   8.629
 6953WAT     H121101   6.957   2.311   8.559
 6953WAT     H221102   7.030   2.211   8.665
 6954WAT      O21103   6.105   7.596   6.293
 6954WAT     H121104   6.051   7.657   6.234
 6954WAT     H221105   6.054   7.580   6.378
 6955WAT      O21106   1.400   0.937   0.695
 6955WAT     H121107   1.367   0.874   0.625
 6955WAT     H221108   1.337   1.014   0.703
 6956WAT      O21109   0.388   9.166   9.036
 6956WAT     H121110   0.312   9.152   8.974
 6956WAT     H221111   0.366   9.127   9.126
 6957WAT      O21112   6.127   7.555   7.629
 6957WAT     H121113   6.204   7.601   7.586
 6957WAT     H221114   6.062   7.623   7.662
 6958WAT      O21115   2.930   5.562   7.597
 6958WAT     H121116   2.889   5.471   7.603
 6958WAT     H221117   3.027   5.554   7.577
 6959WAT      O21118   2.949   8.511   4.050
 6959WAT     H121119   2.892   8.593   4.053
 6959WAT     H221120   3.017   8.515   4.123
 6960WAT      O21121   1.417   0.522   7.973
 6960WAT     H121122   1.467   0.555   7.893
 6960WAT     H221123   1.477   0.522   8.053
 6961WAT      O21124   4.638   8.878   4.429
 6961WAT     H121125   4.684   8.917   4.509
 6961WAT     H221126   4.575   8.946   4.391
 6962WAT      O21127   5.088   9.007   6.955
 6962WAT     H121128   5.178   9.050   6.940
 6962WAT     H221129   5.086   8.919   6.908
 6963WAT      O21130   4.314   1.503   2.660
 6963WAT     H121131   4.364   1.589   2.670
 6963WAT     H221132   4.360   1.445   2.593
 6964WAT      O21133   4.800   2.736   5.684
 6964WAT     H121134   4.867   2.807   5.662
 6964WAT     H221135   4.849   2.650   5.703
 6965WAT      O21136   9.680   6.582   0.084
 6965WAT     H121137   9.724   6.493   0.073
 6965WAT     H221138   9.741   6.653   0.048
 6966WAT      O21139   6.463   9.062   2.154
 6966WAT     H121140   6.518   8.988   2.115
 6966WAT     H221141   6.456   9.050   2.253
 6967WAT      O21142   3.394   1.019   5.500
 6967WAT     H121143   3.323   1.014   5.570
 6967WAT     H221144   3.481   1.041   5.543
 6968WAT      O21145   4.993   2.238   1.974
 6968WAT     H121146   4.905   2.284   1.963
 6968WAT     H221147   5.035   2.267   2.060
 6969WAT      O21148   4.482   4.181   9.538
 6969WAT     H121149   4.550   4.236   9.586
 6969WAT     H221150   4.419   4.241   9.489
 6970WAT      O21151   6.443   8.453   4.988
 6970WAT     H121152   6.375   8.524   5.002
 6970WAT     H221153   6.405   8.365   5.015
 6971WAT      O21154   5.211   8.870   9.290
 6971WAT     H121155   5.140   8.880   9.219
 6971WAT     H221156   5.203   8.945   9.356
 6972WAT      O21157   6.943   5.185   0.859
 6972WAT     H121158   7.037   5.218   0.858
 6972WAT     H221159   6.941   5.090   0.890
 6973WAT      O21160   8.446   0.878   0.807
 6973WAT     H121161   8.532   0.927   0.792
 6973WAT     H221162   8.421   0.827   0.725
 6974WAT      O21163   4.923   2.143   1.657
 6974WAT     H121164   5.010   2.169   1.614
 6974WAT     H221165   4.912   2.193   1.743
 6975WAT      O21166   6.565   8.708   8.773
 6975WAT     H121167   6.518   8.685   8.688
 6975WAT     H221168   6.530   8.794   8.809
 6976WAT      O21169   6.655   3.541   5.052
 6976WAT     H121170   6.677   3.471   5.119
 6976WAT     H221171   6.605   3.500   4.976
 6977WAT      O21172   4.888   2.907   1.241
 6977WAT     H121173   4.823   2.981   1.225
 6977WAT     H221174   4.860   2.853   1.320
 6978WAT      O21175   9.540   0.863   7.324
 6978WAT     H121176   9.625   0.892   7.369
 6978WAT     H221177   9.494   0.943   7.287
 6979WAT      O21178   7.615   3.882   5.546
 6979WAT     H121179   7.615   3.795   5.597
 6979WAT     H221180   7.706   3.923   5.552
 6980WAT      O21181   2.413   3.864   8.461
 6980WAT     H121182   2.356   3.800   8.409
 6980WAT     H221183   2.358   3.943   8.487
 6981WAT      O21184   8.663   8.203   9.312
 6981WAT     H121185   8.670   8.106   9.291
 6981WAT     H221186   8.754   8.242   9.319
 6982WAT      O21187   9.650   8.014   2.631
 6982WAT     H121188   9.606   8.101   2.651
 6982WAT     H221189   9.689   8.016   2.539
 6983WAT      O21190   4.380   2.576   9.785
 6983WAT     H121191   4.323   2.639   9.838
 6983WAT     H221192   4.410   2.621   9.701
 6984WAT      O21193   0.879   1.971   5.910
 6984WAT     H121194   0.781   1.991   5.911
 6984WAT     H221195   0.916   1.988   5.819
 6985WAT      O21196   1.343   1.626   8.044
 6985WAT     H121197   1.345   1.636   8.143
 6985WAT     H221198   1.427   1.581   8.013
 6986WAT      O21199   2.328   5.622   5.618
 6986WAT     H121200   2.414   5.574   5.632
 6986WAT     H221201   2.308   5.679   5.698
 6987WAT      O21202   6.486   8.424   9.404
 6987WAT     H121203   6.418   8.468   9.463
 6987WAT     H221204   6.470   8.325   9.404
 6988WAT      O21205   9.199   7.479   5.280
 6988WAT     H121206   9.165   7.509   5.191
 6988WAT     H221207   9.298   7.491   5.284
 6989WAT      O21208   9.803   6.675   1.467
 6989WAT     H121209   9.859   6.619   1.529
 6989WAT     H221210   9.712   6.634   1.458
 6990WAT      O21211   9.652   0.437   7.075
 6990WAT     H121212   9.584   0.443   7.002
 6990WAT     H221213   9.621   0.491   7.153
 6991WAT      O21214   8.960   3.006   8.984
 6991WAT     H121215   8.905   3.047   8.912
 6991WAT     H221216   8.906   2.936   9.031
 6992WAT      O21217   0.861   2.651   4.546
 6992WAT     H121218   0.930   2.625   4.614
 6992WAT     H221219   0.905   2.663   4.457
 6993WAT      O21220   6.947   9.656   0.176
 6993WAT     H121221   7.034   9.675   0.222
 6993WAT     H221222   6.881   9.623   0.242
 6994WAT      O21223   1.583   7.027   6.496
 6994WAT     H121224   1.576   7.111   6.441
 6994WAT     H221225   1.679   7.006   6.512
 6995WAT      O21226   8.587   4.565   2.078
 6995WAT     H121227   8.529   4.645   2.070
 6995WAT     H221228   8.630   4.546   1.989
 6996WAT      O21229   8.077   9.363   3.272
 6996WAT     H121230   8.162   9.337   3.319
 6996WAT     H221231   8.100   9.401   3.182
 6997WAT      O21232   4.339   1.070   4.731
 6997WAT     H121233   4.329   1.168   4.717
 6997WAT     H221234   4.395   1.031   4.657
 6998WAT      O21235   8.259   0.579   2.143
 6998WAT     H121236   8.166   0.559   2.112
 6998WAT     H221237   8.324   0.520   2.095
 6999WAT      O21238   2.164   3.422   1.913
 6999WAT     H121239   2.074   3.411   1.954
 6999WAT     H221240   2.214   3.335   1.918
 7000WAT      O21241   3.381   4.125   8.254
 7000WAT     H121242   3.454   4.163   8.310
 7000WAT     H221243   3.356   4.190   8.183
 7001WAT      O21244   1.158   7.522   3.938
 7001WAT     H121245   1.115   7.611   3.955
 7001WAT     H221246   1.257   7.533   3.932
 7002WAT      O21247   8.605   1.237   3.675
 7002WAT     H121248   8.562   1.228   3.764
 7002WAT     H221249   8.694   1.283   3.685
 7003WAT      O21250   6.775   0.204   9.692
 7003WAT     H121251   6.849   0.136   9.691
 7003WAT     H221252   6.725   0.197   9.779
 7004WAT      O21253   7.108   1.574   6.147
 7004WAT     H121254   7.160   1.535   6.223
 7004WAT     H221255   7.022   1.612   6.181
 7005WAT      O21256   6.744   1.824   2.413
 7005WAT     H121257   6.765   1.811   2.510
 7005WAT     H221258   6.800   1.899   2.376
 7006WAT      O21259   8.729   3.165   5.691
 7006WAT     H121260   8.708   3.070   5.713
 7006WAT     H221261   8.823   3.186   5.717
 7007WAT      O21262   8.899   2.991   5.097
 7007WAT     H121263   8.956   3.051   5.153
 7007WAT     H221264   8.954   2.913   5.065
 7008WAT      O21265   3.855   2.740   0.135
 7008WAT     H121266   3.812   2.771   0.220
 7008WAT     H221267   3.891   2.648   0.148
 7009WAT      O21268   4.012   1.352   3.582
 7009WAT     H121269   4.038   1.387   3.672
 7009WAT     H221270   4.095   1.342   3.526
 7010WAT      O21271   9.146   1.389   3.643
 7010WAT     H121272   9.233   1.402   3.692
 7010WAT     H221273   9.093   1.317   3.688
 7011WAT      O21274   1.699   9.278   7.115
 7011WAT     H121275   1.777   9.235   7.160
 7011WAT     H221276   1.732   9.334   7.038
 7012WAT      O21277   6.442   7.295   8.686
 7012WAT     H121278   6.404   7.212   8.645
 7012WAT     H221279   6.534   7.311   8.650
 7013WAT      O21280   7.727   2.284   4.684
 7013WAT     H121281   7.657   2.356   4.683
 7013WAT     H221282   7.801   2.308   4.622
 7014WAT      O21283   9.846   1.293   3.796
 7014WAT     H121284   9.889   1.203   3.785
 7014WAT     H221285   9.747   1.282   3.799
 7015WAT      O21286   3.799   6.127   4.531
 7015WAT     H121287   3.884   6.176   4.552
 7015WAT     H221288   3.763   6.159   4.444
 7016WAT      O21289   3.818   8.412   4.787
 7016WAT     H121290   3.836   8.345   4.715
 7016WAT     H221291   3.770   8.368   4.862
 7017WAT      O21292   9.019   5.702   4.697
 7017WAT     H121293   9.013   5.607   4.727
 7017WAT     H221294   9.030   5.706   4.598
 7018WAT      O21295   2.145   2.030   6.355
 7018WAT     H121296   2.203   2.093   6.303
 7018WAT     H221297   2.061   2.077   6.382
 7019WAT      O21298   6.425   1.892   5.862
 7019WAT     H121299   6.325   1.891   5.862
 7019WAT     H221300   6.460   1.802   5.838
 7020WAT      O21301   4.438   3.211   7.689
 7020WAT     H121302   4.407   3.219   7.784
 7020WAT     H221303   4.424   3.118   7.657
 7021WAT      O21304   7.260   0.483   5.165
 7021WAT     H121305   7.266   0.553   5.094
 7021WAT     H221306   7.298   0.397   5.130
 7022WAT      O21307   3.183   7.832   0.206
 7022WAT     H121308   3.212   7.920   0.168
 7022WAT     H221309   3.090   7.841   0.242
 7023WAT      O21310   0.681   3.665   4.314
 7023WAT     H121311   0.707   3.596   4.247
 7023WAT     H221312   0.695   3.628   4.406
 7024WAT      O21313   7.298   8.482   0.150
 7024WAT     H121314   7.236   8.410   0.118
 7024WAT     H221315   7.311   8.550   0.077
 7025WAT      O21316   4.111   7.384   2.161
 7025WAT     H121317   4.165   7.465   2.139
 7025WAT     H221318   4.089   7.383   2.258
 7026WAT      O21319   1.277   0.144   5.008
 7026WAT     H121320   1.215   0.221   4.993
 7026WAT     H221321   1.233   0.076   5.065
 7027WAT      O21322   5.864   3.370   1.492
 7027WAT     H121323   5.870   3.462   1.531
 7027WAT     H221324   5.787   3.365   1.429
 7028WAT      O21325   3.731   2.626   8.403
 7028WAT     H121326   3.760   2.687   8.476
 7028WAT     H221327   3.801   2.623   8.332
 7029WAT      O21328   2.732   6.513   2.094
 7029WAT     H121329   2.809   6.546   2.040
 7029WAT     H221330   2.731   6.559   2.183
 7030WAT      O21331   0.580   5.540   6.627
 7030WAT     H121332   0.597   5.463   6.690
 7030WAT     H221333   0.637   5.617   6.655
 7031WAT      O21334   4.079   6.959   4.043
 7031WAT     H121335   4.165   6.974   4.091
 7031WAT     H221336   4.003   6.976   4.106
 7032WAT      O21337   0.746   7.662   2.635
 7032WAT     H121338   0.780   7.745   2.680
 7032WAT     H221339   0.819   7.594   2.632
 7033WAT      O21340   1.018   6.720   7.177
 7033WAT     H121341   0.999   6.658   7.101
 7033WAT     H221342   1.115   6.742   7.179
 7034WAT      O21343   7.682   2.022   4.496
 7034WAT     H121344   7.739   2.062   4.568
 7034WAT     H221345   7.587   2.052   4.508
 7035WAT      O21346   0.001   6.007   0.368
 7035WAT     H121347   0.077   5.947   0.391
 7035WAT     H221348   0.025   6.102   0.389
 7036WAT      O21349   5.278   4.427   1.169
 7036WAT     H121350   5.225   4.511   1.184
 7036WAT     H221351   5.360   4.429   1.226
 7037WAT      O21352   6.639   4.932   6.882
 7037WAT     H121353   6.684   4.856   6.835
 7037WAT     H221354   6.563   4.966   6.826
 7038WAT      O21355   5.853   1.727   3.075
 7038WAT     H121356   5.860   1.819   3.036
 7038WAT     H221357   5.941   1.701   3.114
 7039WAT      O21358   7.734   1.591   4.886
 7039WAT     H121359   7.653   1.565   4.835
 7039WAT     H221360   7.723   1.684   4.922
 7040WAT      O21361   8.108   8.436   9.597
 7040WAT     H121362   8.149   8.496   9.665
 7040WAT     H221363   8.099   8.344   9.634
 7041WAT      O21364   0.246   5.088   4.531
 7041WAT     H121365   0.196   5.152   4.589
 7041WAT     H221366   0.185   5.051   4.461
 7042WAT      O21367   6.967   4.602   8.821
 7042WAT     H121368   6.889   4.602   8.758
 7042WAT     H221369   6.953   4.671   8.891
 7043WAT      O21370   2.690   2.110   1.776
 7043WAT     H121371   2.655   2.204   1.774
 7043WAT     H221372   2.613   2.046   1.772
 7044WAT      O21373   7.018   1.934   5.815
 7044WAT     H121374   6.933   1.987   5.810
 7044WAT     H221375   7.096   1.996   5.819
 7045WAT      O21376   0.057   5.821   9.512
 7045WAT     H121377   0.154   5.836   9.498
 7045WAT     H221378   0.023   5.885   9.581
 7046WAT      O21379   4.135   0.187   6.616
 7046WAT     H121380   4.124   0.280   6.581
 7046WAT     H221381   4.229   0.174   6.647
 7047WAT      O21382   2.699   4.898   7.518
 7047WAT     H121383   2.644   4.815   7.529
 7047WAT     H221384   2.784   4.876   7.471
 7048WAT      O21385   0.510   7.878   8.206
 7048WAT     H121386   0.581   7.856   8.139
 7048WAT     H221387   0.543   7.950   8.266
 7049WAT      O21388   6.005   0.117   7.412
 7049WAT     H121389   5.990   0.018   7.424
 7049WAT     H221390   5.961   0.166   7.487
 7050WAT      O21391   0.125   1.989   2.797
 7050WAT     H121392   0.045   1.964   2.743
 7050WAT     H221393   0.098   2.051   2.871
 7051WAT      O21394   4.622   0.599   7.835
 7051WAT     H121395   4.678   0.678   7.862
 7051WAT     H221396   4.681   0.523   7.810
 7052WAT      O21397   9.197   2.661   5.603
 7052WAT     H121398   9.172   2.654   5.699
 7052WAT     H221399   9.116   2.684   5.549
 7053WAT      O21400   2.846   6.793   2.231
 7053WAT     H121401   2.845   6.880   2.281
 7053WAT     H221402   2.940   6.768   2.209
 7054WAT      O21403   7.052   7.244   5.835
 7054WAT     H121404   7.007   7.287   5.756
 7054WAT     H221405   7.060   7.146   5.819
 7055WAT      O21406   3.319   5.890   4.810
 7055WAT     H121407   3.261   5.938   4.877
 7055WAT     H221408   3.377   5.955   4.763
 7056WAT      O21409   2.373   5.576   0.201
 7056WAT     H121410   2.382   5.485   0.241
 7056WAT     H221411   2.423   5.579   0.114
 7057WAT      O21412   4.984   5.277   0.803
 7057WAT     H121413   4.921   5.339   0.758
 7057WAT     H221414   5.074   5.282   0.760
 7058WAT      O21415   0.065   0.456   5.838
 7058WAT     H121416   0.065   0.443   5.739
 7058WAT     H221417   0.089   0.551   5.859
 7059WAT      O21418   3.626   3.394   9.244
 7059WAT     H121419   3.630   3.296   9.265
 7059WAT     H221420   3.698   3.417   9.179
 7060WAT      O21421   8.128   6.251   4.499
 7060WAT     H121422   8.084   6.216   4.581
 7060WAT     H221423   8.223   6.220   4.496
 7061WAT      O21424   4.752   8.385   3.387
 7061WAT     H121425   4.809   8.343   3.457
 7061WAT     H221426   4.658   8.350   3.394
 7062WAT      O21427   3.588   8.084   1.148
 7062WAT     H121428   3.665   8.148   1.148
 7062WAT     H221429   3.616   7.998   1.190
 7063WAT      O21430   6.002   1.980   1.809
 7063WAT     H121431   6.059   2.054   1.845
 7063WAT     H221432   5.926   2.018   1.757
 7064WAT      O21433   7.507   8.930   1.381
 7064WAT     H121434   7.518   9.010   1.441
 7064WAT     H221435   7.455   8.860   1.429
 7065WAT      O21436   3.958   8.978   2.913
 7065WAT     H121437   3.976   8.888   2.951
 7065WAT     H221438   4.043   9.019   2.881
 7066WAT      O21439   0.708   1.827   1.884
 7066WAT     H121440   0.782   1.768   1.852
 7066WAT     H221441   0.712   1.915   1.836
 7067WAT      O21442   4.440   7.391   5.466
 7067WAT     H121443   4.439   7.402   5.367
 7067WAT     H221444   4.373   7.453   5.508
 7068WAT      O21445   5.939   7.901   7.449
 7068WAT     H121446   5.872   7.975   7.453
 7068WAT     H221447   5.939   7.851   7.536
 7069WAT      O21448   5.123   9.006   8.691
 7069WAT     H121449   5.160   9.036   8.780
 7069WAT     H221450   5.161   9.064   8.619
 7070WAT      O21451   6.971   2.059   7.792
 7070WAT     H121452   6.928   1.994   7.729
 7070WAT     H221453   6.999   2.011   7.875
 7071WAT      O21454   6.836   6.713   4.030
 7071WAT     H121455   6.822   6.811   4.014
 7071WAT     H221456   6.752   6.663   4.009
 7072WAT      O21457   6.967   5.847   4.477
 7072WAT     H121458   6.982   5.933   4.527
 7072WAT     H221459   6.962   5.771   4.542
 7073WAT      O21460   7.088   6.759   4.126
 7073WAT     H121461   7.001   6.722   4.093
 7073WAT     H221462   7.139   6.687   4.173
 7074WAT      O21463   2.456   6.692   8.199
 7074WAT     H121464   2.437   6.683   8.297
 7074WAT     H221465   2.440   6.786   8.170
 7075WAT      O21466   0.635   5.024   4.306
 7075WAT     H121467   0.681   4.990   4.388
 7075WAT     H221468   0.608   5.120   4.321
 7076WAT      O21469   4.024   3.125   0.968
 7076WAT     H121470   3.974   3.155   1.049
 7076WAT     H221471   3.987   3.039   0.935
 7077WAT      O21472   2.941   3.667   2.690
 7077WAT     H121473   2.946   3.697   2.785
 7077WAT     H221474   2.909   3.743   2.633
 7078WAT      O21475   8.565   3.679   4.550
 7078WAT     H121476   8.602   3.670   4.642
 7078WAT     H221477   8.477   3.726   4.553
 7079WAT      O21478   7.974   1.592   5.111
 7079WAT     H121479   8.005   1.520   5.172
 7079WAT     H221480   8.015   1.579   5.020
 7080WAT      O21481   0.894   5.544   4.108
 7080WAT     H121482   0.807   5.526   4.064
 7080WAT     H221483   0.900   5.640   4.133
 7081WAT      O21484   1.581   3.324   0.312
 7081WAT     H121485   1.675   3.358   0.306
 7081WAT     H221486   1.570   3.243   0.255
 7082WAT      O21487   1.143   9.462   4.811
 7082WAT     H121488   1.196   9.485   4.892
 7082WAT     H221489   1.204   9.447   4.734
 7083WAT      O21490   9.501   5.940   1.109
 7083WAT     H121491   9.481   5.849   1.147
 7083WAT     H221492   9.427   6.003   1.133
 7084WAT      O21493   9.523   4.355   3.325
 7084WAT     H121494   9.459   4.355   3.402
 7084WAT     H221495   9.476   4.389   3.243
 7085WAT      O21496   8.998   7.694   2.892
 7085WAT     H121497   9.025   7.760   2.962
 7085WAT     H221498   9.021   7.602   2.922
 7086WAT      O21499   1.745   3.489   8.877
 7086WAT     H121500   1.675   3.439   8.928
 7086WAT     H221501   1.825   3.503   8.936
 7087WAT      O21502   6.246   3.519   6.861
 7087WAT     H121503   6.226   3.429   6.900
 7087WAT     H221504   6.202   3.590   6.918
 7088WAT      O21505   8.439   8.887   1.317
 7088WAT     H121506   8.427   8.788   1.327
 7088WAT     H221507   8.536   8.910   1.332
 7089WAT      O21508   1.063   4.211   2.014
 7089WAT     H121509   1.084   4.219   1.917
 7089WAT     H221510   1.144   4.177   2.063
 7090WAT      O21511   7.817   4.518   2.237
 7090WAT     H121512   7.728   4.559   2.216
 7090WAT     H221513   7.808   4.454   2.313
 7091WAT      O21514   2.169   9.771   4.708
 7091WAT     H121515   2.143   9.680   4.740
 7091WAT     H221516   2.203   9.765   4.614
 7092WAT      O21517   1.796   1.803   0.733
 7092WAT     H121518   1.889   1.776   0.707
 7092WAT     H221519   1.789   1.903   0.732
 7093WAT      O21520   4.743   7.732   6.124
 7093WAT     H121521   4.733   7.679   6.040
 7093WAT     H221522   4.839   7.746   6.144
 7094WAT      O21523   1.431   8.328   1.298
 7094WAT     H121524   1.397   8.268   1.371
 7094WAT     H221525   1.490   8.275   1.237
 7095WAT      O21526   0.027   8.790   5.662
 7095WAT     H121527   0.019   8.885   5.631
 7095WAT     H221528  -0.046   8.770   5.727
 7096WAT      O21529   8.094   5.818   3.284
 7096WAT     H121530   8.078   5.819   3.185
 7096WAT     H221531   8.125   5.727   3.312
 7097WAT      O21532   5.750   8.493   5.310
 7097WAT     H121533   5.743   8.433   5.230
 7097WAT     H221534   5.804   8.448   5.381
 7098WAT      O21535   1.961   5.352   4.797
 7098WAT     H121536   1.915   5.356   4.708
 7098WAT     H221537   1.893   5.365   4.870
 7099WAT      O21538   6.731   6.778   4.410
 7099WAT     H121539   6.670   6.705   4.440
 7099WAT     H221540   6.821   6.767   4.453
 7100WAT      O21541   2.397   1.756   6.167
 7100WAT     H121542   2.488   1.745   6.127
 7100WAT     H221543   2.395   1.713   6.257
 7101WAT      O21544   1.422   2.063   4.054
 7101WAT     H121545   1.423   1.971   4.094
 7101WAT     H221546   1.511   2.083   4.014
 7102WAT      O21547   8.325   3.507   6.059
 7102WAT     H121548   8.378   3.440   6.007
 7102WAT     H221549   8.338   3.491   6.157
 7103WAT      O21550   5.378   6.169   7.389
 7103WAT     H121551   5.396   6.201   7.482
 7103WAT     H221552   5.387   6.246   7.325
 7104WAT      O21553   1.054   1.819   6.875
 7104WAT     H121554   1.138   1.775   6.844
 7104WAT     H221555   0.977   1.755   6.867
 7105WAT      O21556   0.301   7.046   0.342
 7105WAT     H121557   0.396   7.043   0.373
 7105WAT     H221558   0.267   7.140   0.347
 7106WAT      O21559   4.789   9.618   6.691
 7106WAT     H121560   4.795   9.708   6.648
 7106WAT     H221561   4.778   9.549   6.620
 7107WAT      O21562   9.062   4.986   7.965
 7107WAT     H121563   9.127   4.938   8.023
 7107WAT     H221564   9.024   4.923   7.897
 7108WAT      O21565   4.812   5.939   4.600
 7108WAT     H121566   4.760   5.963   4.682
 7108WAT     H221567   4.820   6.020   4.541
 7109WAT      O21568   6.523   6.489   8.326
 7109WAT     H121569   6.523   6.573   8.272
 7109WAT     H221570   6.540   6.510   8.422
 7110WAT      O21571   1.940   1.329   2.865
 7110WAT     H121572   2.032   1.291   2.878
 7110WAT     H221573   1.919   1.333   2.768
 7111WAT      O21574   3.132   8.758   8.231
 7111WAT     H121575   3.202   8.686   8.222
 7111WAT     H221576   3.153   8.833   8.169
 7112WAT      O21577   6.159   8.736   6.553
 7112WAT     H121578   6.135   8.655   6.500
 7112WAT     H221579   6.237   8.714   6.613
 7113WAT      O21580   1.099   6.170   5.550
 7113WAT     H121581   1.009   6.209   5.532
 7113WAT     H221582   1.093   6.070   5.545
 7114WAT      O21583   9.750   4.585   8.347
 7114WAT     H121584   9.830   4.584   8.287
 7114WAT     H221585   9.674   4.537   8.302
 7115WAT      O21586   6.612   9.549   7.492
 7115WAT     H121587   6.575   9.593   7.573
 7115WAT     H221588   6.587   9.452   7.492
 7116WAT      O21589   8.067   0.529   5.477
 7116WAT     H121590   8.141   0.572   5.529
 7116WAT     H221591   7.980   0.573   5.501
 7117WAT      O21592   4.047   8.202   9.684
 7117WAT     H121593   4.086   8.201   9.776
 7117WAT     H221594   3.950   8.179   9.688
 7118WAT      O21595   2.417   9.127   7.049
 7118WAT     H121596   2.354   9.148   7.123
 7118WAT     H221597   2.423   9.204   6.986
 7119WAT      O21598   2.680   8.424   4.380
 7119WAT     H121599   2.634   8.339   4.355
 7119WAT     H221600   2.615   8.487   4.423
 7120WAT      O21601   1.709   7.226   0.761
 7120WAT     H121602   1.645   7.153   0.738
 7120WAT     H221603   1.768   7.245   0.683
 7121WAT      O21604   8.252   8.692   8.839
 7121WAT     H121605   8.212   8.614   8.887
 7121WAT     H221606   8.207   8.703   8.750
 7122WAT      O21607   5.863   2.091   3.268
 7122WAT     H121608   5.844   2.003   3.310
 7122WAT     H221609   5.780   2.147   3.268
 7123WAT      O21610   1.258   0.190   6.574
 7123WAT     H121611   1.305   0.277   6.560
 7123WAT     H221612   1.222   0.156   6.487
 7124WAT      O21613   7.094   8.958   2.897
 7124WAT     H121614   7.089   8.896   2.975
 7124WAT     H221615   7.027   8.932   2.828
 7125WAT      O21616   0.827   8.581   2.218
 7125WAT     H121617   0.912   8.601   2.171
 7125WAT     H221618   0.833   8.612   2.313
 7126WAT      O21619   1.648   5.756   2.787
 7126WAT     H121620   1.703   5.807   2.853
 7126WAT     H221621   1.552   5.781   2.799
 7127WAT      O21622   1.890   1.472   5.251
 7127WAT     H121623   1.819   1.516   5.196
 7127WAT     H221624   1.949   1.541   5.292
 7128WAT      O21625   4.345   8.228   2.516
 7128WAT     H121626   4.296   8.170   2.581
 7128WAT     H221627   4.357   8.319   2.556
 7129WAT      O21628   2.056   6.604   3.263
 7129WAT     H121629   2.123   6.672   3.234
 7129WAT     H221630   2.054   6.600   3.363
 7130WAT      O21631   5.400   8.121   4.033
 7130WAT     H121632   5.412   8.024   4.055
 7130WAT     H221633   5.314   8.134   3.984
 7131WAT      O21634   4.706   8.462   0.810
 7131WAT     H121635   4.766   8.437   0.735
 7131WAT     H221636   4.616   8.420   0.797
 7132WAT      O21637   4.407   2.472   7.275
 7132WAT     H121638   4.420   2.421   7.360
 7132WAT     H221639   4.494   2.507   7.243
 7133WAT      O21640   2.876   0.955   6.603
 7133WAT     H121641   2.871   1.037   6.660
 7133WAT     H221642   2.935   0.888   6.647
 7134WAT      O21643   0.091   1.979   3.932
 7134WAT     H121644   0.106   1.898   3.875
 7134WAT     H221645   0.036   2.045   3.881
 7135WAT      O21646   2.855   1.635   7.605
 7135WAT     H121647   2.771   1.689   7.615
 7135WAT     H221648   2.841   1.565   7.534
 7136WAT      O21649   2.433   7.771   9.114
 7136WAT     H121650   2.444   7.866   9.085
 7136WAT     H221651   2.428   7.711   9.034
 7137WAT      O21652   8.910   6.255   4.548
 7137WAT     H121653   8.921   6.324   4.477
 7137WAT     H221654   8.978   6.270   4.620
 7138WAT      O21655   8.217   0.724   4.272
 7138WAT     H121656   8.152   0.792   4.304
 7138WAT     H221657   8.180   0.677   4.192
 7139WAT      O21658   0.618   5.598   4.951
 7139WAT     H121659   0.682   5.664   4.911
 7139WAT     H221660   0.597   5.527   4.884
 7140WAT      O21661   6.834   1.222   7.240
 7140WAT     H121662   6.748   1.218   7.189
 7140WAT     H221663   6.858   1.130   7.272
 7141WAT      O21664   9.883   4.751   0.494
 7141WAT     H121665   9.920   4.729   0.404
 7141WAT     H221666   9.831   4.673   0.529
 7142WAT      O21667   0.456   3.912   6.772
 7142WAT     H121668   0.388   3.947   6.708
 7142WAT     H221669   0.547   3.921   6.732
 7143WAT      O21670   0.953   4.661   3.997
 7143WAT     H121671   1.038   4.641   4.046
 7143WAT     H221672   0.907   4.739   4.039
 7144WAT      O21673   3.087   6.782   1.293
 7144WAT     H121674   3.066   6.687   1.317
 7144WAT     H221675   3.027   6.844   1.344
 7145WAT      O21676   0.522   5.384   4.762
 7145WAT     H121677   0.436   5.344   4.795
 7145WAT     H221678   0.515   5.402   4.663
 7146WAT      O21679   5.011   4.437   2.712
 7146WAT     H121680   4.989   4.355   2.766
 7146WAT     H221681   4.966   4.431   2.623
 7147WAT      O21682   3.065   5.160   8.197
 7147WAT     H121683   3.041   5.236   8.136
 7147WAT     H221684   3.124   5.194   8.270
 7148WAT      O21685   0.823   2.208   5.362
 7148WAT     H121686   0.859   2.221   5.454
 7148WAT     H221687   0.795   2.297   5.324
 7149WAT      O21688   6.484   7.078   2.263
 7149WAT     H121689   6.464   6.983   2.287
 7149WAT     H221690   6.408   7.116   2.210
 7150WAT      O21691   6.079   5.548   6.946
 7150WAT     H121692   6.079   5.647   6.932
 7150WAT     H221693   6.004   5.508   6.894
 7151WAT      O21694   3.711   2.527   9.868
 7151WAT     H121695   3.705   2.531   9.768
 7151WAT     H221696   3.796   2.571   9.898
 7152WAT      O21697   0.331   1.829   8.382
 7152WAT     H121698   0.343   1.873   8.293
 7152WAT     H221699   0.345   1.896   8.455
 7153WAT      O21700   4.515   2.108   1.455
 7153WAT     H121701   4.554   2.093   1.364
 7153WAT     H221702   4.570   2.058   1.523
 7154WAT      O21703   9.125   0.349   4.728
 7154WAT     H121704   9.080   0.436   4.751
 7154WAT     H221705   9.091   0.318   4.639
 7155WAT      O21706   3.653   2.699   5.714
 7155WAT     H121707   3.648   2.620   5.775
 7155WAT     H221708   3.635   2.670   5.620
 7156WAT      O21709   5.263   8.562   6.976
 7156WAT     H121710   5.291   8.581   7.070
 7156WAT     H221711   5.331   8.503   6.932
 7157WAT      O21712   7.316   4.947   2.150
 7157WAT     H121713   7.296   5.045   2.153
 7157WAT     H221714   7.256   4.898   2.214
 7158WAT      O21715   8.440   8.298   8.754
 7158WAT     H121716   8.418   8.224   8.691
 7158WAT     H221717   8.441   8.385   8.704
 7159WAT      O21718   8.406   9.719   4.103
 7159WAT     H121719   8.460   9.654   4.156
 7159WAT     H221720   8.309   9.697   4.110
 7160WAT      O21721   0.369   2.454   8.089
 7160WAT     H121722   0.352   2.505   8.005
 7160WAT     H221723   0.465   2.426   8.092
 7161WAT      O21724   5.490   8.158   0.230
 7161WAT     H121725   5.434   8.241   0.222
 7161WAT     H221726   5.556   8.170   0.304
 7162WAT      O21727   0.872   1.917   4.993
 7162WAT     H121728   0.814   1.923   4.911
 7162WAT     H221729   0.950   1.979   4.983
 7163WAT      O21730   9.767   3.830   3.659
 7163WAT     H121731   9.802   3.920   3.632
 7163WAT     H221732   9.720   3.838   3.747
 7164WAT      O21733   4.638   8.007   6.137
 7164WAT     H121734   4.686   7.921   6.119
 7164WAT     H221735   4.554   7.989   6.188
 7165WAT      O21736   6.611   4.946   8.576
 7165WAT     H121737   6.658   4.882   8.515
 7165WAT     H221738   6.546   4.897   8.633
 7166WAT      O21739   0.365   0.546   7.025
 7166WAT     H121740   0.461   0.571   7.020
 7166WAT     H221741   0.355   0.448   7.009
 7167WAT      O21742   5.649   5.699   6.135
 7167WAT     H121743   5.567   5.737   6.091
 7167WAT     H221744   5.727   5.759   6.118
 7168WAT      O21745   1.441   6.852   1.125
 7168WAT     H121746   1.369   6.892   1.183
 7168WAT     H221747   1.435   6.891   1.034
 7169WAT      O21748   4.745   3.954   8.578
 7169WAT     H121749   4.647   3.970   8.589
 7169WAT     H221750   4.795   4.039   8.595
 7170WAT      O21751   2.611   7.438   4.140
 7170WAT     H121752   2.623   7.489   4.056
 7170WAT     H221753   2.697   7.436   4.191
 7171WAT      O21754   2.847   1.543   3.734
 7171WAT     H121755   2.899   1.473   3.685
 7171WAT     H221756   2.910   1.611   3.771
 7172WAT      O21757   9.623   4.528   7.524
 7172WAT     H121758   9.721   4.516   7.536
 7172WAT     H221759   9.574   4.486   7.601
 7173WAT      O21760   6.594   5.538   0.527
 7173WAT     H121761   6.590   5.453   0.580
 7173WAT     H221762   6.684   5.580   0.539
 7174WAT      O21763   6.043   1.362   4.984
 7174WAT     H121764   5.966   1.342   5.046
 7174WAT     H221765   6.129   1.342   5.031
 7175WAT      O21766   2.558   8.826   1.390
 7175WAT     H121767   2.549   8.814   1.489
 7175WAT     H221768   2.573   8.922   1.369
 7176WAT      O21769   5.257   4.343   8.828
 7176WAT     H121770   5.316   4.364   8.906
 7176WAT     H221771   5.200   4.263   8.850
 7177WAT      O21772   8.204   8.440   8.343
 7177WAT     H121773   8.181   8.527   8.299
 7177WAT     H221774   8.199   8.366   8.276
 7178WAT      O21775   8.463   8.012   8.104
 7178WAT     H121776   8.549   7.961   8.097
 7178WAT     H221777   8.409   7.974   8.179
 7179WAT      O21778   0.978   7.309   8.353
 7179WAT     H121779   0.972   7.338   8.258
 7179WAT     H221780   1.038   7.230   8.360
 7180WAT      O21781   6.300   6.332   9.561
 7180WAT     H121782   6.367   6.369   9.626
 7180WAT     H221783   6.325   6.358   9.468
 7181WAT      O21784   3.417   2.119   7.521
 7181WAT     H121785   3.344   2.087   7.462
 7181WAT     H221786   3.379   2.146   7.610
 7182WAT      O21787   0.607   6.268   4.732
 7182WAT     H121788   0.542   6.313   4.792
 7182WAT     H221789   0.594   6.300   4.638
 7183WAT      O21790   3.581   3.031   5.153
 7183WAT     H121791   3.589   3.103   5.084
 7183WAT     H221792   3.528   3.065   5.231
 7184WAT      O21793   5.648   9.638   2.277
 7184WAT     H121794   5.604   9.581   2.346
 7184WAT     H221795   5.738   9.667   2.308
 7185WAT      O21796   4.020   1.791   7.013
 7185WAT     H121797   4.079   1.772   7.091
 7185WAT     H221798   3.944   1.850   7.041
 7186WAT      O21799   5.604   5.304   1.902
 7186WAT     H121800   5.535   5.235   1.878
 7186WAT     H221801   5.592   5.385   1.844
 7187WAT      O21802   0.174   0.366   1.460
 7187WAT     H121803   0.201   0.459   1.433
 7187WAT     H221804   0.084   0.368   1.503
 7188WAT      O21805   7.881   7.445   3.490
 7188WAT     H121806   7.948   7.505   3.447
 7188WAT     H221807   7.806   7.501   3.527
 7189WAT      O21808   9.504   8.523   7.201
 7189WAT     H121809   9.490   8.468   7.284
 7189WAT     H221810   9.548   8.610   7.226
 7190WAT      O21811   2.265   2.020   7.392
 7190WAT     H121812   2.197   2.078   7.437
 7190WAT     H221813   2.273   2.046   7.296
 7191WAT      O21814   1.322   2.545   7.591
 7191WAT     H121815   1.288   2.465   7.542
 7191WAT     H221816   1.355   2.613   7.525
 7192WAT      O21817   8.642   6.093   5.264
 7192WAT     H121818   8.714   6.025   5.281
 7192WAT     H221819   8.652   6.169   5.329
 7193WAT      O21820   6.158   7.555   4.819
 7193WAT     H121821   6.229   7.513   4.877
 7193WAT     H221822   6.147   7.651   4.845
 7194WAT      O21823   6.151   7.546   5.522
 7194WAT     H121824   6.077   7.551   5.455
 7194WAT     H221825   6.146   7.625   5.584
 7195WAT      O21826   9.030   4.777   3.154
 7195WAT     H121827   8.935   4.752   3.135
 7195WAT     H221828   9.037   4.877   3.164
 7196WAT      O21829   2.397   5.081   2.083
 7196WAT     H121830   2.307   5.046   2.105
 7196WAT     H221831   2.458   5.070   2.162
 7197WAT      O21832   6.999   4.592   0.523
 7197WAT     H121833   7.055   4.605   0.442
 7197WAT     H221834   6.902   4.599   0.498
 7198WAT      O21835   6.009   5.382   8.456
 7198WAT     H121836   6.084   5.316   8.454
 7198WAT     H221837   5.999   5.423   8.365
 7199WAT      O21838   9.756   4.455   1.458
 7199WAT     H121839   9.677   4.516   1.453
 7199WAT     H221840   9.830   4.492   1.403
 7200WAT      O21841   6.762   3.074   0.084
 7200WAT     H121842   6.735   3.136   0.010
 7200WAT     H221843   6.843   3.022   0.056
 7201WAT      O21844   0.376   7.530   0.539
 7201WAT     H121845   0.365   7.545   0.441
 7201WAT     H221846   0.418   7.440   0.555
 7202WAT      O21847   2.555   7.693   5.653
 7202WAT     H121848   2.508   7.643   5.725
 7202WAT     H221849   2.541   7.648   5.565
 7203WAT      O21850   5.485   7.691   4.388
 7203WAT     H121851   5.448   7.769   4.439
 7203WAT     H221852   5.501   7.718   4.293
 7204WAT      O21853   6.521   1.937   2.563
 7204WAT     H121854   6.597   1.883   2.527
 7204WAT     H221855   6.488   1.897   2.648
 7205WAT      O21856   1.209   5.795   3.409
 7205WAT     H121857   1.198   5.764   3.503
 7205WAT     H221858   1.299   5.769   3.375
 7206WAT      O21859   7.521   5.453   0.461
 7206WAT     H121860   7.618   5.429   0.460
 7206WAT     H221861   7.495   5.495   0.374
 7207WAT      O21862   2.969   4.703   7.924
 7207WAT     H121863   3.047   4.645   7.902
 7207WAT     H221864   2.902   4.698   7.851
 7208WAT      O21865   4.591   8.646   8.532
 7208WAT     H121866   4.606   8.646   8.433
 7208WAT     H221867   4.678   8.630   8.579
 7209WAT      O21868   1.672   9.124   1.183
 7209WAT     H121869   1.719   9.131   1.095
 7209WAT     H221870   1.631   9.033   1.192
 7210WAT      O21871   6.146   4.983   2.833
 7210WAT     H121872   6.078   4.914   2.807
 7210WAT     H221873   6.238   4.948   2.816
 7211WAT      O21874   9.578   9.225   6.435
 7211WAT     H121875   9.594   9.306   6.378
 7211WAT     H221876   9.605   9.245   6.530
 7212WAT      O21877   1.889   6.340   8.368
 7212WAT     H121878   1.989   6.341   8.359
 7212WAT     H221879   1.852   6.265   8.313
 7213WAT      O21880   0.593   6.293   8.548
 7213WAT     H121881   0.566   6.374   8.599
 7213WAT     H221882   0.671   6.315   8.489
 7214WAT      O21883   6.121   5.018   6.593
 7214WAT     H121884   6.107   5.092   6.658
 7214WAT     H221885   6.039   4.961   6.589
 7215WAT      O21886   9.187   6.599   6.285
 7215WAT     H121887   9.148   6.623   6.374
 7215WAT     H221888   9.278   6.559   6.298
 7216WAT      O21889   4.529   8.299   7.893
 7216WAT     H121890   4.534   8.258   7.985
 7216WAT     H221891   4.518   8.226   7.825
 7217WAT      O21892   9.792   4.506   8.903
 7217WAT     H121893   9.738   4.590   8.898
 7217WAT     H221894   9.741   4.437   8.954
 7218WAT      O21895   4.559   6.985   1.972
 7218WAT     H121896   4.610   7.065   2.004
 7218WAT     H221897   4.464   7.010   1.957
 7219WAT      O21898   9.123   0.788   7.529
 7219WAT     H121899   9.222   0.771   7.524
 7219WAT     H221900   9.079   0.714   7.581
 7220WAT      O21901   4.829   2.293   8.085
 7220WAT     H121902   4.738   2.255   8.100
 7220WAT     H221903   4.895   2.219   8.074
 7221WAT      O21904   6.290   4.894   0.766
 7221WAT     H121905   6.250   4.985   0.752
 7221WAT     H221906   6.291   4.873   0.864
 7222WAT      O21907   2.983   4.746   6.294
 7222WAT     H121908   2.926   4.672   6.258
 7222WAT     H221909   2.934   4.833   6.285
 7223WAT      O21910   9.564   1.720   7.525
 7223WAT     H121911   9.476   1.755   7.558
 7223WAT     H221912   9.569   1.622   7.542
 7224WAT      O21913   1.203   5.689   6.991
 7224WAT     H121914   1.233   5.707   6.898
 7224WAT     H221915   1.220   5.769   7.048
 7225WAT      O21916   6.101   8.504   6.399
 7225WAT     H121917   6.025   8.546   6.351
 7225WAT     H221918   6.123   8.416   6.357
 7226WAT      O21919   6.262   5.407   7.667
 7226WAT     H121920   6.196   5.340   7.635
 7226WAT     H221921   6.214   5.484   7.710
 7227WAT      O21922   7.926   6.461   7.057
 7227WAT     H121923   7.850   6.486   7.116
 7227WAT     H221924   7.936   6.362   7.054
 7228WAT      O21925   6.005   2.276   9.034
 7228WAT     H121926   6.033   2.370   9.049
 7228WAT     H221927   5.977   2.235   9.121
 7229WAT      O21928   6.346   5.966   4.153
 7229WAT     H121929   6.438   5.959   4.114
 7229WAT     H221930   6.336   6.054   4.199
 7230WAT      O21931   0.844   0.241   2.471
 7230WAT     H121932   0.849   0.337   2.499
 7230WAT     H221933   0.807   0.235   2.379
 7231WAT      O21934   3.953   7.471   2.674
 7231WAT     H121935   3.976   7.567   2.692
 7231WAT     H221936   3.894   7.436   2.747
 7232WAT      O21937   8.834   7.739   2.029
 7232WAT     H121938   8.739   7.741   2.059
 7232WAT     H221939   8.894   7.723   2.108
 7233WAT      O21940   4.213   6.756   9.698
 7233WAT     H121941   4.139   6.709   9.649
 7233WAT     H221942   4.300   6.712   9.677
 7234WAT      O21943   0.060   5.504   7.397
 7234WAT     H121944   0.156   5.500   7.427
 7234WAT     H221945   0.054   5.554   7.311
 7235WAT      O21946   7.516   4.109   6.333
 7235WAT     H121947   7.500   4.094   6.431
 7235WAT     H221948   7.503   4.022   6.285
 7236WAT      O21949   7.498   3.965   7.899
 7236WAT     H121950   7.454   3.948   7.810
 7236WAT     H221951   7.427   3.971   7.970
 7237WAT      O21952   1.864   6.196   4.676
 7237WAT     H121953   1.823   6.287   4.684
 7237WAT     H221954   1.895   6.165   4.766
 7238WAT      O21955   2.076   4.975   3.893
 7238WAT     H121956   1.980   4.994   3.911
 7238WAT     H221957   2.113   5.044   3.831
 7239WAT      O21958   7.785   4.786   7.902
 7239WAT     H121959   7.860   4.723   7.885
 7239WAT     H221960   7.821   4.877   7.922
 7240WAT      O21961   1.768   3.110   5.706
 7240WAT     H121962   1.821   3.118   5.790
 7240WAT     H221963   1.739   3.201   5.675
 7241WAT      O21964   7.910   2.856   1.774
 7241WAT     H121965   7.831   2.817   1.726
 7241WAT     H221966   7.971   2.899   1.708
 7242WAT      O21967   2.489   6.287   3.626
 7242WAT     H121968   2.445   6.318   3.710
 7242WAT     H221969   2.485   6.187   3.621
 7243WAT      O21970   2.926   8.173   4.498
 7243WAT     H121971   2.896   8.268   4.496
 7243WAT     H221972   2.984   8.154   4.419
 7244WAT      O21973   8.144   3.149   2.452
 7244WAT     H121974   8.062   3.175   2.503
 7244WAT     H221975   8.158   3.050   2.458
 7245WAT      O21976   8.688   7.596   7.952
 7245WAT     H121977   8.630   7.518   7.930
 7245WAT     H221978   8.683   7.663   7.878
 7246WAT      O21979   1.847   6.239   8.647
 7246WAT     H121980   1.836   6.285   8.559
 7246WAT     H221981   1.943   6.216   8.661
 7247WAT      O21982   0.833   3.884   1.472
 7247WAT     H121983   0.933   3.878   1.472
 7247WAT     H221984   0.805   3.964   1.419
 7248WAT      O21985   8.022   0.766   6.172
 7248WAT     H121986   7.941   0.792   6.224
 7248WAT     H221987   7.994   0.726   6.085
 7249WAT      O21988   6.695   4.926   6.108
 7249WAT     H121989   6.664   4.849   6.053
 7249WAT     H221990   6.766   4.976   6.059
 7250WAT      O21991   6.362   2.163   8.313
 7250WAT     H121992   6.290   2.205   8.259
 7250WAT     H221993   6.431   2.124   8.253
 7251WAT      O21994   6.866   6.343   2.776
 7251WAT     H121995   6.944   6.383   2.727
 7251WAT     H221996   6.883   6.246   2.790
 7252WAT      O21997   0.485   3.097   0.340
 7252WAT     H121998   0.528   3.183   0.369
 7252WAT     H221999   0.479   3.035   0.419
 7253WAT      O22000   7.516   4.846   3.828
 7253WAT     H122001   7.516   4.846   3.928
 7253WAT     H222002   7.548   4.758   3.794
 7254WAT      O22003   6.973   7.185   2.126
 7254WAT     H122004   6.891   7.168   2.071
 7254WAT     H222005   6.996   7.282   2.123
 7255WAT      O22006   1.423   1.063   8.233
 7255WAT     H122007   1.473   1.050   8.319
 7255WAT     H222008   1.367   0.983   8.215
 7256WAT      O22009   9.534   0.290   9.230
 7256WAT     H122010   9.613   0.269   9.172
 7256WAT     H222011   9.453   0.300   9.174
 7257WAT      O22012   4.620   8.759   7.604
 7257WAT     H122013   4.677   8.752   7.522
 7257WAT     H222014   4.538   8.703   7.593
 7258WAT      O22015   1.473   3.637   0.113
 7258WAT     H122016   1.520   3.557   0.075
 7258WAT     H222017   1.491   3.716   0.055
 7259WAT      O22018   8.637   0.123   0.664
 7259WAT     H122019   8.671   0.135   0.757
 7259WAT     H222020   8.584   0.038   0.658
 7260WAT      O22021   4.986   3.916   2.544
 7260WAT     H122022   5.050   3.991   2.558
 7260WAT     H222023   4.968   3.870   2.631
 7261WAT      O22024   6.039   1.654   2.121
 7261WAT     H122025   6.034   1.749   2.152
 7261WAT     H222026   5.999   1.594   2.189
 7262WAT      O22027   1.515   2.010   9.035
 7262WAT     H122028   1.428   2.059   9.036
 7262WAT     H222029   1.551   2.004   9.127
 7263WAT      O22030   0.647   4.172   6.830
 7263WAT     H122031   0.615   4.153   6.737
 7263WAT     H222032   0.709   4.100   6.860
 7264WAT      O22033   6.269   9.447   9.846
 7264WAT     H122034   6.195   9.510   9.821
 7264WAT     H222035   6.323   9.487   9.921
 7265WAT      O22036   2.473   2.198   6.930
 7265WAT     H122037   2.425   2.236   6.851
 7265WAT     H222038   2.501   2.104   6.910
 7266WAT      O22039   9.070   4.335   3.337
 7266WAT     H122040   9.088   4.237   3.322
 7266WAT     H222041   9.129   4.389   3.278
 7267WAT      O22042   9.775   0.741   4.721
 7267WAT     H122043   9.809   0.685   4.646
 7267WAT     H222044   9.732   0.823   4.684
 7268WAT      O22045   7.135   0.585   8.990
 7268WAT     H122046   7.211   0.537   8.947
 7268WAT     H222047   7.062   0.520   9.011
 7269WAT      O22048   4.756   8.022   9.586
 7269WAT     H122049   4.738   8.117   9.610
 7269WAT     H222050   4.820   8.018   9.509
 7270WAT      O22051   0.426   5.846   0.852
 7270WAT     H122052   0.396   5.776   0.918
 7270WAT     H222053   0.411   5.937   0.891
 7271WAT      O22054   1.447   7.264   1.563
 7271WAT     H122055   1.391   7.242   1.483
 7271WAT     H222056   1.441   7.189   1.629
 7272WAT      O22057   3.202   4.086   8.572
 7272WAT     H122058   3.190   4.085   8.672
 7272WAT     H222059   3.274   4.021   8.547
 7273WAT      O22060   5.208   8.899   6.117
 7273WAT     H122061   5.174   8.927   6.027
 7273WAT     H222062   5.146   8.930   6.188
 7274WAT      O22063   6.737   1.110   9.822
 7274WAT     H122064   6.788   1.188   9.859
 7274WAT     H222065   6.745   1.109   9.722
 7275WAT      O22066   3.936   2.598   6.444
 7275WAT     H122067   3.858   2.634   6.496
 7275WAT     H222068   3.996   2.546   6.505
 7276WAT      O22069   3.804   8.708   1.662
 7276WAT     H122070   3.882   8.685   1.605
 7276WAT     H222071   3.834   8.765   1.738
 7277WAT      O22072   0.161   8.057   6.294
 7277WAT     H122073   0.130   8.146   6.326
 7277WAT     H222074   0.140   7.988   6.364
 7278WAT      O22075   1.817   4.476   6.577
 7278WAT     H122076   1.835   4.568   6.611
 7278WAT     H222077   1.733   4.476   6.523
 7279WAT      O22078   5.423   2.676   9.000
 7279WAT     H122079   5.461   2.667   8.908
 7279WAT     H222080   5.342   2.618   9.008
 7280WAT      O22081   2.459   6.985   4.148
 7280WAT     H122082   2.432   6.924   4.223
 7280WAT     H222083   2.508   6.932   4.078
 7281WAT      O22084   4.599   8.979   8.367
 7281WAT     H122085   4.575   8.929   8.451
 7281WAT     H222086   4.528   8.966   8.298
 7282WAT      O22087   3.505   3.023   0.293
 7282WAT     H122088   3.540   3.001   0.202
 7282WAT     H222089   3.549   3.106   0.327
 7283WAT      O22090   0.631   7.364   9.533
 7283WAT     H122091   0.694   7.290   9.505
 7283WAT     H222092   0.592   7.406   9.451
 7284WAT      O22093   8.575   5.347   0.933
 7284WAT     H122094   8.493   5.372   0.986
 7284WAT     H222095   8.553   5.350   0.835
 7285WAT      O22096   5.221   0.010   2.279
 7285WAT     H122097   5.239  -0.021   2.372
 7285WAT     H222098   5.295  -0.021   2.219
 7286WAT      O22099   8.106   6.413   3.732
 7286WAT     H122100   8.082   6.500   3.775
 7286WAT     H222101   8.204   6.396   3.742
 7287WAT      O22102   8.386   4.262   0.728
 7287WAT     H122103   8.452   4.335   0.711
 7287WAT     H222104   8.332   4.284   0.809
 7288WAT      O22105   2.603   6.487   9.484
 7288WAT     H122106   2.690   6.537   9.485
 7288WAT     H222107   2.528   6.551   9.500
 7289WAT      O22108   9.505   8.320   7.384
 7289WAT     H122109   9.600   8.327   7.415
 7289WAT     H222110   9.494   8.239   7.326
 7290WAT      O22111   8.165   3.781   5.945
 7290WAT     H122112   8.095   3.753   5.879
 7290WAT     H222113   8.219   3.701   5.972
 7291WAT      O22114   8.659   7.710   5.132
 7291WAT     H122115   8.670   7.808   5.148
 7291WAT     H222116   8.734   7.660   5.175
 7292WAT      O22117   2.924   8.918   4.112
 7292WAT     H122118   2.919   8.912   4.012
 7292WAT     H222119   3.018   8.938   4.139
 7293WAT      O22120   4.646   1.742   8.488
 7293WAT     H122121   4.599   1.819   8.531
 7293WAT     H222122   4.656   1.668   8.555
 7294WAT      O22123   9.566   7.164   0.481
 7294WAT     H122124   9.521   7.252   0.471
 7294WAT     H222125   9.627   7.166   0.560
 7295WAT      O22126   2.161   5.461   2.301
 7295WAT     H122127   2.245   5.438   2.350
 7295WAT     H222128   2.110   5.529   2.352
 7296WAT      O22129   0.609   6.448   0.818
 7296WAT     H122130   0.536   6.466   0.752
 7296WAT     H222131   0.687   6.508   0.799
 7297WAT      O22132   3.417   8.387   0.168
 7297WAT     H122133   3.444   8.378   0.072
 7297WAT     H222134   3.323   8.354   0.179
 7298WAT      O22135   2.379   7.802   0.287
 7298WAT     H122136   2.373   7.705   0.311
 7298WAT     H222137   2.289   7.835   0.258
 7299WAT      O22138   9.891   3.501   9.419
 7299WAT     H122139   9.845   3.493   9.508
 7299WAT     H222140   9.864   3.588   9.376
 7300WAT      O22141   4.761   7.747   7.801
 7300WAT     H122142   4.822   7.697   7.740
 7300WAT     H222143   4.729   7.686   7.874
 7301WAT      O22144   0.066   6.122   2.306
 7301WAT     H122145   0.044   6.071   2.389
 7301WAT     H222146  -0.014   6.174   2.277
 7302WAT      O22147   8.049   6.126   6.879
 7302WAT     H122148   8.141   6.154   6.906
 7302WAT     H222149   8.026   6.168   6.791
 7303WAT      O22150   5.279   8.695   4.020
 7303WAT     H122151   5.223   8.641   3.957
 7303WAT     H222152   5.301   8.783   3.978
 7304WAT      O22153   9.226   0.244   6.223
 7304WAT     H122154   9.297   0.311   6.204
 7304WAT     H222155   9.160   0.244   6.148
 7305WAT      O22156   0.239   6.431   4.129
 7305WAT     H122157   0.199   6.353   4.081
 7305WAT     H222158   0.177   6.460   4.202
 7306WAT      O22159   0.474   7.361   4.594
 7306WAT     H122160   0.511   7.284   4.541
 7306WAT     H222161   0.542   7.389   4.662
 7307WAT      O22162   8.127   8.338   0.025
 7307WAT     H122163   8.145   8.265  -0.041
 7307WAT     H222164   8.163   8.424  -0.011
 7308WAT      O22165   0.898   7.435   2.580
 7308WAT     H122166   0.986   7.442   2.533
 7308WAT     H222167   0.900   7.358   2.643
 7309WAT      O22168   5.926   4.167   2.906
 7309WAT     H122169   5.990   4.178   2.830
 7309WAT     H222170   5.843   4.220   2.887
 7310WAT      O22171   9.041   2.905   0.706
 7310WAT     H122172   8.961   2.935   0.655
 7310WAT     H222173   9.071   2.816   0.671
 7311WAT      O22174   9.296   2.034   1.032
 7311WAT     H122175   9.251   1.944   1.029
 7311WAT     H222176   9.247   2.097   0.973
 7312WAT      O22177   6.406   2.318   7.422
 7312WAT     H122178   6.491   2.303   7.473
 7312WAT     H222179   6.384   2.237   7.368
 7313WAT      O22180   0.481   0.881   3.507
 7313WAT     H122181   0.539   0.806   3.475
 7313WAT     H222182   0.537   0.962   3.523
 7314WAT      O22183   7.569   8.302   2.709
 7314WAT     H122184   7.645   8.325   2.647
 7314WAT     H222185   7.556   8.376   2.775
 7315WAT      O22186   1.208   3.222   0.421
 7315WAT     H122187   1.131   3.273   0.459
 7315WAT     H222188   1.286   3.284   0.409
 7316WAT      O22189   5.793   7.569   1.399
 7316WAT     H122190   5.818   7.584   1.303
 7316WAT     H222191   5.775   7.657   1.443
 7317WAT      O22192   0.696   7.571   1.916
 7317WAT     H122193   0.603   7.607   1.930
 7317WAT     H222194   0.727   7.594   1.824
 7318WAT      O22195   1.990   0.411   6.413
 7318WAT     H122196   2.088   0.418   6.392
 7318WAT     H222197   1.965   0.315   6.423
 7319WAT      O22198   7.773   5.664   4.195
 7319WAT     H122199   7.765   5.722   4.114
 7319WAT     H222200   7.842   5.593   4.179
 7320WAT      O22201   8.742   4.276   4.320
 7320WAT     H122202   8.683   4.279   4.400
 7320WAT     H222203   8.833   4.309   4.344
 7321WAT      O22204   9.550   1.250   5.188
 7321WAT     H122205   9.466   1.200   5.166
 7321WAT     H222206   9.609   1.254   5.107
 7322WAT      O22207   8.633   0.460   8.909
 7322WAT     H122208   8.587   0.549   8.911
 7322WAT     H222209   8.597   0.402   8.982
 7323WAT      O22210   6.299   8.824   4.869
 7323WAT     H122211   6.267   8.863   4.782
 7323WAT     H222212   6.373   8.880   4.905
 7324WAT      O22213   0.613   4.549   1.230
 7324WAT     H122214   0.701   4.503   1.224
 7324WAT     H222215   0.615   4.633   1.176
 7325WAT      O22216   5.742   9.662   6.413
 7325WAT     H122217   5.754   9.601   6.335
 7325WAT     H222218   5.651   9.648   6.452
 7326WAT      O22219   6.102   9.664   2.236
 7326WAT     H122220   6.088   9.571   2.201
 7326WAT     H222221   6.027   9.687   2.298
 7327WAT      O22222   2.652   8.978   7.399
 7327WAT     H122223   2.724   9.034   7.439
 7327WAT     H222224   2.689   8.925   7.323
 7328WAT      O22225   9.745   9.092   7.659
 7328WAT     H122226   9.672   9.032   7.691
 7328WAT     H222227   9.792   9.132   7.738
 7329WAT      O22228   6.829   1.620   9.263
 7329WAT     H122229   6.844   1.522   9.257
 7329WAT     H222230   6.746   1.637   9.317
 7330WAT      O22231   7.819   8.236   4.287
 7330WAT     H122232   7.789   8.241   4.382
 7330WAT     H222233   7.902   8.181   4.281
 7331WAT      O22234   4.389   5.189   8.172
 7331WAT     H122235   4.462   5.161   8.235
 7331WAT     H222236   4.378   5.288   8.175
 7332WAT      O22237   2.630   2.259   0.303
 7332WAT     H122238   2.724   2.281   0.327
 7332WAT     H222239   2.621   2.256   0.204
 7333WAT      O22240   9.691   0.285   6.271
 7333WAT     H122241   9.679   0.266   6.368
 7333WAT     H222242   9.608   0.328   6.235
 7334WAT      O22243   5.557   7.327   8.990
 7334WAT     H122244   5.599   7.280   9.067
 7334WAT     H222245   5.570   7.274   8.907
 7335WAT      O22246   2.078   5.524   2.564
 7335WAT     H122247   1.995   5.555   2.610
 7335WAT     H222248   2.158   5.545   2.621
 7336WAT      O22249   3.291   8.312   7.496
 7336WAT     H122250   3.221   8.357   7.442
 7336WAT     H222251   3.249   8.243   7.555
 7337WAT      O22252   0.867   3.868   7.382
 7337WAT     H122253   0.886   3.962   7.413
 7337WAT     H222254   0.940   3.808   7.412
 7338WAT      O22255   9.418   4.967   9.233
 7338WAT     H122256   9.367   4.947   9.149
 7338WAT     H222257   9.414   5.065   9.252
 7339WAT      O22258   1.701   3.252   6.797
 7339WAT     H122259   1.798   3.273   6.787
 7339WAT     H222260   1.690   3.158   6.830
 7340WAT      O22261   1.114   4.235   1.727
 7340WAT     H122262   1.165   4.318   1.707
 7340WAT     H222263   1.019   4.247   1.697
 7341WAT      O22264   5.485   5.921   9.730
 7341WAT     H122265   5.568   5.976   9.726
 7341WAT     H222266   5.430   5.937   9.647
 7342WAT      O22267   1.797   6.466   1.588
 7342WAT     H122268   1.885   6.447   1.543
 7342WAT     H222269   1.732   6.394   1.564
 7343WAT      O22270   5.697   8.694   3.733
 7343WAT     H122271   5.749   8.708   3.649
 7343WAT     H222272   5.729   8.757   3.803
 7344WAT      O22273   6.352   0.870   1.503
 7344WAT     H122274   6.441   0.833   1.529
 7344WAT     H222275   6.327   0.839   1.411
 7345WAT      O22276   8.132   7.685   3.187
 7345WAT     H122277   8.203   7.633   3.139
 7345WAT     H222278   8.096   7.756   3.127
 7346WAT      O22279   5.587   6.188   1.488
 7346WAT     H122280   5.676   6.208   1.448
 7346WAT     H222281   5.521   6.257   1.461
 7347WAT      O22282   2.178   4.481   9.129
 7347WAT     H122283   2.248   4.509   9.195
 7347WAT     H222284   2.109   4.553   9.121
 7348WAT      O22285   9.096   7.293   5.432
 7348WAT     H122286   9.150   7.325   5.510
 7348WAT     H222287   9.117   7.347   5.352
 7349WAT      O22288   2.611   3.977   2.767
 7349WAT     H122289   2.580   4.048   2.831
 7349WAT     H222290   2.710   3.984   2.756
 7350WAT      O22291   3.194   3.401   4.535
 7350WAT     H122292   3.219   3.321   4.589
 7350WAT     H222293   3.115   3.380   4.478
 7351WAT      O22294   0.715   7.670   5.974
 7351WAT     H122295   0.661   7.633   5.899
 7351WAT     H222296   0.741   7.765   5.953
 7352WAT      O22297   5.884   6.947   6.560
 7352WAT     H122298   5.812   6.898   6.609
 7352WAT     H222299   5.969   6.895   6.564
 7353WAT      O22300   0.328   6.861   1.356
 7353WAT     H122301   0.363   6.869   1.449
 7353WAT     H222302   0.384   6.795   1.305
 7354WAT      O22303   9.464   8.191   7.951
 7354WAT     H122304   9.395   8.150   7.891
 7354WAT     H222305   9.499   8.121   8.014
 7355WAT      O22306   7.242   5.167   4.085
 7355WAT     H122307   7.188   5.250   4.101
 7355WAT     H222308   7.327   5.192   4.039
 7356WAT      O22309   7.113   3.659   2.038
 7356WAT     H122310   7.162   3.686   2.121
 7356WAT     H222311   7.109   3.559   2.032
 7357WAT      O22312   7.102   6.681   7.144
 7357WAT     H122313   7.146   6.683   7.055
 7357WAT     H222314   7.149   6.615   7.203
 7358WAT      O22315   9.661   9.817   4.181
 7358WAT     H122316   9.583   9.755   4.195
 7358WAT     H222317   9.628   9.904   4.145
 7359WAT      O22318   5.757   2.198   6.354
 7359WAT     H122319   5.824   2.272   6.342
 7359WAT     H222320   5.682   2.209   6.289
 7360WAT      O22321   9.466   1.545   3.307
 7360WAT     H122322   9.370   1.522   3.291
 7360WAT     H222323   9.524   1.466   3.284
 7361WAT      O22324   5.422   1.275   9.300
 7361WAT     H122325   5.389   1.193   9.347
 7361WAT     H222326   5.518   1.290   9.322
 7362WAT      O22327   0.480   5.988   2.345
 7362WAT     H122328   0.519   5.901   2.377
 7362WAT     H222329   0.523   6.064   2.395
 7363WAT      O22330   0.500   9.838   1.647
 7363WAT     H122331   0.564   9.912   1.629
 7363WAT     H222332   0.550   9.752   1.661
 7364WAT      O22333   8.017   8.276   3.816
 7364WAT     H122334   7.941   8.263   3.880
 7364WAT     H222335   8.085   8.337   3.857
 7365WAT      O22336   4.719   0.122   0.945
 7365WAT     H122337   4.621   0.113   0.959
 7365WAT     H222338   4.744   0.219   0.945
 7366WAT      O22339   9.276   1.793   8.712
 7366WAT     H122340   9.348   1.725   8.727
 7366WAT     H222341   9.303   1.879   8.753
 7367WAT      O22342   7.928   8.077   7.813
 7367WAT     H122343   7.969   8.108   7.728
 7367WAT     H222344   7.923   8.153   7.878
 7368WAT      O22345   3.943   2.138   2.649
 7368WAT     H122346   4.027   2.085   2.641
 7368WAT     H222347   3.962   2.224   2.696
 7369WAT      O22348   3.460   8.915   4.372
 7369WAT     H122349   3.531   8.922   4.442
 7369WAT     H222350   3.370   8.923   4.414
 7370WAT      O22351   2.395   2.823   1.432
 7370WAT     H122352   2.432   2.798   1.343
 7370WAT     H222353   2.427   2.914   1.458
 7371WAT      O22354   9.857   7.396   6.984
 7371WAT     H122355   9.790   7.395   6.909
 7371WAT     H222356   9.934   7.455   6.959
 7372WAT      O22357   0.613   3.705   4.727
 7372WAT     H122358   0.526   3.734   4.687
 7372WAT     H222359   0.598   3.676   4.822
 7373WAT      O22360   3.663   8.900   6.189
 7373WAT     H122361   3.644   8.989   6.147
 7373WAT     H222362   3.612   8.829   6.142
 7374WAT      O22363   7.511   0.448   1.748
 7374WAT     H122364   7.510   0.515   1.822
 7374WAT     H222365   7.588   0.466   1.687
 7375WAT      O22366   5.701   9.202   8.413
 7375WAT     H122367   5.780   9.157   8.456
 7375WAT     H222368   5.714   9.206   8.314
 7376WAT      O22369   4.137   2.357   3.257
 7376WAT     H122370   4.188   2.437   3.228
 7376WAT     H222371   4.114   2.365   3.354
 7377WAT      O22372   5.894   9.338   9.147
 7377WAT     H122373   5.857   9.425   9.178
 7377WAT     H222374   5.968   9.309   9.206
 7378WAT      O22375   3.587   0.930   9.882
 7378WAT     H122376   3.531   1.007   9.911
 7378WAT     H222377   3.533   0.869   9.825
 7379WAT      O22378   5.312   1.953   4.312
 7379WAT     H122379   5.283   1.871   4.363
 7379WAT     H222380   5.244   1.975   4.242
 7380WAT      O22381   3.623   6.959   0.500
 7380WAT     H122382   3.542   6.909   0.470
 7380WAT     H222383   3.676   6.987   0.421
 7381WAT      O22384   2.244   4.489   3.265
 7381WAT     H122385   2.288   4.438   3.339
 7381WAT     H222386   2.263   4.446   3.177
 7382WAT      O22387   4.694   7.383   7.841
 7382WAT     H122388   4.681   7.457   7.907
 7382WAT     H222389   4.729   7.420   7.755
 7383WAT      O22390   0.575   8.420   2.529
 7383WAT     H122391   0.563   8.364   2.611
 7383WAT     H222392   0.616   8.508   2.554
 7384WAT      O22393   8.269   7.304   4.115
 7384WAT     H122394   8.212   7.295   4.033
 7384WAT     H222395   8.215   7.280   4.196
 7385WAT      O22396   4.925   9.299   5.752
 7385WAT     H122397   4.846   9.353   5.782
 7385WAT     H222398   4.970   9.259   5.832
 7386WAT      O22399   0.972   4.630   6.639
 7386WAT     H122400   1.036   4.638   6.716
 7386WAT     H222401   0.971   4.716   6.589
 7387WAT      O22402   9.319   1.555   1.628
 7387WAT     H122403   9.274   1.493   1.692
 7387WAT     H222404   9.364   1.628   1.678
 7388WAT      O22405   6.755   3.263   5.859
 7388WAT     H122406   6.729   3.247   5.954
 7388WAT     H222407   6.708   3.344   5.824
 7389WAT      O22408   4.978   3.287   7.632
 7389WAT     H122409   4.891   3.267   7.677
 7389WAT     H222410   4.973   3.378   7.590
 7390WAT      O22411   0.991   0.411   9.400
 7390WAT     H122412   0.923   0.408   9.327
 7390WAT     H222413   1.064   0.347   9.380
 7391WAT      O22414   5.819   4.540   6.978
 7391WAT     H122415   5.727   4.553   6.942
 7391WAT     H222416   5.883   4.525   6.903
 7392WAT      O22417   2.635   0.829   6.538
 7392WAT     H122418   2.716   0.877   6.572
 7392WAT     H222419   2.591   0.885   6.468
 7393WAT      O22420   5.148   9.314   4.780
 7393WAT     H122421   5.119   9.226   4.741
 7393WAT     H222422   5.133   9.386   4.712
 7394WAT      O22423   6.140   0.587   6.553
 7394WAT     H122424   6.214   0.589   6.486
 7394WAT     H222425   6.113   0.493   6.572
 7395WAT      O22426   0.417   7.870   2.144
 7395WAT     H122427   0.420   7.786   2.199
 7395WAT     H222428   0.351   7.859   2.070
 7396WAT      O22429   3.446   9.028   8.977
 7396WAT     H122430   3.465   9.123   8.999
 7396WAT     H222431   3.461   8.972   9.059
 7397WAT      O22432   9.856   5.907   2.128
 7397WAT     H122433   9.806   5.825   2.099
 7397WAT     H222434   9.798   5.962   2.188
 7398WAT      O22435   6.878   0.558   6.547
 7398WAT     H122436   6.831   0.625   6.490
 7398WAT     H222437   6.900   0.599   6.635
 7399WAT      O22438   9.549   3.513   0.368
 7399WAT     H122439   9.473   3.450   0.379
 7399WAT     H222440   9.516   3.600   0.330
 7400WAT      O22441   8.851   2.360   4.531
 7400WAT     H122442   8.794   2.396   4.457
 7400WAT     H222443   8.793   2.339   4.610
 7401WAT      O22444   5.316   0.887   8.347
 7401WAT     H122445   5.235   0.890   8.405
 7401WAT     H222446   5.317   0.800   8.296
 7402WAT      O22447   3.874   9.473   9.500
 7402WAT     H122448   3.951   9.516   9.546
 7402WAT     H222449   3.884   9.483   9.401
 7403WAT      O22450   7.714   2.704   3.744
 7403WAT     H122451   7.783   2.664   3.805
 7403WAT     H222452   7.754   2.780   3.693
 7404WAT      O22453   6.846   1.094   5.812
 7404WAT     H122454   6.779   1.096   5.737
 7404WAT     H222455   6.858   1.000   5.843
 7405WAT      O22456   1.174   6.495   0.805
 7405WAT     H122457   1.086   6.448   0.804
 7405WAT     H222458   1.246   6.433   0.772
 7406WAT      O22459   0.970   6.301   7.637
 7406WAT     H122460   1.014   6.386   7.609
 7406WAT     H222461   1.037   6.227   7.640
 7407WAT      O22462   9.680   3.063   0.247
 7407WAT     H122463   9.724   3.047   0.158
 7407WAT     H222464   9.593   3.015   0.249
 7408WAT      O22465   7.838   5.881   8.197
 7408WAT     H122466   7.810   5.854   8.289
 7408WAT     H222467   7.758   5.883   8.137
 7409WAT      O22468   6.154   3.755   6.997
 7409WAT     H122469   6.110   3.731   7.083
 7409WAT     H222470   6.239   3.804   7.015
 7410WAT      O22471   3.702   6.452   5.230
 7410WAT     H122472   3.712   6.543   5.190
 7410WAT     H222473   3.708   6.383   5.157
 7411WAT      O22474   2.498   7.306   5.509
 7411WAT     H122475   2.552   7.225   5.485
 7411WAT     H222476   2.513   7.329   5.605
 7412WAT      O22477   8.527   4.598   6.945
 7412WAT     H122478   8.604   4.583   6.884
 7412WAT     H222479   8.452   4.535   6.922
 7413WAT      O22480   0.389   1.857   9.794
 7413WAT     H122481   0.390   1.956   9.786
 7413WAT     H222482   0.398   1.831   9.891
 7414WAT      O22483   0.571   4.847   1.826
 7414WAT     H122484   0.624   4.816   1.905
 7414WAT     H222485   0.633   4.886   1.758
 7415WAT      O22486   7.959   4.255   7.424
 7415WAT     H122487   7.949   4.155   7.418
 7415WAT     H222488   8.043   4.277   7.473
 7416WAT      O22489   9.742   2.135   8.972
 7416WAT     H122490   9.831   2.093   8.954
 7416WAT     H222491   9.685   2.130   8.891
 7417WAT      O22492   8.847   5.448   1.233
 7417WAT     H122493   8.946   5.457   1.242
 7417WAT     H222494   8.803   5.533   1.261
 7418WAT      O22495   3.230   2.180   5.847
 7418WAT     H122496   3.246   2.127   5.930
 7418WAT     H222497   3.277   2.268   5.854
 7419WAT      O22498   4.166   4.484   2.430
 7419WAT     H122499   4.134   4.573   2.464
 7419WAT     H222500   4.087   4.429   2.404
 7420WAT      O22501   8.876   5.903   9.815
 7420WAT     H122502   8.844   5.851   9.894
 7420WAT     H222503   8.835   5.866   9.732
 7421WAT      O22504   9.793   0.301   2.579
 7421WAT     H122505   9.855   0.342   2.512
 7421WAT     H222506   9.725   0.245   2.531
 7422WAT      O22507   4.590   5.188   0.578
 7422WAT     H122508   4.550   5.277   0.556
 7422WAT     H222509   4.521   5.131   0.624
 7423WAT      O22510   8.322   4.972   2.561
 7423WAT     H122511   8.239   4.932   2.521
 7423WAT     H222512   8.362   4.907   2.626
 7424WAT      O22513   1.895   1.987   2.738
 7424WAT     H122514   1.971   2.046   2.711
 7424WAT     H222515   1.931   1.909   2.790
 7425WAT      O22516   2.384   4.146   0.856
 7425WAT     H122517   2.438   4.064   0.837
 7425WAT     H222518   2.377   4.159   0.955
 7426WAT      O22519   5.905   8.636   6.274
 7426WAT     H122520   5.821   8.584   6.290
 7426WAT     H222521   5.903   8.721   6.325
 7427WAT      O22522   4.138   8.512   4.402
 7427WAT     H122523   4.168   8.546   4.313
 7427WAT     H222524   4.217   8.502   4.462
 7428WAT      O22525   2.635   4.784   3.488
 7428WAT     H122526   2.664   4.840   3.565
 7428WAT     H222527   2.539   4.759   3.498
 7429WAT      O22528   3.577   2.087   9.888
 7429WAT     H122529   3.631   2.101   9.971
 7429WAT     H222530   3.557   2.175   9.845
 7430WAT      O22531   3.134   8.476   7.340
 7430WAT     H122532   3.139   8.503   7.244
 7430WAT     H222533   3.063   8.406   7.351
 7431WAT      O22534   6.623   7.450   6.324
 7431WAT     H122535   6.544   7.507   6.347
 7431WAT     H222536   6.697   7.468   6.387
 7432WAT      O22537   7.700   0.243   1.982
 7432WAT     H122538   7.751   0.328   1.978
 7432WAT     H222539   7.722   0.186   1.903
 7433WAT      O22540   1.086   8.228   0.822
 7433WAT     H122541   1.156   8.162   0.849
 7433WAT     H222542   1.000   8.181   0.804
 7434WAT      O22543   9.806   3.478   5.665
 7434WAT     H122544   9.804   3.417   5.743
 7434WAT     H222545   9.728   3.541   5.669
 7435WAT      O22546   9.510   0.169   8.616
 7435WAT     H122547   9.494   0.156   8.519
 7435WAT     H222548   9.603   0.205   8.630
 7436WAT      O22549   6.589   4.056   7.310
 7436WAT     H122550   6.545   4.000   7.240
 7436WAT     H222551   6.688   4.047   7.303
 7437WAT      O22552   6.555   7.077   3.070
 7437WAT     H122553   6.551   7.167   3.114
 7437WAT     H222554   6.602   7.086   2.982
 7438WAT      O22555   4.790   5.378   1.883
 7438WAT     H122556   4.882   5.350   1.854
 7438WAT     H222557   4.734   5.296   1.899
 7439WAT      O22558   1.219   0.173   4.376
 7439WAT     H122559   1.318   0.185   4.374
 7439WAT     H222560   1.175   0.258   4.346
 7440WAT      O22561   6.847   8.000   7.957
 7440WAT     H122562   6.765   8.031   7.908
 7440WAT     H222563   6.911   8.077   7.966
 7441WAT      O22564   6.468   6.414   9.775
 7441WAT     H122565   6.464   6.357   9.857
 7441WAT     H222566   6.432   6.505   9.795
 7442WAT      O22567   8.271   2.544   9.072
 7442WAT     H122568   8.349   2.572   9.016
 7442WAT     H222569   8.215   2.623   9.094
 7443WAT      O22570   4.647   7.750   1.711
 7443WAT     H122571   4.601   7.662   1.712
 7443WAT     H222572   4.699   7.759   1.626
 7444WAT      O22573   8.746   0.473   9.645
 7444WAT     H122574   8.837   0.449   9.610
 7444WAT     H222575   8.700   0.532   9.579
 7445WAT      O22576   0.226   2.306   9.844
 7445WAT     H122577   0.175   2.387   9.872
 7445WAT     H222578   0.177   2.259   9.770
 7446WAT      O22579   6.108   1.866   1.327
 7446WAT     H122580   6.077   1.820   1.244
 7446WAT     H222581   6.206   1.886   1.320
 7447WAT      O22582   2.610   9.836   1.452
 7447WAT     H122583   2.582   9.854   1.357
 7447WAT     H222584   2.634   9.922   1.497
 7448WAT      O22585   8.720   8.919   1.317
 7448WAT     H122586   8.792   8.871   1.368
 7448WAT     H222587   8.761   8.984   1.254
 7449WAT      O22588   1.963   0.782   8.650
 7449WAT     H122589   1.984   0.692   8.688
 7449WAT     H222590   1.912   0.836   8.717
 7450WAT      O22591   0.486   5.555   8.240
 7450WAT     H122592   0.516   5.460   8.252
 7450WAT     H222593   0.387   5.556   8.222
 7451WAT      O22594   8.209   7.248   5.395
 7451WAT     H122595   8.216   7.348   5.402
 7451WAT     H222596   8.180   7.210   5.483
 7452WAT      O22597   8.605   9.500   4.706
 7452WAT     H122598   8.581   9.555   4.626
 7452WAT     H222599   8.526   9.491   4.766
 7453WAT      O22600   4.339   0.613   1.419
 7453WAT     H122601   4.303   0.547   1.485
 7453WAT     H222602   4.371   0.695   1.466
 7454WAT      O22603   7.892   9.056   4.951
 7454WAT     H122604   7.852   9.079   5.039
 7454WAT     H222605   7.862   9.122   4.882
 7455WAT      O22606   8.900   7.300   4.681
 7455WAT     H122607   8.916   7.397   4.664
 7455WAT     H222608   8.900   7.283   4.779
 7456WAT      O22609   4.780   1.105   8.715
 7456WAT     H122610   4.847   1.157   8.767
 7456WAT     H222611   4.826   1.052   8.644
 7457WAT      O22612   2.360   4.741   5.445
 7457WAT     H122613   2.328   4.657   5.401
 7457WAT     H222614   2.460   4.746   5.440
 7458WAT      O22615   5.287   7.455   5.942
 7458WAT     H122616   5.385   7.469   5.955
 7458WAT     H222617   5.250   7.402   6.019
 7459WAT      O22618   3.743   1.647   7.162
 7459WAT     H122619   3.763   1.681   7.070
 7459WAT     H222620   3.824   1.602   7.199
 7460WAT      O22621   3.454   5.253   9.141
 7460WAT     H122622   3.468   5.352   9.132
 7460WAT     H222623   3.360   5.235   9.170
 7461WAT      O22624   8.089   0.033   6.605
 7461WAT     H122625   8.016   0.094   6.635
 7461WAT     H222626   8.067  -0.061   6.633
 7462WAT      O22627   3.195   4.537   0.355
 7462WAT     H122628   3.183   4.500   0.447
 7462WAT     H222629   3.188   4.636   0.357
 7463WAT      O22630   0.516   8.152   0.732
 7463WAT     H122631   0.570   8.208   0.795
 7463WAT     H222632   0.571   8.074   0.702
 7464WAT      O22633   1.890   6.655   8.185
 7464WAT     H122634   1.979   6.610   8.180
 7464WAT     H222635   1.903   6.753   8.200
 7465WAT      O22636   0.333   1.516   9.848
 7465WAT     H122637   0.295   1.561   9.767
 7465WAT     H222638   0.273   1.532   9.926
 7466WAT      O22639   7.718   6.657   8.298
 7466WAT     H122640   7.742   6.561   8.281
 7466WAT     H222641   7.797   6.715   8.278
 7467WAT      O22642   5.672   5.592   6.408
 7467WAT     H122643   5.669   5.629   6.315
 7467WAT     H222644   5.582   5.555   6.432
 7468WAT      O22645   7.867   9.420   9.409
 7468WAT     H122646   7.849   9.501   9.353
 7468WAT     H222647   7.781   9.382   9.442
 7469WAT      O22648   9.541   3.720   7.446
 7469WAT     H122649   9.496   3.639   7.484
 7469WAT     H222650   9.536   3.795   7.512
 7470WAT      O22651   4.616   2.654   1.449
 7470WAT     H122652   4.517   2.648   1.458
 7470WAT     H222653   4.651   2.729   1.505
 7471WAT      O22654   8.936   3.783   2.111
 7471WAT     H122655   8.900   3.756   2.021
 7471WAT     H222656   9.030   3.816   2.100
 7472WAT      O22657   1.927   3.546   2.076
 7472WAT     H122658   1.923   3.460   2.127
 7472WAT     H222659   1.942   3.622   2.139
 7473WAT      O22660   2.520   3.643   3.904
 7473WAT     H122661   2.533   3.742   3.889
 7473WAT     H222662   2.552   3.593   3.823
 7474WAT      O22663   0.397   1.155   7.047
 7474WAT     H122664   0.365   1.250   7.047
 7474WAT     H222665   0.488   1.151   7.007
 7475WAT      O22666   4.004   0.717   0.162
 7475WAT     H122667   3.944   0.664   0.223
 7475WAT     H222668   4.098   0.682   0.169
 7476WAT      O22669   6.112   5.833   0.550
 7476WAT     H122670   6.140   5.848   0.645
 7476WAT     H222671   6.187   5.859   0.489
 7477WAT      O22672   0.271   0.675   0.239
 7477WAT     H122673   0.283   0.699   0.335
 7477WAT     H222674   0.266   0.759   0.184
 7478WAT      O22675   6.128   4.149   6.881
 7478WAT     H122676   6.045   4.173   6.930
 7478WAT     H222677   6.203   4.137   6.946
 7479WAT      O22678   8.577   5.051   3.738
 7479WAT     H122679   8.567   5.027   3.641
 7479WAT     H222680   8.595   5.149   3.746
 7480WAT      O22681   7.185   5.199   2.140
 7480WAT     H122682   7.152   5.239   2.226
 7480WAT     H222683   7.273   5.239   2.116
 7481WAT      O22684   7.449   6.989   5.172
 7481WAT     H122685   7.513   7.049   5.123
 7481WAT     H222686   7.482   6.895   5.167
 7482WAT      O22687   3.965   4.293   2.426
 7482WAT     H122688   3.888   4.313   2.366
 7482WAT     H222689   3.936   4.227   2.496
 7483WAT      O22690   2.531   9.492   3.855
 7483WAT     H122691   2.465   9.498   3.930
 7483WAT     H222692   2.614   9.541   3.880
 7484WAT      O22693   7.400   2.162   2.003
 7484WAT     H122694   7.311   2.129   2.036
 7484WAT     H222695   7.453   2.085   1.967
 7485WAT      O22696   1.928   6.366   0.808
 7485WAT     H122697   1.963   6.367   0.714
 7485WAT     H222698   1.835   6.401   0.810
 7486WAT      O22699   4.972   8.081   3.682
 7486WAT     H122700   4.879   8.072   3.718
 7486WAT     H222701   4.971   8.139   3.601
 7487WAT      O22702   2.693   9.439   7.224
 7487WAT     H122703   2.683   9.342   7.201
 7487WAT     H222704   2.636   9.493   7.161
 7488WAT      O22705   3.683   6.975   3.990
 7488WAT     H122706   3.717   7.014   4.075
 7488WAT     H222707   3.746   6.904   3.958
 7489WAT      O22708   6.981   1.520   8.631
 7489WAT     H122709   7.046   1.516   8.555
 7489WAT     H222710   6.915   1.593   8.616
 7490WAT      O22711   6.409   2.721   0.363
 7490WAT     H122712   6.502   2.745   0.335
 7490WAT     H222713   6.352   2.712   0.281
 7491WAT      O22714   8.440   5.707   2.414
 7491WAT     H122715   8.388   5.676   2.334
 7491WAT     H222716   8.487   5.793   2.392
 7492WAT      O22717   6.227   8.054   2.727
 7492WAT     H122718   6.313   8.104   2.738
 7492WAT     H222719   6.153   8.119   2.715
 7493WAT      O22720   0.322   5.816   7.212
 7493WAT     H122721   0.389   5.743   7.224
 7493WAT     H222722   0.238   5.794   7.261
 7494WAT      O22723   5.068   5.032   8.758
 7494WAT     H122724   5.134   4.957   8.746
 7494WAT     H222725   5.111   5.119   8.736
 7495WAT      O22726   6.127   9.718   6.824
 7495WAT     H122727   6.133   9.624   6.790
 7495WAT     H222728   6.156   9.720   6.920
 7496WAT      O22729   9.563   9.175   7.204
 7496WAT     H122730   9.493   9.243   7.182
 7496WAT     H222731   9.613   9.150   7.121
 7497WAT      O22732   8.775   4.337   4.988
 7497WAT     H122733   8.824   4.411   5.035
 7497WAT     H222734   8.841   4.270   4.954
 7498WAT      O22735   1.582   4.197   4.243
 7498WAT     H122736   1.586   4.212   4.342
 7498WAT     H222737   1.664   4.148   4.213
 7499WAT      O22738   4.470   0.265   6.456
 7499WAT     H122739   4.418   0.191   6.414
 7499WAT     H222740   4.567   0.255   6.434
 7500WAT      O22741   6.728   4.286   9.878
 7500WAT     H122742   6.690   4.374   9.849
 7500WAT     H222743   6.800   4.258   9.814
 7501WAT      O22744   1.300   3.271   5.873
 7501WAT     H122745   1.231   3.204   5.847
 7501WAT     H222746   1.352   3.298   5.792
 7502WAT      O22747   9.529   7.383   9.887
 7502WAT     H122748   9.606   7.412   9.830
 7502WAT     H222749   9.522   7.444   9.966
 7503WAT      O22750   8.814   7.539   5.320
 7503WAT     H122751   8.785   7.444   5.318
 7503WAT     H222752   8.876   7.554   5.398
 7504WAT      O22753   6.180   8.852   7.492
 7504WAT     H122754   6.110   8.900   7.440
 7504WAT     H222755   6.140   8.818   7.578
 7505WAT      O22756   9.469   2.309   8.927
 7505WAT     H122757   9.532   2.373   8.972
 7505WAT     H222758   9.394   2.359   8.885
 7506WAT      O22759   6.400   1.900   9.148
 7506WAT     H122760   6.369   1.830   9.083
 7506WAT     H222761   6.326   1.963   9.167
 7507WAT      O22762   4.581   5.931   2.479
 7507WAT     H122763   4.631   5.862   2.531
 7507WAT     H222764   4.493   5.948   2.523
 7508WAT      O22765   7.935   6.651   2.533
 7508WAT     H122766   8.000   6.658   2.609
 7508WAT     H222767   7.901   6.557   2.527
 7509WAT      O22768   1.139   3.383   2.029
 7509WAT     H122769   1.056   3.347   2.072
 7509WAT     H222770   1.138   3.483   2.036
 7510WAT      O22771   3.818   7.349   2.888
 7510WAT     H122772   3.892   7.300   2.934
 7510WAT     H222773   3.733   7.296   2.896
 7511WAT      O22774   3.844   2.615   4.294
 7511WAT     H122775   3.824   2.680   4.220
 7511WAT     H222776   3.761   2.564   4.316
 7512WAT      O22777   6.887   3.719   7.706
 7512WAT     H122778   6.841   3.635   7.676
 7512WAT     H222779   6.930   3.763   7.628
 7513WAT      O22780   5.662   5.705   4.905
 7513WAT     H122781   5.626   5.711   4.998
 7513WAT     H222782   5.637   5.787   4.854
 7514WAT      O22783   9.732   5.041   0.859
 7514WAT     H122784   9.750   5.067   0.954
 7514WAT     H222785   9.753   5.118   0.799
 7515WAT      O22786   8.488   9.446   2.937
 7515WAT     H122787   8.479   9.490   2.848
 7515WAT     H222788   8.496   9.515   3.008
 7516WAT      O22789   5.436   8.800   2.282
 7516WAT     H122790   5.401   8.707   2.295
 7516WAT     H222791   5.384   8.863   2.341
 7517WAT      O22792   7.984   8.768   9.097
 7517WAT     H122793   8.036   8.685   9.117
 7517WAT     H222794   7.917   8.749   9.026
 7518WAT      O22795   9.372   2.302   1.645
 7518WAT     H122796   9.334   2.219   1.604
 7518WAT     H222797   9.305   2.343   1.707
 7519WAT      O22798   2.798   6.441   8.644
 7519WAT     H122799   2.841   6.351   8.643
 7519WAT     H222800   2.842   6.499   8.713
 7520WAT      O22801   5.113   5.569   1.907
 7520WAT     H122802   5.117   5.559   2.006
 7520WAT     H222803   5.103   5.479   1.864
 7521WAT      O22804   0.814   4.676   1.555
 7521WAT     H122805   0.886   4.685   1.486
 7521WAT     H222806   0.727   4.702   1.515
 7522WAT      O22807   7.052   4.877   6.596
 7522WAT     H122808   6.998   4.962   6.600
 7522WAT     H222809   7.104   4.866   6.680
 7523WAT      O22810   3.478   4.517   8.443
 7523WAT     H122811   3.423   4.441   8.476
 7523WAT     H222812   3.420   4.596   8.427
 7524WAT      O22813   6.320   2.276   5.725
 7524WAT     H122814   6.352   2.267   5.819
 7524WAT     H222815   6.220   2.279   5.724
 7525WAT      O22816   2.792   0.488   2.234
 7525WAT     H122817   2.874   0.493   2.177
 7525WAT     H222818   2.812   0.524   2.325
 7526WAT      O22819   6.371   3.858   0.475
 7526WAT     H122820   6.286   3.833   0.429
 7526WAT     H222821   6.436   3.894   0.409
 7527WAT      O22822   9.639   1.835   5.939
 7527WAT     H122823   9.618   1.818   6.035
 7527WAT     H222824   9.595   1.766   5.882
 7528WAT      O22825   6.959   0.224   6.959
 7528WAT     H122826   6.877   0.264   7.000
 7528WAT     H222827   7.022   0.195   7.032
 7529WAT      O22828   7.958   5.342   8.939
 7529WAT     H122829   7.996   5.433   8.956
 7529WAT     H222830   7.992   5.307   8.851
 7530WAT      O22831   4.731   8.877   2.131
 7530WAT     H122832   4.784   8.933   2.193
 7530WAT     H222833   4.743   8.780   2.155
 7531WAT      O22834   7.437   3.101   6.423
 7531WAT     H122835   7.465   3.113   6.518
 7531WAT     H222836   7.344   3.064   6.421
 7532WAT      O22837   4.788   1.489   0.597
 7532WAT     H122838   4.881   1.486   0.634
 7532WAT     H222839   4.725   1.525   0.666
 7533WAT      O22840   1.923   7.690   7.206
 7533WAT     H122841   1.983   7.749   7.262
 7533WAT     H222842   1.871   7.747   7.143
 7534WAT      O22843   3.196   5.421   7.212
 7534WAT     H122844   3.105   5.382   7.200
 7534WAT     H222845   3.265   5.352   7.189
 7535WAT      O22846   0.726   9.510   2.381
 7535WAT     H122847   0.790   9.436   2.399
 7535WAT     H222848   0.723   9.530   2.283
 7536WAT      O22849   4.301   8.483   7.919
 7536WAT     H122850   4.292   8.565   7.975
 7536WAT     H222851   4.393   8.444   7.931
 7537WAT      O22852   4.664   0.544   0.731
 7537WAT     H122853   4.644   0.453   0.695
 7537WAT     H222854   4.760   0.565   0.717
 7538WAT      O22855   4.504   3.438   1.974
 7538WAT     H122856   4.518   3.339   1.984
 7538WAT     H222857   4.530   3.484   2.058
 7539WAT      O22858   8.061   9.086   6.300
 7539WAT     H122859   8.131   9.025   6.262
 7539WAT     H222860   8.078   9.100   6.397
 7540WAT      O22861   8.601   0.189   9.723
 7540WAT     H122862   8.689   0.224   9.690
 7540WAT     H222863   8.531   0.259   9.713
 7541WAT      O22864   8.552   8.811   6.863
 7541WAT     H122865   8.588   8.901   6.836
 7541WAT     H222866   8.623   8.742   6.852
 7542WAT      O22867   7.597   4.525   3.796
 7542WAT     H122868   7.684   4.562   3.763
 7542WAT     H222869   7.588   4.429   3.766
 7543WAT      O22870   0.376   7.897   3.957
 7543WAT     H122871   0.350   7.808   3.995
 7543WAT     H222872   0.367   7.967   4.028
 7544WAT      O22873   8.825   8.940   7.753
 7544WAT     H122874   8.866   9.002   7.820
 7544WAT     H222875   8.762   8.878   7.800
 7545WAT      O22876   5.665   6.299   4.372
 7545WAT     H122877   5.743   6.358   4.353
 7545WAT     H222878   5.582   6.354   4.375
 7546WAT      O22879   5.774   3.180   2.462
 7546WAT     H122880   5.817   3.248   2.522
 7546WAT     H222881   5.845   3.132   2.410
 7547WAT      O22882   8.855   5.044   2.312
 7547WAT     H122883   8.779   5.107   2.327
 7547WAT     H222884   8.936   5.096   2.283
 7548WAT      O22885   3.212   9.623   6.961
 7548WAT     H122886   3.222   9.656   6.867
 7548WAT     H222887   3.193   9.525   6.961
 7549WAT      O22888   6.887   0.893   3.713
 7549WAT     H122889   6.793   0.870   3.689
 7549WAT     H222890   6.949   0.860   3.642
 7550WAT      O22891   1.520   5.220   7.612
 7550WAT     H122892   1.581   5.192   7.687
 7550WAT     H222893   1.553   5.306   7.573
 7551WAT      O22894   6.853   3.453   7.274
 7551WAT     H122895   6.880   3.405   7.358
 7551WAT     H222896   6.872   3.551   7.284
 7552WAT      O22897   2.467   9.110   6.279
 7552WAT     H122898   2.438   9.055   6.201
 7552WAT     H222899   2.555   9.076   6.313
 7553WAT      O22900   0.491   9.090   8.451
 7553WAT     H122901   0.447   9.150   8.385
 7553WAT     H222902   0.539   9.146   8.519
 7554WAT      O22903   0.015   3.956   1.140
 7554WAT     H122904   0.048   3.910   1.058
 7554WAT     H222905  -0.083   3.938   1.151
 7555WAT      O22906   0.916   8.001   0.846
 7555WAT     H122907   0.891   8.055   0.927
 7555WAT     H222908   0.921   7.904   0.871
 7556WAT      O22909   3.728   4.711   4.028
 7556WAT     H122910   3.642   4.679   4.068
 7556WAT     H222911   3.763   4.642   3.964
 7557WAT      O22912   8.985   9.070   5.658
 7557WAT     H122913   9.009   9.091   5.753
 7557WAT     H222914   9.064   9.033   5.611
 7558WAT      O22915   2.536   6.219   7.523
 7558WAT     H122916   2.556   6.151   7.592
 7558WAT     H222917   2.457   6.190   7.468
 7559WAT      O22918   7.058   4.973   1.744
 7559WAT     H122919   7.102   4.894   1.700
 7559WAT     H222920   7.022   4.945   1.833
 7560WAT      O22921   0.860   6.518   1.527
 7560WAT     H122922   0.879   6.449   1.596
 7560WAT     H222923   0.761   6.520   1.509
 7561WAT      O22924   4.528   9.840   7.281
 7561WAT     H122925   4.469   9.797   7.213
 7561WAT     H222926   4.623   9.810   7.268
 7562WAT      O22927   4.358   6.590   3.609
 7562WAT     H122928   4.322   6.647   3.534
 7562WAT     H222929   4.383   6.501   3.573
 7563WAT      O22930   2.442   6.544   1.903
 7563WAT     H122931   2.373   6.544   1.831
 7563WAT     H222932   2.523   6.494   1.872
 7564WAT      O22933   3.611   0.211   7.264
 7564WAT     H122934   3.661   0.148   7.322
 7564WAT     H222935   3.570   0.162   7.188
 7565WAT      O22936   7.392   0.399   4.133
 7565WAT     H122937   7.347   0.476   4.086
 7565WAT     H222938   7.469   0.434   4.187
 7566WAT      O22939   1.887   5.367   1.641
 7566WAT     H122940   1.885   5.378   1.740
 7566WAT     H222941   1.821   5.431   1.600
 7567WAT      O22942   0.702   3.456   6.488
 7567WAT     H122943   0.724   3.416   6.399
 7567WAT     H222944   0.785   3.462   6.544
 7568WAT      O22945   6.643   0.351   0.864
 7568WAT     H122946   6.655   0.252   0.867
 7568WAT     H222947   6.715   0.395   0.918
 7569WAT      O22948   4.684   2.041   1.669
 7569WAT     H122949   4.638   2.117   1.714
 7569WAT     H222950   4.779   2.066   1.651
 7570WAT      O22951   1.820   4.825   5.855
 7570WAT     H122952   1.785   4.814   5.762
 7570WAT     H222953   1.920   4.824   5.854
 7571WAT      O22954   1.541   5.764   8.732
 7571WAT     H122955   1.597   5.847   8.738
 7571WAT     H222956   1.445   5.789   8.731
 7572WAT      O22957   1.748   7.328   3.318
 7572WAT     H122958   1.683   7.371   3.255
 7572WAT     H222959   1.735   7.365   3.410
 7573WAT      O22960   3.506   8.326   3.922
 7573WAT     H122961   3.543   8.352   3.833
 7573WAT     H222962   3.575   8.272   3.972
 7574WAT      O22963   1.297   8.376   4.448
 7574WAT     H122964   1.353   8.297   4.476
 7574WAT     H222965   1.215   8.380   4.505
 7575WAT      O22966   6.558   3.669   2.825
 7575WAT     H122967   6.579   3.750   2.879
 7575WAT     H222968   6.610   3.591   2.859
 7576WAT      O22969   8.395   6.422   6.745
 7576WAT     H122970   8.366   6.513   6.775
 7576WAT     H222971   8.480   6.397   6.792
 7577WAT      O22972   4.062   6.911   3.701
 7577WAT     H122973   3.984   6.962   3.736
 7577WAT     H222974   4.147   6.957   3.728
 7578WAT      O22975   2.040   8.052   7.047
 7578WAT     H122976   2.041   8.090   7.139
 7578WAT     H222977   2.112   7.983   7.039
 7579WAT      O22978   9.624   3.380   3.667
 7579WAT     H122979   9.713   3.379   3.621
 7579WAT     H222980   9.559   3.433   3.612
 7580WAT      O22981   2.169   0.819   2.559
 7580WAT     H122982   2.211   0.819   2.649
 7580WAT     H222983   2.144   0.725   2.534
 7581WAT      O22984   0.341   9.155   1.031
 7581WAT     H122985   0.299   9.242   1.008
 7581WAT     H222986   0.342   9.095   0.951
 7582WAT      O22987   5.667   4.151   9.284
 7582WAT     H122988   5.577   4.147   9.326
 7582WAT     H222989   5.731   4.094   9.336
 7583WAT      O22990   1.698   8.916   2.074
 7583WAT     H122991   1.754   8.981   2.024
 7583WAT     H222992   1.756   8.850   2.122
 7584WAT      O22993   3.849   6.051   7.843
 7584WAT     H122994   3.926   5.994   7.814
 7584WAT     H222995   3.787   6.064   7.765
 7585WAT      O22996   3.505   4.550   4.717
 7585WAT     H122997   3.569   4.585   4.787
 7585WAT     H222998   3.557   4.506   4.644
 7586WAT      O22999   7.695   8.864   0.046
 7586WAT     H123000   7.734   8.935  -0.012
 7586WAT     H223001   7.644   8.799  -0.011
 7587WAT      O23002   0.621   8.894   0.374
 7587WAT     H123003   0.691   8.859   0.312
 7587WAT     H223004   0.569   8.817   0.412
 7588WAT      O23005   4.428   9.038   4.310
 7588WAT     H123006   4.443   9.035   4.212
 7588WAT     H223007   4.336   9.003   4.331
 7589WAT      O23008   6.573   7.468   5.151
 7589WAT     H123009   6.644   7.400   5.166
 7589WAT     H223010   6.516   7.476   5.233
 7590WAT      O23011   0.273   1.594   5.240
 7590WAT     H123012   0.246   1.635   5.153
 7590WAT     H223013   0.206   1.618   5.310
 7591WAT      O23014   6.219   1.356   8.492
 7591WAT     H123015   6.237   1.259   8.509
 7591WAT     H223016   6.303   1.409   8.507
 7592WAT      O23017   5.195   3.861   8.876
 7592WAT     H123018   5.106   3.827   8.847
 7592WAT     H223019   5.265   3.791   8.858
 7593WAT      O23020   3.174   3.951   4.275
 7593WAT     H123021   3.138   3.858   4.268
 7593WAT     H223022   3.274   3.947   4.283
 7594WAT      O23023   0.425   8.780   3.831
 7594WAT     H123024   0.346   8.752   3.885
 7594WAT     H223025   0.428   8.880   3.825
 7595WAT      O23026   7.175   2.354   3.675
 7595WAT     H123027   7.269   2.371   3.647
 7595WAT     H223028   7.175   2.294   3.755
 7596WAT      O23029   2.061   2.678   2.157
 7596WAT     H123030   2.120   2.598   2.165
 7596WAT     H223031   1.992   2.661   2.086
 7597WAT      O23032   1.154   5.280   9.806
 7597WAT     H123033   1.073   5.335   9.786
 7597WAT     H223034   1.153   5.252   9.902
 7598WAT      O23035   4.390   6.797   7.120
 7598WAT     H123036   4.361   6.773   7.028
 7598WAT     H223037   4.348   6.884   7.147
 7599WAT      O23038   1.840   2.444   4.616
 7599WAT     H123039   1.744   2.416   4.622
 7599WAT     H223040   1.855   2.525   4.673
 7600WAT      O23041   2.783   3.435   6.560
 7600WAT     H123042   2.778   3.356   6.498
 7600WAT     H223043   2.852   3.417   6.631
 7601WAT      O23044   4.586   9.659   0.829
 7601WAT     H123045   4.542   9.609   0.754
 7601WAT     H223046   4.683   9.636   0.833
 7602WAT      O23047   6.641   3.856   6.447
 7602WAT     H123048   6.595   3.868   6.359
 7602WAT     H223049   6.697   3.773   6.443
 7603WAT      O23050   2.874   4.665   7.668
 7603WAT     H123051   2.919   4.578   7.648
 7603WAT     H223052   2.781   4.663   7.632
 7604WAT      O23053   1.723   5.199   2.021
 7604WAT     H123054   1.660   5.262   2.065
 7604WAT     H223055   1.705   5.106   2.053
 7605WAT      O23056   9.828   5.234   0.701
 7605WAT     H123057   9.790   5.320   0.667
 7605WAT     H223058   9.903   5.254   0.764
 7606WAT      O23059   7.569   5.575   9.809
 7606WAT     H123060   7.628   5.642   9.765
 7606WAT     H223061   7.621   5.492   9.830
 7607WAT      O23062   9.577   7.985   8.346
 7607WAT     H123063   9.599   7.969   8.443
 7607WAT     H223064   9.492   8.039   8.340
 7608WAT      O23065   1.690   7.243   8.225
 7608WAT     H123066   1.685   7.333   8.269
 7608WAT     H223067   1.597   7.211   8.205
 7609WAT      O23068   7.770   3.473   6.942
 7609WAT     H123069   7.808   3.564   6.923
 7609WAT     H223070   7.818   3.405   6.886
 7610WAT      O23071   7.140   9.623   4.830
 7610WAT     H123072   7.074   9.686   4.789
 7610WAT     H223073   7.139   9.633   4.930
 7611WAT      O23074   3.462   1.382   5.900
 7611WAT     H123075   3.510   1.302   5.936
 7611WAT     H223076   3.417   1.431   5.975
 7612WAT      O23077   4.919   2.595   4.798
 7612WAT     H123078   4.849   2.638   4.855
 7612WAT     H223079   4.928   2.645   4.712
 7613WAT      O23080   2.418   8.969   0.108
 7613WAT     H123081   2.493   9.034   0.118
 7613WAT     H223082   2.451   8.886   0.063
 7614WAT      O23083   4.363   0.958   9.094
 7614WAT     H123084   4.423   1.026   9.053
 7614WAT     H223085   4.268   0.991   9.092
 7615WAT      O23086   6.150   2.141   2.083
 7615WAT     H123087   6.057   2.140   2.117
 7615WAT     H223088   6.200   2.063   2.119
 7616WAT      O23089   5.595   7.793   5.948
 7616WAT     H123090   5.661   7.858   5.984
 7616WAT     H223091   5.504   7.813   5.985
 7617WAT      O23092   6.880   2.244   0.692
 7617WAT     H123093   6.792   2.278   0.658
 7617WAT     H223094   6.934   2.321   0.726
 7618WAT      O23095   5.989   6.839   4.502
 7618WAT     H123096   5.962   6.879   4.589
 7618WAT     H223097   6.004   6.740   4.513
 7619WAT      O23098   6.912   3.532   3.086
 7619WAT     H123099   6.918   3.464   3.159
 7619WAT     H223100   6.834   3.511   3.028
 7620WAT      O23101   9.382   0.702   0.597
 7620WAT     H123102   9.283   0.708   0.609
 7620WAT     H223103   9.426   0.696   0.686
 7621WAT      O23104   8.305   0.202   6.902
 7621WAT     H123105   8.261   0.118   6.935
 7621WAT     H223106   8.285   0.214   6.805
 7622WAT      O23107   6.021   6.700   5.144
 7622WAT     H123108   6.064   6.693   5.234
 7622WAT     H223109   6.077   6.757   5.084
 7623WAT      O23110   6.806   1.038   6.732
 7623WAT     H123111   6.726   1.043   6.672
 7623WAT     H223112   6.792   1.098   6.810
 7624WAT      O23113   0.343   6.698   6.491
 7624WAT     H123114   0.381   6.729   6.578
 7624WAT     H223115   0.414   6.651   6.438
 7625WAT      O23116   9.555   9.454   6.285
 7625WAT     H123117   9.589   9.441   6.192
 7625WAT     H223118   9.558   9.552   6.307
 7626WAT      O23119   7.367   6.334   3.614
 7626WAT     H123120   7.323   6.279   3.685
 7626WAT     H223121   7.364   6.430   3.641
 7627WAT      O23122   7.324   0.143   6.841
 7627WAT     H123123   7.388   0.093   6.900
 7627WAT     H223124   7.363   0.232   6.817
 7628WAT      O23125   3.000   9.312   9.374
 7628WAT     H123126   3.076   9.326   9.437
 7628WAT     H223127   3.031   9.328   9.280
 7629WAT      O23128   1.701   9.772   4.045
 7629WAT     H123129   1.666   9.679   4.039
 7629WAT     H223130   1.696   9.816   3.956
 7630WAT      O23131   8.453   8.303   4.532
 7630WAT     H123132   8.492   8.360   4.461
 7630WAT     H223133   8.357   8.283   4.511
 7631WAT      O23134   5.437   4.781   5.100
 7631WAT     H123135   5.436   4.691   5.142
 7631WAT     H223136   5.364   4.837   5.138
 7632WAT      O23137   7.765   0.947   3.281
 7632WAT     H123138   7.792   1.013   3.351
 7632WAT     H223139   7.841   0.885   3.262
 7633WAT      O23140   3.699   2.682   3.756
 7633WAT     H123141   3.734   2.710   3.667
 7633WAT     H223142   3.774   2.647   3.812
 7634WAT      O23143   7.383   2.007   8.748
 7634WAT     H123144   7.363   2.032   8.843
 7634WAT     H223145   7.297   1.989   8.700
 7635WAT      O23146   6.492   6.715   6.928
 7635WAT     H123147   6.496   6.649   7.003
 7635WAT     H223148   6.454   6.801   6.962
 7636WAT      O23149   6.626   9.293   8.177
 7636WAT     H123150   6.623   9.378   8.229
 7636WAT     H223151   6.689   9.229   8.221
 7637WAT      O23152   4.873   8.988   7.943
 7637WAT     H123153   4.879   8.972   8.041
 7637WAT     H223154   4.836   8.907   7.898
 7638WAT      O23155   5.748   2.822   4.330
 7638WAT     H123156   5.689   2.748   4.362
 7638WAT     H223157   5.818   2.842   4.399
 7639WAT      O23158   4.412   6.229   7.079
 7639WAT     H123159   4.462   6.309   7.112
 7639WAT     H223160   4.417   6.156   7.147
 7640WAT      O23161   3.883   6.353   4.848
 7640WAT     H123162   3.955   6.403   4.800
 7640WAT     H223163   3.919   6.266   4.881
 7641WAT      O23164   8.547   0.984   4.318
 7641WAT     H123165   8.477   1.008   4.384
 7641WAT     H223166   8.504   0.943   4.237
 7642WAT      O23167   7.722   8.838   8.410
 7642WAT     H123168   7.750   8.916   8.354
 7642WAT     H223169   7.711   8.867   8.505
 7643WAT      O23170   1.113   4.204   5.310
 7643WAT     H123171   1.180   4.139   5.347
 7643WAT     H223172   1.161   4.274   5.258
 7644WAT      O23173   6.118   7.017   7.054
 7644WAT     H123174   6.078   6.928   7.031
 7644WAT     H223175   6.046   7.085   7.062
 7645WAT      O23176   6.380   5.860   7.803
 7645WAT     H123177   6.438   5.825   7.876
 7645WAT     H223178   6.298   5.803   7.795
 7646WAT      O23179   2.025   3.862   4.040
 7646WAT     H123180   1.988   3.909   3.960
 7646WAT     H223181   2.117   3.829   4.020
 7647WAT      O23182   5.408   8.975   7.948
 7647WAT     H123183   5.417   9.038   7.871
 7647WAT     H223184   5.377   9.026   8.029
 7648WAT      O23185   4.390   7.511   5.720
 7648WAT     H123186   4.464   7.475   5.777
 7648WAT     H223187   4.408   7.607   5.698
 7649WAT      O23188   1.241   1.896   9.336
 7649WAT     H123189   1.182   1.835   9.284
 7649WAT     H223190   1.224   1.990   9.308
 7650WAT      O23191   7.908   1.815   4.342
 7650WAT     H123192   7.918   1.914   4.359
 7650WAT     H223193   7.998   1.776   4.320
 7651WAT      O23194   9.634   7.276   3.245
 7651WAT     H123195   9.720   7.238   3.211
 7651WAT     H223196   9.649   7.368   3.281
 7652WAT      O23197   5.485   5.128   6.324
 7652WAT     H123198   5.428   5.207   6.344
 7652WAT     H223199   5.434   5.064   6.266
 7653WAT      O23200   2.153   3.270   3.262
 7653WAT     H123201   2.055   3.284   3.248
 7653WAT     H223202   2.191   3.347   3.313
 7654WAT      O23203   2.155   1.827   1.617
 7654WAT     H123204   2.068   1.789   1.586
 7654WAT     H223205   2.138   1.905   1.677
 7655WAT      O23206   0.929   7.524   5.317
 7655WAT     H123207   0.981   7.556   5.396
 7655WAT     H223208   0.951   7.428   5.300
 7656WAT      O23209   2.149   4.935   0.336
 7656WAT     H123210   2.122   4.931   0.432
 7656WAT     H223211   2.070   4.914   0.278
 7657WAT      O23212   5.493   6.040   2.642
 7657WAT     H123213   5.588   6.063   2.661
 7657WAT     H223214   5.454   6.107   2.579
 7658WAT      O23215   4.155   8.990   0.463
 7658WAT     H123216   4.116   9.061   0.523
 7658WAT     H223217   4.245   9.019   0.431
 7659WAT      O23218   3.828   7.467   1.451
 7659WAT     H123219   3.917   7.433   1.421
 7659WAT     H223220   3.759   7.396   1.437
 7660WAT      O23221   6.167   9.647   2.624
 7660WAT     H123222   6.229   9.599   2.562
 7660WAT     H223223   6.185   9.619   2.718
 7661WAT      O23224   4.101   7.867   8.450
 7661WAT     H123225   4.051   7.839   8.532
 7661WAT     H223226   4.077   7.961   8.427
 7662WAT      O23227   0.687   0.858   7.001
 7662WAT     H123228   0.681   0.957   7.013
 7662WAT     H223229   0.709   0.837   6.906
 7663WAT      O23230   6.482   5.089   7.545
 7663WAT     H123231   6.460   5.040   7.460
 7663WAT     H223232   6.502   5.184   7.524
 7664WAT      O23233   8.789   8.627   5.165
 7664WAT     H123234   8.866   8.565   5.146
 7664WAT     H223235   8.732   8.588   5.236
 7665WAT      O23236   8.393   0.878   1.722
 7665WAT     H123237   8.389   0.960   1.779
 7665WAT     H223238   8.424   0.801   1.778
 7666WAT      O23239   0.266   7.116   0.041
 7666WAT     H123240   0.273   7.088   0.137
 7666WAT     H223241   0.174   7.096   0.007
 7667WAT      O23242   5.703   3.664   0.975
 7667WAT     H123243   5.687   3.590   0.911
 7667WAT     H223244   5.772   3.726   0.939
 7668WAT      O23245   1.500   2.759   0.351
 7668WAT     H123246   1.515   2.750   0.252
 7668WAT     H223247   1.484   2.856   0.373
 7669WAT      O23248   5.675   0.069   5.840
 7669WAT     H123249   5.622   0.117   5.770
 7669WAT     H223250   5.747   0.129   5.874
 7670WAT      O23251   8.397   5.997   5.158
 7670WAT     H123252   8.315   6.030   5.204
 7670WAT     H223253   8.478   6.019   5.213
 7671WAT      O23254   3.073   9.141   6.348
 7671WAT     H123255   3.149   9.165   6.287
 7671WAT     H223256   2.998   9.206   6.334
 7672WAT      O23257   3.743   3.445   1.619
 7672WAT     H123258   3.766   3.457   1.716
 7672WAT     H223259   3.825   3.459   1.564
 7673WAT      O23260   6.045   1.766   3.939
 7673WAT     H123261   5.960   1.813   3.917
 7673WAT     H223262   6.055   1.685   3.881
 7674WAT      O23263   5.144   2.756   0.520
 7674WAT     H123264   5.061   2.806   0.495
 7674WAT     H223265   5.151   2.751   0.620
 7675WAT      O23266   9.180   2.115   6.200
 7675WAT     H123267   9.263   2.171   6.205
 7675WAT     H223268   9.205   2.019   6.189
 7676WAT      O23269   3.258   1.444   7.831
 7676WAT     H123270   3.215   1.487   7.751
 7676WAT     H223271   3.315   1.511   7.878
 7677WAT      O23272   3.165   9.075   4.777
 7677WAT     H123273   3.123   9.064   4.867
 7677WAT     H223274   3.265   9.074   4.787
 7678WAT      O23275   6.139   6.209   4.419
 7678WAT     H123276   6.079   6.212   4.340
 7678WAT     H223277   6.185   6.297   4.431
 7679WAT      O23278   1.850   0.247   7.726
 7679WAT     H123279   1.802   0.297   7.798
 7679WAT     H223280   1.922   0.304   7.687
 7680WAT      O23281   5.170   9.694   5.164
 7680WAT     H123282   5.220   9.750   5.097
 7680WAT     H223283   5.188   9.597   5.146
 7681WAT      O23284   7.628   0.135   9.378
 7681WAT     H123285   7.550   0.197   9.393
 7681WAT     H223286   7.713   0.186   9.389
 7682WAT      O23287   1.661   1.237   2.575
 7682WAT     H123288   1.610   1.210   2.657
 7682WAT     H223289   1.605   1.219   2.494
 7683WAT      O23290   7.255   0.628   4.955
 7683WAT     H123291   7.283   0.570   4.878
 7683WAT     H223292   7.182   0.689   4.926
 7684WAT      O23293   9.114   6.396   8.339
 7684WAT     H123294   9.143   6.309   8.301
 7684WAT     H223295   9.081   6.382   8.433
 7685WAT      O23296   2.627   9.795   2.712
 7685WAT     H123297   2.704   9.746   2.671
 7685WAT     H223298   2.573   9.730   2.767
 7686WAT      O23299   2.919   8.558   7.942
 7686WAT     H123300   3.015   8.532   7.959
 7686WAT     H223301   2.907   8.654   7.967
 7687WAT      O23302   4.621   2.177   0.053
 7687WAT     H123303   4.649   2.224  -0.030
 7687WAT     H223304   4.586   2.086   0.030
 7688WAT      O23305   1.422   6.864   7.496
 7688WAT     H123306   1.357   6.884   7.570
 7688WAT     H223307   1.460   6.773   7.509
 7689WAT      O23308   7.123   8.564   6.587
 7689WAT     H123309   7.099   8.480   6.635
 7689WAT     H223310   7.166   8.629   6.650
 7690WAT      O23311   6.602   0.676   9.128
 7690WAT     H123312   6.588   0.709   9.035
 7690WAT     H223313   6.565   0.584   9.136
 7691WAT      O23314   8.064   1.077   3.692
 7691WAT     H123315   8.138   1.024   3.652
 7691WAT     H223316   8.000   1.016   3.738
 7692WAT      O23317   4.388   5.438   5.112
 7692WAT     H123318   4.316   5.434   5.042
 7692WAT     H223319   4.476   5.454   5.068
 7693WAT      O23320   6.789   4.581   1.108
 7693WAT     H123321   6.869   4.640   1.105
 7693WAT     H223322   6.706   4.637   1.111
 7694WAT      O23323   0.509   8.700   0.537
 7694WAT     H123324   0.561   8.686   0.621
 7694WAT     H223325   0.411   8.695   0.557
 7695WAT      O23326   3.451   3.821   0.123
 7695WAT     H123327   3.412   3.888   0.060
 7695WAT     H223328   3.528   3.774   0.078
 7696WAT      O23329   4.395   8.140   0.122
 7696WAT     H123330   4.411   8.047   0.089
 7696WAT     H223331   4.298   8.163   0.110
 7697WAT      O23332   0.559   8.137   1.197
 7697WAT     H123333   0.518   8.066   1.254
 7697WAT     H223334   0.617   8.196   1.254
 7698WAT      O23335   4.765   9.499   7.921
 7698WAT     H123336   4.824   9.557   7.865
 7698WAT     H223337   4.697   9.556   7.967
 7699WAT      O23338   7.713   7.648   7.420
 7699WAT     H123339   7.634   7.708   7.435
 7699WAT     H223340   7.786   7.672   7.483
 7700WAT      O23341   6.383   3.074   1.145
 7700WAT     H123342   6.453   3.109   1.207
 7700WAT     H223343   6.348   2.987   1.180
 7701WAT      O23344   5.752   0.509   6.791
 7701WAT     H123345   5.758   0.560   6.706
 7701WAT     H223346   5.717   0.417   6.773
 7702WAT      O23347   9.456   8.866   6.623
 7702WAT     H123348   9.540   8.910   6.594
 7702WAT     H223349   9.377   8.920   6.592
 7703WAT      O23350   4.567   1.767   5.477
 7703WAT     H123351   4.545   1.774   5.380
 7703WAT     H223352   4.631   1.840   5.502
 7704WAT      O23353   8.349   5.013   5.773
 7704WAT     H123354   8.349   4.926   5.822
 7704WAT     H223355   8.264   5.022   5.721
 7705WAT      O23356   0.416   4.168   5.077
 7705WAT     H123357   0.318   4.184   5.092
 7705WAT     H223358   0.465   4.255   5.089
 7706WAT      O23359   5.367   1.678   1.931
 7706WAT     H123360   5.391   1.718   2.020
 7706WAT     H223361   5.375   1.748   1.860
 7707WAT      O23362   3.250   4.954   3.459
 7707WAT     H123363   3.189   5.016   3.410
 7707WAT     H223364   3.344   4.966   3.427
 7708WAT      O23365   8.563   9.468   0.543
 7708WAT     H123366   8.600   9.476   0.450
 7708WAT     H223367   8.478   9.414   0.540
 7709WAT      O23368   2.570   2.388   6.295
 7709WAT     H123369   2.659   2.421   6.264
 7709WAT     H223370   2.502   2.462   6.287
 7710WAT      O23371   2.375   4.031   5.029
 7710WAT     H123372   2.363   4.080   5.116
 7710WAT     H223373   2.292   4.041   4.974
 7711WAT      O23374   7.363   7.688   1.406
 7711WAT     H123375   7.390   7.615   1.471
 7711WAT     H223376   7.419   7.680   1.323
 7712WAT      O23377   6.097   4.192   4.963
 7712WAT     H123378   6.059   4.129   4.896
 7712WAT     H223379   6.054   4.175   5.052
 7713WAT      O23380   9.195   4.670   4.274
 7713WAT     H123381   9.257   4.660   4.352
 7713WAT     H223382   9.234   4.623   4.195
 7714WAT      O23383   2.494   8.756   8.360
 7714WAT     H123384   2.571   8.792   8.307
 7714WAT     H223385   2.452   8.830   8.413
 7715WAT      O23386   6.615   6.126   8.723
 7715WAT     H123387   6.712   6.112   8.739
 7715WAT     H223388   6.582   6.063   8.653
 7716WAT      O23389   6.936   5.158   2.499
 7716WAT     H123390   7.017   5.186   2.550
 7716WAT     H223391   6.902   5.234   2.445
 7717WAT      O23392   0.746   1.654   7.168
 7717WAT     H123393   0.702   1.692   7.249
 7717WAT     H223394   0.680   1.602   7.115
 7718WAT      O23395   7.934   7.623   1.219
 7718WAT     H123396   7.871   7.677   1.275
 7718WAT     H223397   8.008   7.588   1.276
 7719WAT      O23398   8.381   4.635   0.937
 7719WAT     H123399   8.349   4.581   0.860
 7719WAT     H223400   8.479   4.622   0.949
 7720WAT      O23401   1.782   0.514   7.336
 7720WAT     H123402   1.851   0.536   7.267
 7720WAT     H223403   1.768   0.415   7.338
 7721WAT      O23404   7.103   6.549   3.777
 7721WAT     H123405   7.076   6.634   3.732
 7721WAT     H223406   7.181   6.566   3.837
 7722WAT      O23407   6.652   7.216   0.091
 7722WAT     H123408   6.607   7.285   0.034
 7722WAT     H223409   6.749   7.236   0.096
 7723WAT      O23410   4.709   6.074   3.474
 7723WAT     H123411   4.689   6.151   3.533
 7723WAT     H223412   4.642   6.070   3.400
 7724WAT      O23413   3.890   7.522   3.652
 7724WAT     H123414   3.938   7.577   3.583
 7724WAT     H223415   3.954   7.492   3.722
 7725WAT      O23416   0.240   7.885   9.347
 7725WAT     H123417   0.295   7.953   9.397
 7725WAT     H223418   0.229   7.914   9.252
 7726WAT      O23419   9.121   3.361   4.231
 7726WAT     H123420   9.109   3.452   4.190
 7726WAT     H223421   9.076   3.293   4.173
 7727WAT      O23422   1.628   1.898   4.536
 7727WAT     H123423   1.574   1.946   4.467
 7727WAT     H223424   1.670   1.817   4.494
 7728WAT      O23425   3.038   9.486   7.195
 7728WAT     H123426   2.987   9.557   7.243
 7728WAT     H223427   2.980   9.443   7.127
 7729WAT      O23428   7.314   9.734   7.754
 7729WAT     H123429   7.372   9.712   7.832
 7729WAT     H223430   7.310   9.656   7.691
 7730WAT      O23431   1.353   6.598   4.426
 7730WAT     H123432   1.286   6.667   4.397
 7730WAT     H223433   1.374   6.538   4.348
 7731WAT      O23434   6.255   1.282   6.557
 7731WAT     H123435   6.298   1.369   6.579
 7731WAT     H223436   6.281   1.253   6.465
 7732WAT      O23437   0.847   9.383   0.142
 7732WAT     H123438   0.751   9.360   0.159
 7732WAT     H223439   0.862   9.396   0.044
 7733WAT      O23440   1.438   6.783   6.419
 7733WAT     H123441   1.461   6.880   6.422
 7733WAT     H223442   1.458   6.741   6.507
 7734WAT      O23443   8.978   1.396   1.819
 7734WAT     H123444   8.896   1.394   1.876
 7734WAT     H223445   8.959   1.447   1.735
 7735WAT      O23446   1.323   3.583   7.504
 7735WAT     H123447   1.384   3.536   7.441
 7735WAT     H223448   1.319   3.532   7.590
 7736WAT      O23449   4.291   6.478   8.010
 7736WAT     H123450   4.281   6.453   8.106
 7736WAT     H223451   4.299   6.578   8.002
 7737WAT      O23452   4.383   5.342   9.808
 7737WAT     H123453   4.360   5.282   9.732
 7737WAT     H223454   4.309   5.407   9.824
 7738WAT      O23455   9.672   1.358   4.480
 7738WAT     H123456   9.664   1.261   4.502
 7738WAT     H223457   9.733   1.369   4.401
 7739WAT      O23458   7.934   0.416   2.087
 7739WAT     H123459   7.992   0.395   2.008
 7739WAT     H223460   7.898   0.509   2.077
 7740WAT      O23461   5.201   8.825   7.693
 7740WAT     H123462   5.237   8.884   7.765
 7740WAT     H223463   5.144   8.753   7.733
 7741WAT      O23464   1.212   4.385   6.011
 7741WAT     H123465   1.171   4.358   6.098
 7741WAT     H223466   1.252   4.477   6.020
 7742WAT      O23467   3.156   0.970   3.423
 7742WAT     H123468   3.092   1.016   3.361
 7742WAT     H223469   3.244   1.017   3.421
 7743WAT      O23470   4.587   5.147   9.197
 7743WAT     H123471   4.636   5.107   9.274
 7743WAT     H223472   4.639   5.131   9.113
 7744WAT      O23473   6.425   3.693   5.519
 7744WAT     H123474   6.455   3.680   5.424
 7744WAT     H223475   6.347   3.634   5.539
 7745WAT      O23476   6.201   2.752   7.386
 7745WAT     H123477   6.119   2.697   7.400
 7745WAT     H223478   6.204   2.787   7.292
 7746WAT      O23479   7.487   0.866   4.266
 7746WAT     H123480   7.431   0.796   4.310
 7746WAT     H223481   7.452   0.957   4.289
 7747WAT      O23482   4.070   9.701   9.432
 7747WAT     H123483   4.129   9.782   9.421
 7747WAT     H223484   3.974   9.729   9.433
 7748WAT      O23485   0.267   2.666   5.654
 7748WAT     H123486   0.263   2.651   5.753
 7748WAT     H223487   0.228   2.755   5.632
 7749WAT      O23488   2.141   7.581   3.898
 7749WAT     H123489   2.080   7.502   3.903
 7749WAT     H223490   2.185   7.595   3.987
 7750WAT      O23491   8.434   2.692   5.015
 7750WAT     H123492   8.338   2.717   5.024
 7750WAT     H223493   8.486   2.771   4.984
 7751WAT      O23494   8.422   0.053   0.268
 7751WAT     H123495   8.431   0.137   0.321
 7751WAT     H223496   8.389  -0.020   0.328
 7752WAT      O23497   8.744   9.260   5.627
 7752WAT     H123498   8.764   9.320   5.704
 7752WAT     H223499   8.766   9.166   5.651
 7753WAT      O23500   5.651   7.477   4.346
 7753WAT     H123501   5.749   7.471   4.361
 7753WAT     H223502   5.619   7.569   4.368
 7754WAT      O23503   5.534   4.317   6.615
 7754WAT     H123504   5.509   4.224   6.588
 7754WAT     H223505   5.633   4.329   6.605
 7755WAT      O23506   8.166   6.005   0.217
 7755WAT     H123507   8.231   6.077   0.241
 7755WAT     H223508   8.073   6.040   0.226
 7756WAT      O23509   9.141   0.997   0.747
 7756WAT     H123510   9.080   0.981   0.824
 7756WAT     H223511   9.156   1.095   0.735
 7757WAT      O23512   8.995   6.806   5.490
 7757WAT     H123513   8.898   6.818   5.470
 7757WAT     H223514   9.048   6.878   5.445
 7758WAT      O23515   9.190   6.145   8.736
 7758WAT     H123516   9.132   6.168   8.814
 7758WAT     H223517   9.235   6.227   8.702
 7759WAT      O23518   9.003   6.478   8.030
 7759WAT     H123519   8.987   6.395   7.977
 7759WAT     H223520   8.968   6.465   8.123
 7760WAT      O23521   6.866   1.134   7.702
 7760WAT     H123522   6.823   1.067   7.642
 7760WAT     H223523   6.848   1.109   7.798
 7761WAT      O23524   7.664   9.801   8.403
 7761WAT     H123525   7.665   9.879   8.340
 7761WAT     H223526   7.616   9.724   8.360
 7762WAT      O23527   2.459   6.122   9.139
 7762WAT     H123528   2.397   6.177   9.195
 7762WAT     H223529   2.481   6.173   9.055
 7763WAT      O23530   3.979   5.307   6.914
 7763WAT     H123531   3.955   5.402   6.935
 7763WAT     H223532   4.053   5.306   6.847
 7764WAT      O23533   7.323   9.671   6.369
 7764WAT     H123534   7.284   9.704   6.282
 7764WAT     H223535   7.418   9.700   6.375
 7765WAT      O23536   9.880   8.400   9.271
 7765WAT     H123537   9.837   8.489   9.257
 7765WAT     H223538   9.970   8.399   9.227
 7766WAT      O23539   3.853   2.349   4.011
 7766WAT     H123540   3.867   2.258   3.972
 7766WAT     H223541   3.881   2.348   4.107
 7767WAT      O23542   9.363   5.900   6.065
 7767WAT     H123543   9.327   5.964   6.133
 7767WAT     H223544   9.291   5.879   5.998
 7768WAT      O23545   7.120   1.048   5.639
 7768WAT     H123546   7.171   1.010   5.562
 7768WAT     H223547   7.040   0.991   5.658
 7769WAT      O23548   6.497   4.006   1.152
 7769WAT     H123549   6.559   4.076   1.117
 7769WAT     H223550   6.485   3.935   1.084
 7770WAT      O23551   5.897   7.825   9.339
 7770WAT     H123552   5.824   7.778   9.291
 7770WAT     H223553   5.977   7.833   9.279
 7771WAT      O23554   8.655   3.271   4.191
 7771WAT     H123555   8.572   3.312   4.153
 7771WAT     H223556   8.670   3.304   4.284
 7772WAT      O23557   6.800   5.457   0.316
 7772WAT     H123558   6.845   5.521   0.253
 7772WAT     H223559   6.730   5.506   0.368
 7773WAT      O23560   0.358   0.027   9.251
 7773WAT     H123561   0.400  -0.064   9.252
 7773WAT     H223562   0.265   0.021   9.287
 7774WAT      O23563   1.319   3.909   9.164
 7774WAT     H123564   1.348   3.823   9.122
 7774WAT     H223565   1.358   3.916   9.256
 7775WAT      O23566   0.773   3.477   8.731
 7775WAT     H123567   0.738   3.466   8.638
 7775WAT     H223568   0.708   3.530   8.785
 7776WAT      O23569   7.128   7.077   0.809
 7776WAT     H123570   7.081   7.146   0.754
 7776WAT     H223571   7.069   7.048   0.885
 7777WAT      O23572   6.733   9.794   5.580
 7777WAT     H123573   6.797   9.720   5.597
 7777WAT     H223574   6.646   9.757   5.549
 7778WAT      O23575   5.065   6.582   6.709
 7778WAT     H123576   5.142   6.635   6.743
 7778WAT     H223577   4.982   6.606   6.761
 7779WAT      O23578   9.523   0.499   8.957
 7779WAT     H123579   9.608   0.447   8.943
 7779WAT     H223580   9.544   0.596   8.966
 7780WAT      O23581   3.015   7.344   4.452
 7780WAT     H123582   2.965   7.259   4.466
 7780WAT     H223583   3.022   7.395   4.538
 7781WAT      O23584   5.816   7.314   7.634
 7781WAT     H123585   5.835   7.409   7.656
 7781WAT     H223586   5.797   7.305   7.536
 7782WAT      O23587   5.188   7.317   2.201
 7782WAT     H123588   5.213   7.259   2.278
 7782WAT     H223589   5.116   7.273   2.148
 7783WAT      O23590   7.423   7.757   9.615
 7783WAT     H123591   7.365   7.677   9.601
 7783WAT     H223592   7.368   7.834   9.645
 7784WAT      O23593   9.397   8.184   2.060
 7784WAT     H123594   9.331   8.256   2.036
 7784WAT     H223595   9.415   8.189   2.159
 7785WAT      O23596   4.896   1.784   9.287
 7785WAT     H123597   4.840   1.727   9.227
 7785WAT     H223598   4.992   1.777   9.259
 7786WAT      O23599   2.215   0.205   5.211
 7786WAT     H123600   2.208   0.214   5.311
 7786WAT     H223601   2.236   0.294   5.171
 7787WAT      O23602   7.990   1.461   5.448
 7787WAT     H123603   7.968   1.558   5.460
 7787WAT     H223604   8.058   1.451   5.376
 7788WAT      O23605   1.554   7.144   3.819
 7788WAT     H123606   1.561   7.059   3.872
 7788WAT     H223607   1.645   7.180   3.802
 7789WAT      O23608   0.376   3.064   1.992
 7789WAT     H123609   0.460   3.042   2.041
 7789WAT     H223610   0.376   3.019   1.903
 7790WAT      O23611   5.987   5.065   1.860
 7790WAT     H123612   6.025   4.988   1.910
 7790WAT     H223613   5.959   5.136   1.925
 7791WAT      O23614   6.997   6.942   1.529
 7791WAT     H123615   7.065   6.872   1.510
 7791WAT     H223616   6.999   7.011   1.457
 7792WAT      O23617   8.229   6.502   1.858
 7792WAT     H123618   8.145   6.557   1.857
 7792WAT     H223619   8.261   6.489   1.764
 7793WAT      O23620   2.010   3.528   8.026
 7793WAT     H123621   2.097   3.488   7.998
 7793WAT     H223622   1.935   3.479   7.983
 7794WAT      O23623   4.740   5.167   2.415
 7794WAT     H123624   4.746   5.067   2.417
 7794WAT     H223625   4.823   5.205   2.456
 7795WAT      O23626   4.499   3.990   1.444
 7795WAT     H123627   4.546   3.978   1.532
 7795WAT     H223628   4.567   4.012   1.373
 7796WAT      O23629   4.696   8.909   5.123
 7796WAT     H123630   4.617   8.914   5.184
 7796WAT     H223631   4.688   8.827   5.066
 7797WAT      O23632   9.536   4.160   0.941
 7797WAT     H123633   9.613   4.196   0.992
 7797WAT     H223634   9.566   4.135   0.849
 7798WAT      O23635   3.487   4.589   2.168
 7798WAT     H123636   3.555   4.662   2.164
 7798WAT     H223637   3.530   4.505   2.201
 7799WAT      O23638   1.052   3.265   6.142
 7799WAT     H123639   1.095   3.350   6.171
 7799WAT     H223640   0.979   3.284   6.077
 7800WAT      O23641   5.153   1.315   7.201
 7800WAT     H123642   5.123   1.335   7.108
 7800WAT     H223643   5.098   1.240   7.238
 7801WAT      O23644   0.771   0.875   0.597
 7801WAT     H123645   0.691   0.875   0.536
 7801WAT     H223646   0.799   0.781   0.615
 7802WAT      O23647   9.625   7.107   7.459
 7802WAT     H123648   9.614   7.044   7.382
 7802WAT     H223649   9.631   7.201   7.425
 7803WAT      O23650   9.195   6.893   4.358
 7803WAT     H123651   9.231   6.897   4.451
 7803WAT     H223652   9.095   6.889   4.361
 7804WAT      O23653   1.860   6.395   5.161
 7804WAT     H123654   1.904   6.358   5.080
 7804WAT     H223655   1.799   6.470   5.135
 7805WAT      O23656   8.677   2.511   8.810
 7805WAT     H123657   8.647   2.606   8.808
 7805WAT     H223658   8.598   2.452   8.828
 7806WAT      O23659   7.226   5.986   1.311
 7806WAT     H123660   7.234   6.066   1.372
 7806WAT     H223661   7.272   6.005   1.225
 7807WAT      O23662   3.106   9.270   9.085
 7807WAT     H123663   3.069   9.360   9.061
 7807WAT     H223664   3.137   9.223   9.002
 7808WAT      O23665   1.134   4.745   7.769
 7808WAT     H123666   1.186   4.729   7.684
 7808WAT     H223667   1.094   4.658   7.799
 7809WAT      O23668   8.614   5.593   1.642
 7809WAT     H123669   8.571   5.542   1.567
 7809WAT     H223670   8.601   5.691   1.627
 7810WAT      O23671   5.738   4.907   8.793
 7810WAT     H123672   5.812   4.975   8.795
 7810WAT     H223673   5.692   4.905   8.881
 7811WAT      O23674   8.056   8.095   7.575
 7811WAT     H123675   8.126   8.157   7.612
 7811WAT     H223676   8.030   8.125   7.483
 7812WAT      O23677   7.033   2.721   4.444
 7812WAT     H123678   7.095   2.789   4.406
 7812WAT     H223679   7.007   2.749   4.537
 7813WAT      O23680   0.586   8.111   6.582
 7813WAT     H123681   0.499   8.159   6.597
 7813WAT     H223682   0.576   8.015   6.607
 7814WAT      O23683   5.344   9.734   7.375
 7814WAT     H123684   5.441   9.752   7.360
 7814WAT     H223685   5.291   9.767   7.296
 7815WAT      O23686   0.492   5.298   9.865
 7815WAT     H123687   0.472   5.328   9.772
 7815WAT     H223688   0.591   5.286   9.875
 7816WAT      O23689   6.152   9.178   5.288
 7816WAT     H123690   6.224   9.199   5.222
 7816WAT     H223691   6.136   9.080   5.290
 7817WAT      O23692   0.367   8.084   4.509
 7817WAT     H123693   0.429   8.022   4.461
 7817WAT     H223694   0.274   8.073   4.474
 7818WAT      O23695   4.743   6.566   1.214
 7818WAT     H123696   4.669   6.631   1.227
 7818WAT     H223697   4.820   6.591   1.272
 7819WAT      O23698   8.002   3.633   6.144
 7819WAT     H123699   8.052   3.600   6.065
 7819WAT     H223700   7.939   3.706   6.116
 7820WAT      O23701   4.303   6.357   8.658
 7820WAT     H123702   4.319   6.282   8.593
 7820WAT     H223703   4.273   6.438   8.608
 7821WAT      O23704   1.034   1.858   0.143
 7821WAT     H123705   0.978   1.921   0.089
 7821WAT     H223706   0.974   1.790   0.186
 7822WAT      O23707   8.670   6.779   1.743
 7822WAT     H123708   8.715   6.748   1.827
 7822WAT     H223709   8.723   6.854   1.704
 7823WAT      O23710   5.559   9.269   0.223
 7823WAT     H123711   5.468   9.279   0.184
 7823WAT     H223712   5.587   9.173   0.219
 7824WAT      O23713   1.111   7.702   4.539
 7824WAT     H123714   1.148   7.668   4.626
 7824WAT     H223715   1.040   7.770   4.558
 7825WAT      O23716   9.381   1.866   7.326
 7825WAT     H123717   9.462   1.808   7.326
 7825WAT     H223718   9.342   1.870   7.234
 7826WAT      O23719   8.024   6.120   8.389
 7826WAT     H123720   8.086   6.156   8.459
 7826WAT     H223721   8.058   6.031   8.356
 7827WAT      O23722   0.231   7.758   5.593
 7827WAT     H123723   0.238   7.773   5.692
 7827WAT     H223724   0.321   7.766   5.551
 7828WAT      O23725   7.275   4.106   7.243
 7828WAT     H123726   7.247   4.202   7.240
 7828WAT     H223727   7.374   4.100   7.252
 7829WAT      O23728   4.106   6.137   4.317
 7829WAT     H123729   4.076   6.195   4.241
 7829WAT     H223730   4.048   6.055   4.321
 7830WAT      O23731   2.536   4.918   9.555
 7830WAT     H123732   2.504   4.824   9.567
 7830WAT     H223733   2.460   4.975   9.522
 7831WAT      O23734   2.093   9.630   1.645
 7831WAT     H123735   2.015   9.692   1.654
 7831WAT     H223736   2.155   9.665   1.575
 7832WAT      O23737   1.490   1.746   1.558
 7832WAT     H123738   1.410   1.805   1.548
 7832WAT     H223739   1.567   1.786   1.507
 7833WAT      O23740   6.744   1.396   9.543
 7833WAT     H123741   6.768   1.493   9.532
 7833WAT     H223742   6.824   1.340   9.522
 7834WAT      O23743   1.985   5.244   6.156
 7834WAT     H123744   2.024   5.208   6.241
 7834WAT     H223745   2.053   5.301   6.110
 7835WAT      O23746   3.322   4.406   9.119
 7835WAT     H123747   3.346   4.462   9.198
 7835WAT     H223748   3.405   4.380   9.069
 7836WAT      O23749   7.120   4.611   5.916
 7836WAT     H123750   7.203   4.601   5.972
 7836WAT     H223751   7.068   4.689   5.948
 7837WAT      O23752   7.528   8.504   1.855
 7837WAT     H123753   7.596   8.434   1.835
 7837WAT     H223754   7.560   8.561   1.931
 7838WAT      O23755   1.163   7.640   6.817
 7838WAT     H123756   1.154   7.712   6.886
 7838WAT     H223757   1.203   7.679   6.734
 7839WAT      O23758   2.928   3.994   9.558
 7839WAT     H123759   2.894   3.982   9.465
 7839WAT     H223760   2.950   3.905   9.598
 7840WAT      O23761   6.795   5.378   4.717
 7840WAT     H123762   6.723   5.443   4.692
 7840WAT     H223763   6.835   5.339   4.635
 7841WAT      O23764   2.826   4.109   4.807
 7841WAT     H123765   2.736   4.107   4.851
 7841WAT     H223766   2.818   4.150   4.716
 7842WAT      O23767   2.795   1.546   6.357
 7842WAT     H123768   2.844   1.466   6.391
 7842WAT     H223769   2.858   1.622   6.345
 7843WAT      O23770   9.716   9.718   2.213
 7843WAT     H123771   9.799   9.757   2.251
 7843WAT     H223772   9.725   9.708   2.114
 7844WAT      O23773   1.125   5.026   9.706
 7844WAT     H123774   1.140   5.121   9.734
 7844WAT     H223775   1.050   4.987   9.759
 7845WAT      O23776   4.933   6.804   3.328
 7845WAT     H123777   4.969   6.814   3.236
 7845WAT     H223778   4.994   6.851   3.393
 7846WAT      O23779   0.603   4.467   9.223
 7846WAT     H123780   0.615   4.561   9.255
 7846WAT     H223781   0.544   4.417   9.287
 7847WAT      O23782   8.622   2.063   3.775
 7847WAT     H123783   8.646   2.014   3.691
 7847WAT     H223784   8.532   2.106   3.765
 7848WAT      O23785   7.403   7.088   7.834
 7848WAT     H123786   7.329   7.028   7.866
 7848WAT     H223787   7.491   7.042   7.847
 7849WAT      O23788   0.033   8.100   8.701
 7849WAT     H123789   0.014   8.150   8.617
 7849WAT     H223790   0.093   8.023   8.681
 7850WAT      O23791   6.481   7.489   7.142
 7850WAT     H123792   6.568   7.513   7.185
 7850WAT     H223793   6.427   7.433   7.205
 7851WAT      O23794   8.324   0.341   4.328
 7851WAT     H123795   8.344   0.261   4.271
 7851WAT     H223796   8.327   0.315   4.424
 7852WAT      O23797   6.862   6.785   5.325
 7852WAT     H123798   6.786   6.725   5.299
 7852WAT     H223799   6.941   6.764   5.268
 7853WAT      O23800   7.673   5.810   6.271
 7853WAT     H123801   7.756   5.795   6.325
 7853WAT     H223802   7.621   5.886   6.311
 7854WAT      O23803   4.496   6.163   8.517
 7854WAT     H123804   4.489   6.068   8.546
 7854WAT     H223805   4.496   6.168   8.417
 7855WAT      O23806   1.522   1.794   0.295
 7855WAT     H123807   1.538   1.697   0.278
 7855WAT     H223808   1.556   1.819   0.385
 7856WAT      O23809   5.307   8.805   0.217
 7856WAT     H123810   5.357   8.802   0.131
 7856WAT     H223811   5.263   8.717   0.233
 7857WAT      O23812   5.975   2.040   6.602
 7857WAT     H123813   5.880   2.033   6.572
 7857WAT     H223814   6.007   2.134   6.590
 7858WAT      O23815   8.294   4.151   0.244
 7858WAT     H123816   8.200   4.161   0.214
 7858WAT     H223817   8.310   4.057   0.274
 7859WAT      O23818   3.479   3.197   7.801
 7859WAT     H123819   3.388   3.161   7.824
 7859WAT     H223820   3.526   3.225   7.885
 7860WAT      O23821   7.521   2.321   8.311
 7860WAT     H123822   7.512   2.406   8.362
 7860WAT     H223823   7.446   2.260   8.334
 7861WAT      O23824   3.254   7.507   8.682
 7861WAT     H123825   3.219   7.564   8.608
 7861WAT     H223826   3.335   7.457   8.651
 7862WAT      O23827   9.854   4.077   2.984
 7862WAT     H123828   9.773   4.045   2.934
 7862WAT     H223829   9.927   4.099   2.920
 7863WAT      O23830   2.192   4.041   0.712
 7863WAT     H123831   2.233   3.978   0.644
 7863WAT     H223832   2.263   4.101   0.748
 7864WAT      O23833   9.710   2.826   8.272
 7864WAT     H123834   9.655   2.758   8.321
 7864WAT     H223835   9.652   2.902   8.243
 7865WAT      O23836   9.883   7.054   9.851
 7865WAT     H123837   9.824   7.095   9.921
 7865WAT     H223838   9.850   7.079   9.760
 7866WAT      O23839   7.677   7.454   8.878
 7866WAT     H123840   7.742   7.426   8.949
 7866WAT     H223841   7.683   7.391   8.801
 7867WAT      O23842   4.648   3.558   1.766
 7867WAT     H123843   4.599   3.551   1.679
 7867WAT     H223844   4.600   3.506   1.836
 7868WAT      O23845   4.677   4.867   6.473
 7868WAT     H123846   4.621   4.950   6.472
 7868WAT     H223847   4.774   4.893   6.477
 7869WAT      O23848   4.636   6.122   9.308
 7869WAT     H123849   4.636   6.212   9.351
 7869WAT     H223850   4.542   6.087   9.303
 7870WAT      O23851   0.179   1.282   4.261
 7870WAT     H123852   0.177   1.283   4.361
 7870WAT     H223853   0.086   1.293   4.226
 7871WAT      O23854   9.788   1.636   3.187
 7871WAT     H123855   9.836   1.641   3.275
 7871WAT     H223856   9.773   1.540   3.163
 7872WAT      O23857   1.663   6.808   4.693
 7872WAT     H123858   1.591   6.873   4.720
 7872WAT     H223859   1.638   6.767   4.605
 7873WAT      O23860   0.412   5.223   4.215
 7873WAT     H123861   0.478   5.294   4.237
 7873WAT     H223862   0.448   5.165   4.142
 7874WAT      O23863   7.793   7.642   0.661
 7874WAT     H123864   7.839   7.567   0.709
 7874WAT     H223865   7.708   7.609   0.621
 7875WAT      O23866   4.659   6.407   9.801
 7875WAT     H123867   4.674   6.358   9.887
 7875WAT     H223868   4.561   6.415   9.784
 7876WAT      O23869   8.363   4.240   4.109
 7876WAT     H123870   8.267   4.224   4.131
 7876WAT     H223871   8.418   4.163   4.141
 7877WAT      O23872   2.885   8.175   8.558
 7877WAT     H123873   2.952   8.106   8.529
 7877WAT     H223874   2.910   8.263   8.518
 7878WAT      O23875   0.877   8.567   1.903
 7878WAT     H123876   0.905   8.480   1.943
 7878WAT     H223877   0.958   8.623   1.884
 7879WAT      O23878   3.954   4.110   2.634
 7879WAT     H123879   3.934   4.018   2.600
 7879WAT     H223880   3.890   4.132   2.708
 7880WAT      O23881   0.447   2.570   5.037
 7880WAT     H123882   0.465   2.613   5.125
 7880WAT     H223883   0.498   2.484   5.030
 7881WAT      O23884   7.000   9.296   2.677
 7881WAT     H123885   6.947   9.250   2.606
 7881WAT     H223886   7.085   9.246   2.692
 7882WAT      O23887   5.819   9.716   6.777
 7882WAT     H123888   5.892   9.770   6.818
 7882WAT     H223889   5.753   9.690   6.848
 7883WAT      O23890   0.587   6.986   0.397
 7883WAT     H123891   0.588   6.886   0.404
 7883WAT     H223892   0.593   7.026   0.488
 7884WAT      O23893   2.043   8.186   4.098
 7884WAT     H123894   2.033   8.235   4.185
 7884WAT     H223895   1.979   8.109   4.096
 7885WAT      O23896   5.231   8.279   0.377
 7885WAT     H123897   5.216   8.355   0.314
 7885WAT     H223898   5.299   8.306   0.445
 7886WAT      O23899   1.742   0.226   5.493
 7886WAT     H123900   1.733   0.324   5.509
 7886WAT     H223901   1.725   0.206   5.396
 7887WAT      O23902   7.047   8.351   4.644
 7887WAT     H123903   7.135   8.375   4.686
 7887WAT     H223904   6.977   8.345   4.715
 7888WAT      O23905   1.897   0.526   6.656
 7888WAT     H123906   1.940   0.496   6.570
 7888WAT     H223907   1.798   0.529   6.644
 7889WAT      O23908   0.656   3.618   6.798
 7889WAT     H123909   0.663   3.522   6.771
 7889WAT     H223910   0.732   3.670   6.759
 7890WAT      O23911   8.224   4.735   5.555
 7890WAT     H123912   8.185   4.812   5.607
 7890WAT     H223913   8.154   4.665   5.542
 7891WAT      O23914   2.565   4.479   7.061
 7891WAT     H123915   2.471   4.513   7.060
 7891WAT     H223916   2.564   4.379   7.052
 7892WAT      O23917   9.655   6.767   4.247
 7892WAT     H123918   9.669   6.692   4.311
 7892WAT     H223919   9.616   6.731   4.162
 7893WAT      O23920   1.859   3.430   4.194
 7893WAT     H123921   1.868   3.351   4.133
 7893WAT     H223922   1.946   3.446   4.241
 7894WAT      O23923   9.449   8.730   6.843
 7894WAT     H123924   9.440   8.782   6.758
 7894WAT     H223925   9.513   8.776   6.904
 7895WAT      O23926   6.907   7.351   9.033
 7895WAT     H123927   6.919   7.258   8.999
 7895WAT     H223928   6.947   7.416   8.968
 7896WAT      O23929   0.833   9.731   1.843
 7896WAT     H123930   0.931   9.716   1.833
 7896WAT     H223931   0.784   9.675   1.777
 7897WAT      O23932   4.853   7.512   2.376
 7897WAT     H123933   4.951   7.490   2.375
 7897WAT     H223934   4.842   7.606   2.410
 7898WAT      O23935   8.322   2.441   0.299
 7898WAT     H123936   8.373   2.402   0.223
 7898WAT     H223937   8.226   2.416   0.291
 7899WAT      O23938   2.129   1.779   4.971
 7899WAT     H123939   2.131   1.681   4.951
 7899WAT     H223940   2.045   1.801   5.021
 7900WAT      O23941   6.161   8.948   3.867
 7900WAT     H123942   6.175   8.961   3.769
 7900WAT     H223943   6.065   8.965   3.889
 7901WAT      O23944   1.342   6.761   1.632
 7901WAT     H123945   1.430   6.809   1.632
 7901WAT     H223946   1.327   6.718   1.721
 7902WAT      O23947   6.364   8.231   5.979
 7902WAT     H123948   6.399   8.223   5.886
 7902WAT     H223949   6.428   8.283   6.035
 7903WAT      O23950   8.438   8.277   5.018
 7903WAT     H123951   8.459   8.255   4.923
 7903WAT     H223952   8.522   8.281   5.072
 7904WAT      O23953   8.547   9.263   1.437
 7904WAT     H123954   8.573   9.220   1.524
 7904WAT     H223955   8.469   9.214   1.398
 7905WAT      O23956   4.748   7.717   6.875
 7905WAT     H123957   4.718   7.734   6.969
 7905WAT     H223958   4.809   7.637   6.874
 7906WAT      O23959   1.366   4.946   0.469
 7906WAT     H123960   1.446   4.892   0.443
 7906WAT     H223961   1.385   4.995   0.554
 7907WAT      O23962   4.160   1.748   2.523
 7907WAT     H123963   4.116   1.704   2.445
 7907WAT     H223964   4.187   1.678   2.589
 7908WAT      O23965   4.849   0.144   7.620
 7908WAT     H123966   4.882   0.115   7.710
 7908WAT     H223967   4.889   0.085   7.550
 7909WAT      O23968   2.144   1.973   7.783
 7909WAT     H123969   2.230   1.971   7.732
 7909WAT     H223970   2.071   2.008   7.724
 7910WAT      O23971   5.198   8.483   4.375
 7910WAT     H123972   5.268   8.471   4.445
 7910WAT     H223973   5.212   8.417   4.301
 7911WAT      O23974   9.146   8.503   9.459
 7911WAT     H123975   9.082   8.435   9.497
 7911WAT     H223976   9.199   8.544   9.534
 7912WAT      O23977   3.159   0.753   4.439
 7912WAT     H123978   3.114   0.842   4.445
 7912WAT     H223979   3.180   0.733   4.343
 7913WAT      O23980   0.010   2.544   4.929
 7913WAT     H123981  -0.059   2.602   4.887
 7913WAT     H223982   0.008   2.454   4.885
 7914WAT      O23983   9.678   7.418   6.798
 7914WAT     H123984   9.595   7.371   6.826
 7914WAT     H223985   9.661   7.469   6.714
 7915WAT      O23986   5.928   5.244   4.111
 7915WAT     H123987   5.833   5.234   4.082
 7915WAT     H223988   5.955   5.163   4.163
 7916WAT      O23989   5.289   1.066   9.417
 7916WAT     H123990   5.208   1.082   9.473
 7916WAT     H223991   5.348   0.999   9.462
 7917WAT      O23992   4.097   8.578   9.676
 7917WAT     H123993   4.040   8.639   9.731
 7917WAT     H223994   4.165   8.533   9.736
 7918WAT      O23995   6.076   4.077   6.094
 7918WAT     H123996   6.145   4.079   6.022
 7918WAT     H223997   6.076   3.987   6.139
 7919WAT      O23998   5.149   8.581   9.083
 7919WAT     H123999   5.108   8.520   9.016
 7919WAT     H224000   5.220   8.636   9.039
 7920WAT      O24001   2.003   8.641   7.295
 7920WAT     H124002   2.079   8.588   7.331
 7920WAT     H224003   1.993   8.625   7.197
 7921WAT      O24004   7.168   0.622   7.831
 7921WAT     H124005   7.129   0.567   7.905
 7921WAT     H224006   7.196   0.711   7.866
 7922WAT      O24007   9.497   2.655   4.263
 7922WAT     H124008   9.452   2.744   4.274
 7922WAT     H224009   9.514   2.638   4.166
 7923WAT      O24010   6.898   9.832   7.456
 7923WAT     H124011   6.993   9.802   7.471
 7923WAT     H224012   6.851   9.764   7.400
 7924WAT      O24013   8.581   2.866   2.610
 7924WAT     H124014   8.622   2.956   2.629
 7924WAT     H224015   8.512   2.875   2.538
 7925WAT      O24016   0.293   7.911   9.689
 7925WAT     H124017   0.330   7.829   9.645
 7925WAT     H224018   0.289   7.985   9.622
 7926WAT      O24019   4.103   5.898   2.238
 7926WAT     H124020   4.130   5.994   2.251
 7926WAT     H224021   4.117   5.848   2.324
 7927WAT      O24022   5.855   6.294   6.021
 7927WAT     H124023   5.800   6.358   6.075
 7927WAT     H224024   5.918   6.245   6.081
 7928WAT      O24025   2.576   2.028   5.874
 7928WAT     H124026   2.500   2.006   5.935
 7928WAT     H224027   2.638   2.092   5.918
 7929WAT      O24028   4.955   1.098   8.277
 7929WAT     H124029   4.978   1.019   8.335
 7929WAT     H224030   4.990   1.083   8.185
 7930WAT      O24031   4.773   4.327   0.257
 7930WAT     H124032   4.774   4.341   0.356
 7930WAT     H224033   4.725   4.403   0.213
 7931WAT      O24034   3.456   4.431   6.323
 7931WAT     H124035   3.464   4.523   6.361
 7931WAT     H224036   3.464   4.364   6.397
 7932WAT      O24037   2.830   5.810   7.673
 7932WAT     H124038   2.730   5.801   7.667
 7932WAT     H224039   2.873   5.723   7.652
 7933WAT      O24040   5.674   1.267   9.384
 7933WAT     H124041   5.710   1.271   9.291
 7933WAT     H224042   5.744   1.229   9.445
 7934WAT      O24043   1.276   7.406   8.010
 7934WAT     H124044   1.256   7.388   8.107
 7934WAT     H224045   1.349   7.345   7.980
 7935WAT      O24046   3.572   7.573   7.280
 7935WAT     H124047   3.533   7.646   7.225
 7935WAT     H224048   3.534   7.577   7.372
 7936WAT      O24049   0.733   3.282   5.205
 7936WAT     H124050   0.758   3.271   5.109
 7936WAT     H224051   0.772   3.207   5.259
 7937WAT      O24052   6.944   4.129   6.478
 7937WAT     H124053   6.885   4.135   6.397
 7937WAT     H224054   6.987   4.039   6.481
 7938WAT      O24055   5.311   4.062   5.494
 7938WAT     H124056   5.392   4.036   5.546
 7938WAT     H224057   5.235   4.000   5.517
 7939WAT      O24058   8.209   6.563   8.469
 7939WAT     H124059   8.210   6.488   8.403
 7939WAT     H224060   8.117   6.602   8.472
 7940WAT      O24061   0.180   6.117   8.661
 7940WAT     H124062   0.084   6.089   8.671
 7940WAT     H224063   0.238   6.051   8.709
 7941WAT      O24064   6.389   1.390   1.448
 7941WAT     H124065   6.436   1.476   1.430
 7941WAT     H224066   6.388   1.372   1.546
 7942WAT      O24067   8.959   4.484   9.377
 7942WAT     H124068   8.867   4.446   9.367
 7942WAT     H224069   9.023   4.432   9.320
 7943WAT      O24070   1.548   1.375   4.309
 7943WAT     H124071   1.604   1.303   4.349
 7943WAT     H224072   1.549   1.366   4.209
 7944WAT      O24073   3.204   3.179   9.682
 7944WAT     H124074   3.255   3.168   9.767
 7944WAT     H224075   3.195   3.276   9.660
 7945WAT      O24076   4.385   1.272   9.039
 7945WAT     H124077   4.311   1.252   8.975
 7945WAT     H224078   4.471   1.237   9.002
 7946WAT      O24079   4.594   2.834   7.000
 7946WAT     H124080   4.530   2.900   7.041
 7946WAT     H224081   4.672   2.883   6.962
 7947WAT      O24082   7.393   4.880   5.859
 7947WAT     H124083   7.462   4.951   5.847
 7947WAT     H224084   7.387   4.855   5.956
 7948WAT      O24085   5.625   7.993   8.692
 7948WAT     H124086   5.691   8.043   8.637
 7948WAT     H224087   5.642   8.009   8.789
 7949WAT      O24088   1.408   0.541   3.353
 7949WAT     H124089   1.394   0.637   3.378
 7949WAT     H224090   1.327   0.488   3.375
 7950WAT      O24091   4.155   6.045   5.547
 7950WAT     H124092   4.183   6.042   5.451
 7950WAT     H224093   4.055   6.048   5.552
 7951WAT      O24094   3.195   4.058   0.474
 7951WAT     H124095   3.140   4.105   0.543
 7951WAT     H224096   3.291   4.086   0.483
 7952WAT      O24097   0.701   7.116   5.540
 7952WAT     H124098   0.799   7.101   5.554
 7952WAT     H224099   0.649   7.056   5.601
 7953WAT      O24100   0.631   4.601   8.108
 7953WAT     H124101   0.546   4.562   8.073
 7953WAT     H224102   0.689   4.631   8.032
 7954WAT      O24103   8.568   6.463   3.857
 7954WAT     H124104   8.651   6.503   3.818
 7954WAT     H224105   8.494   6.531   3.854
 7955WAT      O24106   3.609   5.437   4.677
 7955WAT     H124107   3.561   5.501   4.617
 7955WAT     H224108   3.545   5.402   4.745
 7956WAT      O24109   8.286   2.983   3.445
 7956WAT     H124110   8.289   2.996   3.545
 7956WAT     H224111   8.268   2.887   3.425
 7957WAT      O24112   8.874   6.064   4.910
 7957WAT     H124113   8.921   6.029   4.828
 7957WAT     H224114   8.912   6.019   4.991
 7958WAT      O24115   2.128   2.478   8.817
 7958WAT     H124116   2.058   2.548   8.807
 7958WAT     H224117   2.108   2.401   8.756
 7959WAT      O24118   5.525   2.035   1.359
 7959WAT     H124119   5.595   2.105   1.347
 7959WAT     H224120   5.495   2.001   1.269
 7960WAT      O24121   3.996   4.189   1.495
 7960WAT     H124122   3.959   4.282   1.505
 7960WAT     H224123   4.095   4.191   1.505
 7961WAT      O24124   0.837   4.671   3.091
 7961WAT     H124125   0.763   4.626   3.141
 7961WAT     H224126   0.922   4.619   3.104
 7962WAT      O24127   3.418   2.331   8.197
 7962WAT     H124128   3.424   2.292   8.289
 7962WAT     H224129   3.323   2.352   8.176
 7963WAT      O24130   9.615   8.082   0.923
 7963WAT     H124131   9.702   8.127   0.903
 7963WAT     H224132   9.544   8.151   0.934
 7964WAT      O24133   4.320   4.618   3.609
 7964WAT     H124134   4.410   4.617   3.567
 7964WAT     H224135   4.311   4.540   3.671
 7965WAT      O24136   1.486   0.330   4.517
 7965WAT     H124137   1.450   0.290   4.600
 7965WAT     H224138   1.562   0.275   4.483
 7966WAT      O24139   8.739   2.573   7.483
 7966WAT     H124140   8.758   2.664   7.445
 7966WAT     H224141   8.820   2.538   7.529
 7967WAT      O24142   5.524   1.476   3.841
 7967WAT     H124143   5.480   1.522   3.918
 7967WAT     H224144   5.456   1.421   3.792
 7968WAT      O24145   5.079   4.036   2.871
 7968WAT     H124146   5.051   4.129   2.895
 7968WAT     H224147   5.123   4.036   2.781
 7969WAT      O24148   4.796   5.314   8.386
 7969WAT     H124149   4.827   5.282   8.475
 7969WAT     H224150   4.872   5.309   8.320
 7970WAT      O24151   6.905   6.981   8.964
 7970WAT     H124152   6.990   6.988   9.016
 7970WAT     H224153   6.923   6.997   8.867
 7971WAT      O24154   6.696   6.063   4.963
 7971WAT     H124155   6.785   6.042   5.004
 7971WAT     H224156   6.624   6.053   5.032
 7972WAT      O24157   9.273   1.751   2.842
 7972WAT     H124158   9.222   1.677   2.886
 7972WAT     H224159   9.250   1.755   2.745
 7973WAT      O24160   7.253   5.727   9.052
 7973WAT     H124161   7.215   5.639   9.021
 7973WAT     H224162   7.201   5.802   9.011
 7974WAT      O24163   0.922   9.056   3.311
 7974WAT     H124164   0.846   9.040   3.373
 7974WAT     H224165   0.894   9.121   3.240
 7975WAT      O24166   3.968   7.670   3.401
 7975WAT     H124167   3.973   7.605   3.326
 7975WAT     H224168   4.029   7.748   3.383
 7976WAT      O24169   9.008   6.064   2.934
 7976WAT     H124170   8.931   6.075   2.997
 7976WAT     H224171   9.091   6.100   2.977
 7977WAT      O24172   9.563   1.976   5.537
 7977WAT     H124173   9.559   2.076   5.535
 7977WAT     H224174   9.537   1.940   5.447
 7978WAT      O24175   0.733   8.592   4.915
 7978WAT     H124176   0.745   8.554   5.006
 7978WAT     H224177   0.635   8.595   4.893
 7979WAT      O24178   4.331   3.723   4.797
 7979WAT     H124179   4.336   3.630   4.760
 7979WAT     H224180   4.422   3.751   4.827
 7980WAT      O24181   3.693   1.716   9.600
 7980WAT     H124182   3.643   1.720   9.514
 7980WAT     H224183   3.792   1.715   9.581
 7981WAT      O24184   7.604   0.293   7.641
 7981WAT     H124185   7.690   0.343   7.633
 7981WAT     H224186   7.539   0.348   7.693
 7982WAT      O24187   2.445   3.631   6.020
 7982WAT     H124188   2.384   3.552   6.020
 7982WAT     H224189   2.538   3.601   6.038
 7983WAT      O24190   9.267   8.497   7.735
 7983WAT     H124191   9.279   8.404   7.701
 7983WAT     H224192   9.179   8.504   7.783
 7984WAT      O24193   2.783   3.047   0.374
 7984WAT     H124194   2.735   3.132   0.393
 7984WAT     H224195   2.804   3.041   0.276
 7985WAT      O24196   2.889   9.142   3.463
 7985WAT     H124197   2.926   9.227   3.501
 7985WAT     H224198   2.849   9.160   3.373
 7986WAT      O24199   8.308   8.582   2.659
 7986WAT     H124200   8.374   8.571   2.585
 7986WAT     H224201   8.320   8.510   2.727
 7987WAT      O24202   0.488   0.722   8.848
 7987WAT     H124203   0.493   0.778   8.930
 7987WAT     H224204   0.574   0.729   8.797
 7988WAT      O24205   4.424   1.406   6.246
 7988WAT     H124206   4.393   1.462   6.323
 7988WAT     H224207   4.502   1.450   6.202
 7989WAT      O24208   6.120   4.036   9.759
 7989WAT     H124209   6.182   4.085   9.699
 7989WAT     H224210   6.130   4.070   9.853
 7990WAT      O24211   9.523   2.261   4.341
 7990WAT     H124212   9.575   2.280   4.424
 7990WAT     H224213   9.442   2.208   4.364
 7991WAT      O24214   5.462   5.665   1.622
 7991WAT     H124215   5.366   5.643   1.602
 7991WAT     H224216   5.505   5.702   1.539
 7992WAT      O24217   8.163   7.558   8.112
 7992WAT     H124218   8.096   7.516   8.050
 7992WAT     H224219   8.157   7.658   8.103
 7993WAT      O24220   1.393   9.551   9.684
 7993WAT     H124221   1.464   9.557   9.614
 7993WAT     H224222   1.304   9.566   9.643
 7994WAT      O24223   5.497   5.321   9.365
 7994WAT     H124224   5.527   5.231   9.332
 7994WAT     H224225   5.464   5.313   9.459
 7995WAT      O24226   7.822   0.271   4.375
 7995WAT     H124227   7.732   0.234   4.352
 7995WAT     H224228   7.892   0.204   4.352
 7996WAT      O24229   4.613   8.113   9.213
 7996WAT     H124230   4.599   8.157   9.301
 7996WAT     H224231   4.698   8.146   9.172
 7997WAT      O24232   0.142   1.341   6.683
 7997WAT     H124233   0.178   1.357   6.775
 7997WAT     H224234   0.193   1.267   6.639
 7998WAT      O24235   2.627   1.467   3.573
 7998WAT     H124236   2.710   1.518   3.598
 7998WAT     H224237   2.629   1.377   3.616
 7999WAT      O24238   0.558   5.502   2.278
 7999WAT     H124239   0.506   5.423   2.310
 7999WAT     H224240   0.555   5.506   2.178
 8000WAT      O24241   5.861   8.108   4.661
 8000WAT     H124242   5.947   8.139   4.621
 8000WAT     H224243   5.817   8.043   4.600
 8001WAT      O24244   9.623   7.785   3.655
 8001WAT     H124245   9.716   7.782   3.616
 8001WAT     H224246   9.573   7.862   3.616
 8002WAT      O24247   0.690   0.146   1.862
 8002WAT     H124248   0.727   0.194   1.783
 8002WAT     H224249   0.741   0.061   1.876
 8003WAT      O24250   4.075   6.322   4.088
 8003WAT     H124251   3.990   6.371   4.105
 8003WAT     H224252   4.149   6.387   4.072
 8004WAT      O24253   6.529   5.838   1.165
 8004WAT     H124254   6.468   5.768   1.128
 8004WAT     H224255   6.542   5.910   1.097
 8005WAT      O24256   9.016   1.659   4.662
 8005WAT     H124257   8.925   1.630   4.633
 8005WAT     H224258   9.083   1.629   4.594
 8006WAT      O24259   1.743   6.642   6.770
 8006WAT     H124260   1.748   6.692   6.856
 8006WAT     H224261   1.832   6.644   6.724
 8007WAT      O24262   0.229   3.131   0.691
 8007WAT     H124263   0.314   3.163   0.730
 8007WAT     H224264   0.171   3.092   0.763
 8008WAT      O24265   6.482   3.846   0.948
 8008WAT     H124266   6.440   3.766   0.906
 8008WAT     H224267   6.518   3.907   0.877
 8009WAT      O24268   9.684   7.136   6.494
 8009WAT     H124269   9.742   7.213   6.520
 8009WAT     H224270   9.740   7.054   6.482
 8010WAT      O24271   7.795   1.078   1.980
 8010WAT     H124272   7.755   0.996   1.939
 8010WAT     H224273   7.865   1.052   2.047
 8011WAT      O24274   8.577   0.809   6.203
 8011WAT     H124275   8.506   0.800   6.133
 8011WAT     H224276   8.594   0.905   6.222
 8012WAT      O24277   9.107   0.976   2.180
 8012WAT     H124278   9.067   1.055   2.226
 8012WAT     H224279   9.201   0.963   2.211
 8013WAT      O24280   0.538   0.549   3.791
 8013WAT     H124281   0.471   0.619   3.767
 8013WAT     H224282   0.499   0.488   3.861
 8014WAT      O24283   4.855   3.365   5.572
 8014WAT     H124284   4.787   3.314   5.624
 8014WAT     H224285   4.902   3.303   5.509
 8015WAT      O24286   6.931   8.223   4.426
 8015WAT     H124287   6.838   8.253   4.446
 8015WAT     H224288   6.987   8.233   4.509
 8016WAT      O24289   7.099   9.683   1.139
 8016WAT     H124290   7.083   9.729   1.226
 8016WAT     H224291   7.169   9.612   1.151
 8017WAT      O24292   6.959   3.468   9.554
 8017WAT     H124293   6.990   3.519   9.635
 8017WAT     H224294   6.964   3.370   9.574
 8018WAT      O24295   4.845   1.266   7.949
 8018WAT     H124296   4.886   1.220   7.870
 8018WAT     H224297   4.916   1.311   8.003
 8019WAT      O24298   1.950   4.302   0.136
 8019WAT     H124299   1.925   4.210   0.167
 8019WAT     H224300   2.005   4.346   0.207
 8020WAT      O24301   5.854   7.397   9.636
 8020WAT     H124302   5.803   7.460   9.694
 8020WAT     H224303   5.950   7.396   9.663
 8021WAT      O24304   6.682   7.488   5.813
 8021WAT     H124305   6.757   7.428   5.783
 8021WAT     H224306   6.672   7.563   5.749
 8022WAT      O24307   7.265   4.067   5.744
 8022WAT     H124308   7.291   4.027   5.656
 8022WAT     H224309   7.279   4.000   5.817
 8023WAT      O24310   4.504   5.646   9.510
 8023WAT     H124311   4.429   5.584   9.530
 8023WAT     H224312   4.490   5.688   9.420
 8024WAT      O24313   7.983   0.360   2.359
 8024WAT     H124314   7.960   0.428   2.429
 8024WAT     H224315   7.970   0.401   2.268
 8025WAT      O24316   7.722   0.777   1.700
 8025WAT     H124317   7.655   0.799   1.771
 8025WAT     H224318   7.701   0.829   1.617
 8026WAT      O24319   3.241   6.113   6.472
 8026WAT     H124320   3.305   6.172   6.423
 8026WAT     H224321   3.159   6.165   6.495
 8027WAT      O24322   8.698   3.643   6.731
 8027WAT     H124323   8.664   3.706   6.800
 8027WAT     H224324   8.741   3.694   6.657
 8028WAT      O24325   6.735   6.909   2.656
 8028WAT     H124326   6.715   6.811   2.660
 8028WAT     H224327   6.832   6.923   2.640
 8029WAT      O24328   8.890   8.326   9.199
 8029WAT     H124329   8.876   8.344   9.102
 8029WAT     H224330   8.904   8.413   9.247
 8030WAT      O24331   7.414   6.719   7.467
 8030WAT     H124332   7.381   6.810   7.444
 8030WAT     H224333   7.514   6.719   7.471
 8031WAT      O24334   4.056   7.177   3.876
 8031WAT     H124335   4.102   7.094   3.907
 8031WAT     H224336   3.989   7.154   3.805
 8032WAT      O24337   3.525   7.592   3.496
 8032WAT     H124338   3.603   7.636   3.542
 8032WAT     H224339   3.459   7.561   3.564
 8033WAT      O24340   7.725   1.464   8.405
 8033WAT     H124341   7.678   1.551   8.394
 8033WAT     H224342   7.774   1.463   8.493
 8034WAT      O24343   8.209   8.273   3.218
 8034WAT     H124344   8.178   8.329   3.295
 8034WAT     H224345   8.132   8.256   3.157
 8035WAT      O24346   4.397   1.763   7.758
 8035WAT     H124347   4.383   1.809   7.670
 8035WAT     H224348   4.315   1.773   7.814
 8036WAT      O24349   3.290   3.673   9.360
 8036WAT     H124350   3.356   3.713   9.297
 8036WAT     H224351   3.261   3.741   9.427
 8037WAT      O24352   8.578   8.478   3.529
 8037WAT     H124353   8.653   8.427   3.570
 8037WAT     H224354   8.560   8.560   3.582
 8038WAT      O24355   9.296   8.581   7.029
 8038WAT     H124356   9.366   8.548   7.092
 8038WAT     H224357   9.340   8.628   6.952
 8039WAT      O24358   8.423   0.806   0.022
 8039WAT     H124359   8.342   0.767   0.066
 8039WAT     H224360   8.491   0.734   0.008
 8040WAT      O24361   9.282   5.800   6.815
 8040WAT     H124362   9.204   5.801   6.877
 8040WAT     H224363   9.272   5.727   6.748
 8041WAT      O24364   1.476   5.110   7.328
 8041WAT     H124365   1.482   5.135   7.425
 8041WAT     H224366   1.545   5.040   7.308
 8042WAT      O24367   4.641   4.010   7.379
 8042WAT     H124368   4.602   3.924   7.413
 8042WAT     H224369   4.694   3.993   7.297
 8043WAT      O24370   6.628   2.306   2.747
 8043WAT     H124371   6.717   2.267   2.723
 8043WAT     H224372   6.555   2.249   2.708
 8044WAT      O24373   2.804   3.500   0.308
 8044WAT     H124374   2.741   3.459   0.242
 8044WAT     H224375   2.762   3.582   0.347
 8045WAT      O24376   5.928   9.520   4.745
 8045WAT     H124377   5.854   9.476   4.695
 8045WAT     H224378   5.894   9.558   4.830
 8046WAT      O24379   6.220   1.602   4.974
 8046WAT     H124380   6.168   1.517   4.960
 8046WAT     H224381   6.159   1.673   5.009
 8047WAT      O24382   3.925   1.453   0.324
 8047WAT     H124383   3.938   1.457   0.225
 8047WAT     H224384   3.943   1.359   0.356
 8048WAT      O24385   5.272   8.304   3.369
 8048WAT     H124386   5.343   8.350   3.422
 8048WAT     H224387   5.313   8.234   3.311
 8049WAT      O24388   1.097   9.129   2.331
 8049WAT     H124389   1.087   9.030   2.338
 8049WAT     H224390   1.073   9.158   2.238
 8050WAT      O24391   3.288   2.575   8.342
 8050WAT     H124392   3.243   2.513   8.278
 8050WAT     H224393   3.351   2.523   8.400
 8051WAT      O24394   8.273   8.745   7.306
 8051WAT     H124395   8.184   8.710   7.277
 8051WAT     H224396   8.338   8.739   7.230
 8052WAT      O24397   6.842   2.664   3.705
 8052WAT     H124398   6.785   2.678   3.624
 8052WAT     H224399   6.842   2.747   3.760
 8053WAT      O24400   9.826   6.382   4.121
 8053WAT     H124401   9.816   6.432   4.035
 8053WAT     H224402   9.884   6.302   4.107
 8054WAT      O24403   9.740   9.598   4.880
 8054WAT     H124404   9.782   9.678   4.923
 8054WAT     H224405   9.772   9.591   4.785
 8055WAT      O24406   2.994   1.850   7.491
 8055WAT     H124407   2.951   1.927   7.539
 8055WAT     H224408   2.963   1.764   7.533
 8056WAT      O24409   6.869   0.090   6.442
 8056WAT     H124410   6.782   0.042   6.448
 8056WAT     H224411   6.886   0.139   6.528
 8057WAT      O24412   4.021   6.231   6.436
 8057WAT     H124413   4.005   6.132   6.433
 8057WAT     H224414   4.119   6.250   6.431
 8058WAT      O24415   4.754   1.770   6.999
 8058WAT     H124416   4.739   1.830   7.078
 8058WAT     H224417   4.670   1.763   6.946
 8059WAT      O24418   4.673   3.828   7.912
 8059WAT     H124419   4.738   3.774   7.966
 8059WAT     H224420   4.582   3.789   7.920
 8060WAT      O24421   7.520   5.290   1.342
 8060WAT     H124422   7.499   5.382   1.376
 8060WAT     H224423   7.577   5.242   1.408
 8061WAT      O24424   9.015   8.151   1.173
 8061WAT     H124425   8.937   8.161   1.235
 8061WAT     H224426   8.981   8.126   1.082
 8062WAT      O24427   6.665   6.682   9.628
 8062WAT     H124428   6.729   6.706   9.554
 8062WAT     H224429   6.652   6.583   9.629
 8063WAT      O24430   6.786   0.645   6.993
 8063WAT     H124431   6.715   0.697   6.945
 8063WAT     H224432   6.860   0.622   6.929
 8064WAT      O24433   0.362   7.225   6.268
 8064WAT     H124434   0.404   7.230   6.358
 8064WAT     H224435   0.389   7.304   6.214
 8065WAT      O24436   3.877   2.040   9.597
 8065WAT     H124437   3.780   2.063   9.606
 8065WAT     H224438   3.906   1.989   9.678
 8066WAT      O24439   9.185   8.122   1.766
 8066WAT     H124440   9.257   8.103   1.700
 8066WAT     H224441   9.118   8.048   1.764
 8067WAT      O24442   4.106   8.898   0.179
 8067WAT     H124443   4.087   8.928   0.272
 8067WAT     H224444   4.161   8.967   0.132
 8068WAT      O24445   6.486   9.684   5.579
 8068WAT     H124446   6.425   9.755   5.615
 8068WAT     H224447   6.463   9.667   5.483
 8069WAT      O24448   8.321   7.791   5.176
 8069WAT     H124449   8.408   7.807   5.222
 8069WAT     H224450   8.286   7.701   5.200
 8070WAT      O24451   4.326   0.608   2.463
 8070WAT     H124452   4.311   0.668   2.384
 8070WAT     H224453   4.319   0.661   2.547
 8071WAT      O24454   8.738   2.068   6.092
 8071WAT     H124455   8.745   2.016   6.007
 8071WAT     H224456   8.650   2.114   6.096
 8072WAT      O24457   3.001   1.102   3.226
 8072WAT     H124458   3.096   1.100   3.195
 8072WAT     H224459   2.963   1.193   3.213
 8073WAT      O24460   7.093   8.734   8.266
 8073WAT     H124461   7.088   8.713   8.363
 8073WAT     H224462   7.156   8.670   8.221
 8074WAT      O24463   3.252   7.075   4.396
 8074WAT     H124464   3.302   7.160   4.382
 8074WAT     H224465   3.258   7.048   4.492
 8075WAT      O24466   1.925   5.963   5.221
 8075WAT     H124467   1.844   5.923   5.264
 8075WAT     H224468   1.970   5.894   5.165
 8076WAT      O24469   2.310   7.046   1.512
 8076WAT     H124470   2.344   7.048   1.418
 8076WAT     H224471   2.305   6.952   1.544
 8077WAT      O24472   5.016   4.734   8.919
 8077WAT     H124473   4.958   4.663   8.960
 8077WAT     H224474   5.051   4.701   8.831
 8078WAT      O24475   1.039   4.420   5.817
 8078WAT     H124476   1.002   4.513   5.829
 8078WAT     H224477   1.112   4.405   5.884
 8079WAT      O24478   3.101   2.689   3.331
 8079WAT     H124479   3.087   2.682   3.430
 8079WAT     H224480   3.195   2.665   3.309
 8080WAT      O24481   2.216   9.028   5.372
 8080WAT     H124482   2.167   9.115   5.377
 8080WAT     H224483   2.151   8.952   5.375
 8081WAT      O24484   1.153   3.525   9.251
 8081WAT     H124485   1.204   3.575   9.320
 8081WAT     H224486   1.060   3.509   9.284
 8082WAT      O24487   5.419   0.669   1.477
 8082WAT     H124488   5.362   0.751   1.484
 8082WAT     H224489   5.515   0.693   1.490
 8083WAT      O24490   3.963   5.131   3.888
 8083WAT     H124491   3.986   5.101   3.796
 8083WAT     H224492   3.867   5.113   3.907
 8084WAT      O24493   6.460   1.208   1.922
 8084WAT     H124494   6.400   1.246   1.993
 8084WAT     H224495   6.497   1.120   1.954
 8085WAT      O24496   8.912   9.341   8.949
 8085WAT     H124497   8.815   9.320   8.937
 8085WAT     H224498   8.952   9.276   9.013
 8086WAT      O24499   0.576   0.975   6.268
 8086WAT     H124500   0.663   1.021   6.289
 8086WAT     H224501   0.591   0.877   6.262
 8087WAT      O24502   5.132   7.598   8.573
 8087WAT     H124503   5.033   7.587   8.580
 8087WAT     H224504   5.154   7.656   8.494
 8088WAT      O24505   8.372   9.191   6.436
 8088WAT     H124506   8.339   9.101   6.406
 8088WAT     H224507   8.461   9.180   6.480
 8089WAT      O24508   0.238   2.766   4.331
 8089WAT     H124509   0.337   2.775   4.336
 8089WAT     H224510   0.212   2.670   4.341
 8090WAT      O24511   2.502   9.411   6.200
 8090WAT     H124512   2.520   9.465   6.117
 8090WAT     H224513   2.462   9.323   6.173
 8091WAT      O24514   2.736   5.105   5.370
 8091WAT     H124515   2.778   5.192   5.395
 8091WAT     H224516   2.637   5.111   5.380
 8092WAT      O24517   2.640   7.883   3.196
 8092WAT     H124518   2.615   7.955   3.261
 8092WAT     H224519   2.669   7.924   3.110
 8093WAT      O24520   7.162   1.180   2.421
 8093WAT     H124521   7.247   1.129   2.418
 8093WAT     H224522   7.100   1.138   2.488
 8094WAT      O24523   3.967   1.422   6.257
 8094WAT     H124524   3.936   1.461   6.170
 8094WAT     H224525   4.010   1.334   6.240
 8095WAT      O24526   7.783   9.634   3.750
 8095WAT     H124527   7.746   9.726   3.763
 8095WAT     H224528   7.741   9.592   3.669
 8096WAT      O24529   5.818   7.787   1.553
 8096WAT     H124530   5.731   7.824   1.586
 8096WAT     H224531   5.883   7.782   1.629
 8097WAT      O24532   9.233   0.953   2.727
 8097WAT     H124533   9.147   1.003   2.734
 8097WAT     H224534   9.217   0.855   2.737
 8098WAT      O24535   4.086   1.579   4.793
 8098WAT     H124536   4.096   1.634   4.710
 8098WAT     H224537   4.174   1.572   4.840
 8099WAT      O24538   1.150   7.372   1.450
 8099WAT     H124539   1.069   7.399   1.502
 8099WAT     H224540   1.201   7.454   1.424
 8100WAT      O24541   0.698   2.764   9.486
 8100WAT     H124542   0.686   2.683   9.543
 8100WAT     H224543   0.726   2.841   9.543
 8101WAT      O24544   4.130   9.507   0.885
 8101WAT     H124545   4.217   9.459   0.868
 8101WAT     H224546   4.064   9.443   0.923
 8102WAT      O24547   3.404   2.198   8.454
 8102WAT     H124548   3.430   2.109   8.491
 8102WAT     H224549   3.323   2.232   8.502
 8103WAT      O24550   5.641   2.541   2.272
 8103WAT     H124551   5.700   2.568   2.348
 8103WAT     H224552   5.697   2.526   2.190
 8104WAT      O24553   9.661   3.183   5.254
 8104WAT     H124554   9.743   3.190   5.312
 8104WAT     H224555   9.601   3.111   5.289
 8105WAT      O24556   1.778   7.172   7.830
 8105WAT     H124557   1.811   7.155   7.738
 8105WAT     H224558   1.731   7.261   7.833
 8106WAT      O24559   8.974   2.286   0.486
 8106WAT     H124560   8.893   2.240   0.524
 8106WAT     H224561   8.945   2.353   0.418
 8107WAT      O24562   0.375   0.315   3.152
 8107WAT     H124563   0.426   0.282   3.072
 8107WAT     H224564   0.303   0.378   3.123
 8108WAT      O24565   8.897   8.892   5.430
 8108WAT     H124566   8.908   8.964   5.498
 8108WAT     H224567   8.983   8.841   5.422
 8109WAT      O24568   2.607   5.741   5.093
 8109WAT     H124569   2.517   5.706   5.121
 8109WAT     H224570   2.678   5.674   5.118
 8110WAT      O24571   5.452   4.414   9.030
 8110WAT     H124572   5.536   4.440   9.077
 8110WAT     H224573   5.377   4.471   9.063
 8111WAT      O24574   5.205   5.522   6.861
 8111WAT     H124575   5.188   5.571   6.946
 8111WAT     H224576   5.128   5.534   6.799
 8112WAT      O24577   0.272   2.083   8.522
 8112WAT     H124578   0.283   2.182   8.511
 8112WAT     H224579   0.303   2.057   8.613
 8113WAT      O24580   7.006   7.655   0.942
 8113WAT     H124581   7.008   7.671   0.843
 8113WAT     H224582   7.053   7.730   0.988
 8114WAT      O24583   1.321   4.243   7.077
 8114WAT     H124584   1.326   4.152   7.036
 8114WAT     H224585   1.298   4.234   7.174
 8115WAT      O24586   6.828   7.005   5.589
 8115WAT     H124587   6.796   6.910   5.599
 8115WAT     H224588   6.843   7.044   5.680
 8116WAT      O24589   0.178   2.694   5.905
 8116WAT     H124590   0.107   2.655   5.965
 8116WAT     H224591   0.158   2.790   5.889
 8117WAT      O24592   9.033   3.836   5.049
 8117WAT     H124593   9.097   3.760   5.059
 8117WAT     H224594   8.948   3.814   5.096
 8118WAT      O24595   9.196   9.349   0.824
 8118WAT     H124596   9.132   9.377   0.753
 8118WAT     H224597   9.244   9.429   0.859
 8119WAT      O24598   6.864   2.818   5.589
 8119WAT     H124599   6.960   2.847   5.586
 8119WAT     H224600   6.857   2.723   5.561
 8120WAT      O24601   1.971   4.044   4.486
 8120WAT     H124602   1.981   4.140   4.459
 8120WAT     H224603   2.054   4.014   4.534
 8121WAT      O24604   4.019   2.720   3.350
 8121WAT     H124605   4.115   2.743   3.364
 8121WAT     H224606   3.983   2.773   3.273
 8122WAT      O24607   2.251   0.746   1.842
 8122WAT     H124608   2.250   0.722   1.745
 8122WAT     H224609   2.344   0.770   1.871
 8123WAT      O24610   4.419   7.577   8.372
 8123WAT     H124611   4.399   7.674   8.363
 8123WAT     H224612   4.339   7.523   8.343
 8124WAT      O24613   8.729   5.908   9.568
 8124WAT     H124614   8.736   6.008   9.574
 8124WAT     H224615   8.649   5.877   9.619
 8125WAT      O24616   5.770   7.418   0.092
 8125WAT     H124617   5.760   7.323   0.065
 8125WAT     H224618   5.830   7.424   0.172
 8126WAT      O24619   5.205   1.722   4.109
 8126WAT     H124620   5.131   1.743   4.045
 8126WAT     H224621   5.170   1.730   4.203
 8127WAT      O24622   6.134   5.129   9.829
 8127WAT     H124623   6.043   5.095   9.854
 8127WAT     H224624   6.154   5.212   9.881
 8128WAT      O24625   2.188   4.544   4.012
 8128WAT     H124626   2.161   4.640   3.998
 8128WAT     H224627   2.213   4.504   3.924
 8129WAT      O24628   6.735   7.196   1.360
 8129WAT     H124629   6.663   7.170   1.426
 8129WAT     H224630   6.731   7.295   1.345
 8130WAT      O24631   4.975   9.790   5.886
 8130WAT     H124632   4.902   9.842   5.842
 8130WAT     H224633   5.033   9.748   5.816
 8131WAT      O24634   2.869   0.794   4.129
 8131WAT     H124635   2.923   0.716   4.097
 8131WAT     H224636   2.849   0.854   4.052
 8132WAT      O24637   9.120   8.255   9.830
 8132WAT     H124638   9.040   8.249   9.890
 8132WAT     H224639   9.199   8.215   9.875
 8133WAT      O24640   3.869   0.613   4.330
 8133WAT     H124641   3.780   0.652   4.306
 8133WAT     H224642   3.942   0.670   4.292
 8134WAT      O24643   5.440   8.097   7.632
 8134WAT     H124644   5.524   8.045   7.649
 8134WAT     H224645   5.394   8.115   7.719
 8135WAT      O24646   0.254   0.363   6.210
 8135WAT     H124647   0.217   0.336   6.121
 8135WAT     H224648   0.189   0.423   6.257
 8136WAT      O24649   5.721   4.202   5.741
 8136WAT     H124650   5.710   4.272   5.671
 8136WAT     H224651   5.772   4.240   5.818
 8137WAT      O24652   8.437   2.345   7.809
 8137WAT     H124653   8.503   2.272   7.791
 8137WAT     H224654   8.386   2.324   7.892
 8138WAT      O24655   7.085   5.781   0.877
 8138WAT     H124656   7.136   5.783   0.791
 8138WAT     H224657   7.024   5.861   0.881
 8139WAT      O24658   7.259   0.746   9.194
 8139WAT     H124659   7.220   0.687   9.123
 8139WAT     H224660   7.220   0.837   9.186
 8140WAT      O24661   8.739   4.728   5.020
 8140WAT     H124662   8.764   4.792   5.092
 8140WAT     H224663   8.641   4.707   5.025
 8141WAT      O24664   0.626   2.368   8.052
 8141WAT     H124665   0.679   2.321   8.122
 8141WAT     H224666   0.631   2.317   7.966
 8142WAT      O24667   5.595   7.695   7.401
 8142WAT     H124668   5.564   7.768   7.341
 8142WAT     H224669   5.604   7.730   7.494
 8143WAT      O24670   1.420   2.811   7.516
 8143WAT     H124671   1.373   2.896   7.541
 8143WAT     H224672   1.516   2.817   7.542
 8144WAT      O24673   5.366   9.376   2.386
 8144WAT     H124674   5.329   9.420   2.305
 8144WAT     H224675   5.291   9.347   2.446
 8145WAT      O24676   7.279   2.179   7.303
 8145WAT     H124677   7.294   2.141   7.394
 8145WAT     H224678   7.277   2.105   7.235
 8146WAT      O24679   4.113   5.682   9.131
 8146WAT     H124680   4.166   5.628   9.067
 8146WAT     H224681   4.092   5.771   9.091
 8147WAT      O24682   5.866   0.445   9.575
 8147WAT     H124683   5.914   0.531   9.557
 8147WAT     H224684   5.851   0.435   9.673
 8148WAT      O24685   3.010   7.625   9.262
 8148WAT     H124686   3.104   7.592   9.273
 8148WAT     H224687   2.952   7.550   9.229
 8149WAT      O24688   7.586   9.166   2.618
 8149WAT     H124689   7.666   9.149   2.677
 8149WAT     H224690   7.559   9.081   2.574
 8150WAT      O24691   9.176   7.940   2.294
 8150WAT     H124692   9.136   7.972   2.208
 8150WAT     H224693   9.160   8.007   2.366
 8151WAT      O24694   8.036   6.793   9.258
 8151WAT     H124695   8.127   6.793   9.300
 8151WAT     H224696   8.021   6.706   9.211
 8152WAT      O24697   9.218   6.217   2.436
 8152WAT     H124698   9.178   6.143   2.490
 8152WAT     H224699   9.285   6.266   2.491
 8153WAT      O24700   9.847   2.495   8.352
 8153WAT     H124701   9.909   2.522   8.279
 8153WAT     H224702   9.845   2.396   8.361
 8154WAT      O24703   8.924   4.377   3.874
 8154WAT     H124704   8.973   4.396   3.959
 8154WAT     H224705   8.989   4.353   3.802
 8155WAT      O24706   5.155   7.211   4.608
 8155WAT     H124707   5.080   7.274   4.586
 8155WAT     H224708   5.190   7.171   4.524
 8156WAT      O24709   6.408   9.717   6.099
 8156WAT     H124710   6.440   9.625   6.077
 8156WAT     H224711   6.402   9.728   6.198
 8157WAT      O24712   9.227   7.735   9.669
 8157WAT     H124713   9.279   7.658   9.708
 8157WAT     H224714   9.276   7.820   9.688
 8158WAT      O24715   7.333   3.899   5.519
 8158WAT     H124716   7.429   3.897   5.547
 8158WAT     H224717   7.327   3.924   5.422
 8159WAT      O24718   0.119   8.309   0.053
 8159WAT     H124719   0.204   8.258   0.036
 8159WAT     H224720   0.083   8.344  -0.034
 8160WAT      O24721   7.338   7.447   3.848
 8160WAT     H124722   7.419   7.405   3.889
 8160WAT     H224723   7.265   7.379   3.841
 8161WAT      O24724   6.817   1.724   8.594
 8161WAT     H124725   6.736   1.679   8.632
 8161WAT     H224726   6.829   1.813   8.637
 8162WAT      O24727   9.352   6.840   8.414
 8162WAT     H124728   9.274   6.778   8.401
 8162WAT     H224729   9.436   6.795   8.385
 8163WAT      O24730   5.618   3.661   4.235
 8163WAT     H124731   5.635   3.668   4.136
 8163WAT     H224732   5.590   3.568   4.257
 8164WAT      O24733   7.031   1.863   0.400
 8164WAT     H124734   7.078   1.918   0.331
 8164WAT     H224735   7.024   1.915   0.485
 8165WAT      O24736   1.116   4.004   0.735
 8165WAT     H124737   1.119   4.092   0.688
 8165WAT     H224738   1.168   4.009   0.820
 8166WAT      O24739   8.328   6.532   5.295
 8166WAT     H124740   8.262   6.604   5.317
 8166WAT     H224741   8.419   6.573   5.283
 8167WAT      O24742   5.585   2.314   5.777
 8167WAT     H124743   5.491   2.290   5.803
 8167WAT     H224744   5.646   2.239   5.802
 8168WAT      O24745   3.366   6.802   9.479
 8168WAT     H124746   3.315   6.780   9.562
 8168WAT     H224747   3.439   6.734   9.467
 8169WAT      O24748   0.129   6.761   9.190
 8169WAT     H124749   0.081   6.705   9.258
 8169WAT     H224750   0.168   6.702   9.119
 8170WAT      O24751   0.740   6.878   7.757
 8170WAT     H124752   0.728   6.797   7.815
 8170WAT     H224753   0.651   6.922   7.743
 8171WAT      O24754   3.324   7.997   5.028
 8171WAT     H124755   3.415   7.987   5.068
 8171WAT     H224756   3.332   8.005   4.929
 8172WAT      O24757   4.547   2.147   5.931
 8172WAT     H124758   4.613   2.202   5.880
 8172WAT     H224759   4.541   2.180   6.024
 8173WAT      O24760   7.592   7.484   7.779
 8173WAT     H124761   7.545   7.486   7.867
 8173WAT     H224762   7.614   7.389   7.756
 8174WAT      O24763   7.336   7.247   1.644
 8174WAT     H124764   7.386   7.321   1.687
 8174WAT     H224765   7.244   7.278   1.618
 8175WAT      O24766   8.587   3.216   9.559
 8175WAT     H124767   8.555   3.266   9.639
 8175WAT     H224768   8.638   3.135   9.589
 8176WAT      O24769   3.484   4.888   1.358
 8176WAT     H124770   3.433   4.823   1.302
 8176WAT     H224771   3.518   4.841   1.440
 8177WAT      O24772   9.432   7.225   5.636
 8177WAT     H124773   9.482   7.267   5.560
 8177WAT     H224774   9.441   7.126   5.631
 8178WAT      O24775   2.152   9.663   3.130
 8178WAT     H124776   2.097   9.631   3.207
 8178WAT     H224777   2.101   9.650   3.045
 8179WAT      O24778   8.557   0.756   0.298
 8179WAT     H124779   8.561   0.838   0.240
 8179WAT     H224780   8.465   0.746   0.335
 8180WAT      O24781   9.783   4.239   0.543
 8180WAT     H124782   9.732   4.284   0.469
 8180WAT     H224783   9.869   4.287   0.558
 8181WAT      O24784   9.816   2.963   0.029
 8181WAT     H124785   9.902   2.919   0.057
 8181WAT     H224786   9.827   3.000  -0.063
 8182WAT      O24787   4.077   9.290   1.531
 8182WAT     H124788   4.084   9.382   1.492
 8182WAT     H224789   3.985   9.254   1.514
 8183WAT      O24790   9.398   4.234   2.373
 8183WAT     H124791   9.311   4.279   2.391
 8183WAT     H224792   9.443   4.212   2.459
 8184WAT      O24793   7.778   5.159   7.621
 8184WAT     H124794   7.822   5.163   7.711
 8184WAT     H224795   7.709   5.232   7.615
 8185WAT      O24796   0.606   1.415   3.517
 8185WAT     H124797   0.584   1.340   3.580
 8185WAT     H224798   0.552   1.405   3.434
 8186WAT      O24799   7.735   7.817   0.899
 8186WAT     H124800   7.727   7.725   0.860
 8186WAT     H224801   7.679   7.881   0.845
 8187WAT      O24802   5.187   4.434   4.081
 8187WAT     H124803   5.204   4.339   4.107
 8187WAT     H224804   5.250   4.494   4.131
 8188WAT      O24805   4.034   6.215   4.634
 8188WAT     H124806   4.095   6.169   4.697
 8188WAT     H224807   4.065   6.309   4.620
 8189WAT      O24808   6.362   7.799   3.751
 8189WAT     H124809   6.332   7.703   3.754
 8189WAT     H224810   6.418   7.819   3.832
 8190WAT      O24811   6.405   5.304   3.215
 8190WAT     H124812   6.322   5.253   3.190
 8190WAT     H224813   6.400   5.332   3.311
 8191WAT      O24814   7.173   0.383   8.015
 8191WAT     H124815   7.133   0.340   7.934
 8191WAT     H224816   7.116   0.363   8.095
 8192WAT      O24817   1.331   7.170   5.893
 8192WAT     H124818   1.261   7.189   5.824
 8192WAT     H224819   1.417   7.146   5.849
 8193WAT      O24820   7.439   1.786   2.938
 8193WAT     H124821   7.501   1.745   3.005
 8193WAT     H224822   7.432   1.884   2.955
 8194WAT      O24823   4.205   1.599   2.012
 8194WAT     H124824   4.191   1.500   2.012
 8194WAT     H224825   4.174   1.637   2.099
 8195WAT      O24826   7.289   4.463   5.447
 8195WAT     H124827   7.272   4.409   5.530
 8195WAT     H224828   7.364   4.421   5.395
 8196WAT      O24829   3.586   2.298   3.963
 8196WAT     H124830   3.572   2.199   3.973
 8196WAT     H224831   3.684   2.318   3.962
 8197WAT      O24832   1.411   4.908   5.363
 8197WAT     H124833   1.507   4.911   5.337
 8197WAT     H224834   1.403   4.866   5.454
 8198WAT      O24835   8.266   6.413   3.373
 8198WAT     H124836   8.225   6.503   3.357
 8198WAT     H224837   8.194   6.346   3.387
 8199WAT      O24838   5.270   3.630   4.955
 8199WAT     H124839   5.214   3.554   4.923
 8199WAT     H224840   5.282   3.623   5.054
 8200WAT      O24841   0.713   9.740   7.586
 8200WAT     H124842   0.712   9.838   7.607
 8200WAT     H224843   0.626   9.699   7.616
 8201WAT      O24844   6.257   4.695   6.206
 8201WAT     H124845   6.257   4.615   6.147
 8201WAT     H224846   6.333   4.689   6.271
 8202WAT      O24847   5.640   7.681   0.940
 8202WAT     H124848   5.577   7.720   1.008
 8202WAT     H224849   5.733   7.711   0.961
 8203WAT      O24850   9.347   2.643   0.182
 8203WAT     H124851   9.285   2.650   0.104
 8203WAT     H224852   9.437   2.613   0.151
 8204WAT      O24853   3.813   1.168   4.482
 8204WAT     H124854   3.789   1.081   4.523
 8204WAT     H224855   3.903   1.161   4.437
 8205WAT      O24856   6.225   0.429   4.357
 8205WAT     H124857   6.181   0.401   4.442
 8205WAT     H224858   6.323   0.438   4.370
 8206WAT      O24859   4.223   1.152   8.825
 8206WAT     H124860   4.232   1.142   8.726
 8206WAT     H224861   4.143   1.100   8.856
 8207WAT      O24862   2.737   2.051   1.058
 8207WAT     H124863   2.682   2.048   0.975
 8207WAT     H224864   2.728   2.141   1.101
 8208WAT      O24865   9.086   6.411   2.256
 8208WAT     H124866   9.138   6.331   2.286
 8208WAT     H224867   9.017   6.434   2.324
 8209WAT      O24868   7.673   4.756   7.305
 8209WAT     H124869   7.643   4.738   7.212
 8209WAT     H224870   7.724   4.677   7.339
 8210WAT      O24871   9.178   8.073   2.978
 8210WAT     H124872   9.100   8.022   3.015
 8210WAT     H224873   9.251   8.077   3.046
 8211WAT      O24874   7.430   7.411   5.756
 8211WAT     H124875   7.466   7.424   5.664
 8211WAT     H224876   7.461   7.486   5.815
 8212WAT      O24877   6.952   0.686   2.456
 8212WAT     H124878   7.039   0.657   2.494
 8212WAT     H224879   6.968   0.750   2.381
 8213WAT      O24880   4.996   0.586   6.675
 8213WAT     H124881   4.907   0.601   6.631
 8213WAT     H224882   4.985   0.593   6.774
 8214WAT      O24883   9.143   1.472   3.351
 8214WAT     H124884   9.128   1.443   3.445
 8214WAT     H224885   9.099   1.560   3.336
 8215WAT      O24886   9.266   3.359   5.748
 8215WAT     H124887   9.358   3.329   5.775
 8215WAT     H224888   9.248   3.329   5.654
 8216WAT      O24889   8.828   1.741   7.239
 8216WAT     H124890   8.828   1.672   7.313
 8216WAT     H224891   8.874   1.703   7.159
 8217WAT      O24892   9.034   9.070   3.910
 8217WAT     H124893   9.039   9.170   3.911
 8217WAT     H224894   9.105   9.033   3.970
 8218WAT      O24895   3.683   0.645   9.394
 8218WAT     H124896   3.751   0.645   9.468
 8218WAT     H224897   3.694   0.562   9.339
 8219WAT      O24898   9.179   3.892   9.781
 8219WAT     H124899   9.205   3.989   9.778
 8219WAT     H224900   9.092   3.879   9.734
 8220WAT      O24901   0.390   0.687   6.024
 8220WAT     H124902   0.417   0.591   6.035
 8220WAT     H224903   0.442   0.727   5.948
 8221WAT      O24904   1.903   1.421   7.246
 8221WAT     H124905   1.817   1.431   7.196
 8221WAT     H224906   1.887   1.366   7.328
 8222WAT      O24907   0.237   1.017   6.839
 8222WAT     H124908   0.288   1.070   6.906
 8222WAT     H224909   0.150   0.987   6.879
 8223WAT      O24910   1.319   9.408   3.366
 8223WAT     H124911   1.414   9.423   3.339
 8223WAT     H224912   1.268   9.493   3.357
 8224WAT      O24913   1.551   5.982   4.202
 8224WAT     H124914   1.645   5.999   4.231
 8224WAT     H224915   1.551   5.925   4.120
 8225WAT      O24916   5.870   0.047   2.126
 8225WAT     H124917   5.841   0.091   2.212
 8225WAT     H224918   5.969   0.056   2.117
 8226WAT      O24919   0.607   1.382   4.985
 8226WAT     H124920   0.543   1.313   5.017
 8226WAT     H224921   0.578   1.472   5.018
 8227WAT      O24922   1.633   7.651   2.653
 8227WAT     H124923   1.728   7.633   2.676
 8227WAT     H224924   1.575   7.633   2.733
 8228WAT      O24925   1.710   0.855   3.110
 8228WAT     H124926   1.626   0.816   3.074
 8228WAT     H224927   1.781   0.784   3.115
 8229WAT      O24928   6.530   0.232   6.861
 8229WAT     H124929   6.603   0.264   6.922
 8229WAT     H224930   6.453   0.295   6.865
 8230WAT      O24931   2.281   1.224   7.438
 8230WAT     H124932   2.370   1.181   7.431
 8230WAT     H224933   2.215   1.174   7.381
 8231WAT      O24934   6.291   1.063   6.062
 8231WAT     H124935   6.383   1.062   6.025
 8231WAT     H224936   6.224   1.073   5.988
 8232WAT      O24937   9.038   5.961   3.264
 8232WAT     H124938   9.051   5.942   3.361
 8232WAT     H224939   9.058   6.058   3.246
 8233WAT      O24940   7.061   7.757   0.695
 8233WAT     H124941   7.138   7.817   0.673
 8233WAT     H224942   6.976   7.811   0.698
 8234WAT      O24943   8.293   2.126   9.149
 8234WAT     H124944   8.320   2.220   9.172
 8234WAT     H224945   8.309   2.110   9.052
 8235WAT      O24946   8.697   5.656   1.318
 8235WAT     H124947   8.748   5.730   1.362
 8235WAT     H224948   8.603   5.686   1.302
 8236WAT      O24949   7.678   5.363   5.538
 8236WAT     H124950   7.597   5.404   5.579
 8236WAT     H224951   7.758   5.421   5.556
 8237WAT      O24952   0.876   9.513   6.767
 8237WAT     H124953   0.949   9.468   6.715
 8237WAT     H224954   0.791   9.509   6.715
 8238WAT      O24955   8.626   7.632   9.324
 8238WAT     H124956   8.681   7.629   9.240
 8238WAT     H224957   8.529   7.640   9.300
 8239WAT      O24958   3.159   6.929   2.348
 8239WAT     H124959   3.136   6.950   2.443
 8239WAT     H224960   3.139   7.008   2.291
 8240WAT      O24961   9.890   5.901   6.101
 8240WAT     H124962   9.915   5.864   6.190
 8240WAT     H224963   9.792   5.919   6.099
 8241WAT      O24964   2.500   3.486   5.562
 8241WAT     H124965   2.597   3.461   5.562
 8241WAT     H224966   2.445   3.406   5.539
 8242WAT      O24967   1.084   5.208   8.194
 8242WAT     H124968   1.110   5.145   8.268
 8242WAT     H224969   1.140   5.187   8.113
 8243WAT      O24970   6.361   7.303   4.293
 8243WAT     H124971   6.310   7.284   4.377
 8243WAT     H224972   6.307   7.364   4.235
 8244WAT      O24973   1.964   8.911   2.955
 8244WAT     H124974   1.989   8.850   3.029
 8244WAT     H224975   1.936   9.000   2.992
 8245WAT      O24976   4.213   1.509   1.602
 8245WAT     H124977   4.304   1.488   1.640
 8245WAT     H224978   4.180   1.595   1.639
 8246WAT      O24979   2.402   6.483   6.755
 8246WAT     H124980   2.318   6.537   6.758
 8246WAT     H224981   2.479   6.540   6.784
 8247WAT      O24982   6.110   4.012   7.275
 8247WAT     H124983   6.157   4.024   7.363
 8247WAT     H224984   6.085   3.916   7.263
 8248WAT      O24985   8.107   8.349   4.222
 8248WAT     H124986   8.138   8.334   4.128
 8248WAT     H224987   8.094   8.261   4.267
 8249WAT      O24988   4.249   9.685   5.379
 8249WAT     H124989   4.311   9.654   5.308
 8249WAT     H224990   4.294   9.679   5.468
 8250WAT      O24991   3.680   2.044   9.008
 8250WAT     H124992   3.776   2.069   9.022
 8250WAT     H224993   3.625   2.127   8.999
 8251WAT      O24994   5.641   8.336   4.368
 8251WAT     H124995   5.619   8.250   4.413
 8251WAT     H224996   5.734   8.332   4.331
 8252WAT      O24997   1.580   5.596   5.176
 8252WAT     H124998   1.588   5.673   5.114
 8252WAT     H224999   1.576   5.511   5.123
 8253WAT      O25000   1.047   5.201   5.196
 8253WAT     H125001   1.104   5.125   5.163
 8253WAT     H225002   1.031   5.190   5.294
 8254WAT      O25003   7.313   2.164   1.272
 8254WAT     H125004   7.255   2.210   1.339
 8254WAT     H225005   7.380   2.108   1.320
 8255WAT      O25006   3.637   1.539   9.152
 8255WAT     H125007   3.568   1.536   9.224
 8255WAT     H225008   3.689   1.624   9.159
 8256WAT      O25009   5.917   7.478   4.405
 8256WAT     H125010   5.998   7.486   4.463
 8256WAT     H225011   5.942   7.495   4.310
 8257WAT      O25012   7.270   5.589   3.564
 8257WAT     H125013   7.305   5.677   3.596
 8257WAT     H225014   7.344   5.539   3.519
 8258WAT      O25015   7.790   7.860   4.045
 8258WAT     H125016   7.692   7.858   4.065
 8258WAT     H225017   7.841   7.834   4.127
 8259WAT      O25018   1.144   0.173   6.862
 8259WAT     H125019   1.088   0.134   6.789
 8259WAT     H225020   1.130   0.272   6.865
 8260WAT      O25021   8.009   8.375   1.370
 8260WAT     H125022   8.026   8.428   1.287
 8260WAT     H225023   8.096   8.355   1.415
 8261WAT      O25024   2.337   1.602   6.393
 8261WAT     H125025   2.256   1.546   6.406
 8261WAT     H225026   2.419   1.544   6.402
 8262WAT      O25027   9.813   3.349   8.821
 8262WAT     H125028   9.823   3.394   8.910
 8262WAT     H225029   9.815   3.250   8.833
 8263WAT      O25030   4.663   6.287   1.289
 8263WAT     H125031   4.677   6.383   1.265
 8263WAT     H225032   4.571   6.259   1.260
 8264WAT      O25033   5.919   8.970   9.017
 8264WAT     H125034   5.841   9.017   9.058
 8264WAT     H225035   5.948   8.896   9.077
 8265WAT      O25036   9.381   7.694   3.236
 8265WAT     H125037   9.467   7.730   3.271
 8265WAT     H225038   9.397   7.645   3.151
 8266WAT      O25039   7.873   5.002   5.244
 8266WAT     H125040   7.962   5.002   5.198
 8266WAT     H225041   7.887   4.991   5.342
 8267WAT      O25042   2.012   2.377   7.279
 8267WAT     H125043   1.972   2.303   7.225
 8267WAT     H225044   1.969   2.464   7.254
 8268WAT      O25045   4.600   4.232   5.312
 8268WAT     H125046   4.526   4.265   5.371
 8268WAT     H225047   4.561   4.190   5.230
 8269WAT      O25048   2.218   3.548   6.466
 8269WAT     H125049   2.277   3.472   6.437
 8269WAT     H225050   2.274   3.626   6.492
 8270WAT      O25051   8.533   6.615   7.303
 8270WAT     H125052   8.582   6.701   7.319
 8270WAT     H225053   8.593   6.538   7.323
 8271WAT      O25054   0.775   4.881   4.520
 8271WAT     H125055   0.757   4.929   4.607
 8271WAT     H225056   0.871   4.855   4.517
 8272WAT      O25057   1.963   6.712   2.404
 8272WAT     H125058   1.888   6.648   2.418
 8272WAT     H225059   1.983   6.720   2.306
 8273WAT      O25060   5.835   7.211   3.161
 8273WAT     H125061   5.824   7.280   3.232
 8273WAT     H225062   5.895   7.246   3.089
 8274WAT      O25063   9.726   6.280   0.983
 8274WAT     H125064   9.759   6.239   0.898
 8274WAT     H225065   9.794   6.344   1.018
 8275WAT      O25066   7.232   6.218   3.819
 8275WAT     H125067   7.244   6.288   3.889
 8275WAT     H225068   7.138   6.183   3.823
 8276WAT      O25069   5.310   0.300   2.074
 8276WAT     H125070   5.289   0.282   2.170
 8276WAT     H225071   5.245   0.250   2.015
 8277WAT      O25072   6.510   9.600   2.642
 8277WAT     H125073   6.547   9.623   2.552
 8277WAT     H225074   6.451   9.674   2.673
 8278WAT      O25075   7.290   7.455   8.951
 8278WAT     H125076   7.316   7.380   8.891
 8278WAT     H225077   7.308   7.431   9.046
 8279WAT      O25078   9.210   2.059   7.461
 8279WAT     H125079   9.266   1.983   7.428
 8279WAT     H225080   9.173   2.036   7.551
 8280WAT      O25081   8.327   2.482   2.855
 8280WAT     H125082   8.281   2.554   2.803
 8280WAT     H225083   8.260   2.416   2.888
 8281WAT      O25084   8.199   1.229   6.039
 8281WAT     H125085   8.193   1.130   6.027
 8281WAT     H225086   8.209   1.274   5.950
 8282WAT      O25087   7.389   1.927   9.782
 8282WAT     H125088   7.472   1.932   9.726
 8282WAT     H225089   7.398   1.854   9.849
 8283WAT      O25090   6.488   6.173   6.429
 8283WAT     H125091   6.500   6.096   6.492
 8283WAT     H225092   6.536   6.253   6.464
 8284WAT      O25093   6.371   5.607   2.225
 8284WAT     H125094   6.437   5.674   2.192
 8284WAT     H225095   6.352   5.624   2.322
 8285WAT      O25096   8.018   0.362   4.865
 8285WAT     H125097   7.974   0.335   4.779
 8285WAT     H225098   8.118   0.356   4.853
 8286WAT      O25099   0.201   4.486   4.901
 8286WAT     H125100   0.199   4.548   4.979
 8286WAT     H225101   0.238   4.533   4.821
 8287WAT      O25102   2.645   5.602   3.041
 8287WAT     H125103   2.580   5.548   3.094
 8287WAT     H225104   2.668   5.685   3.092
 8288WAT      O25105   8.675   5.312   9.683
 8288WAT     H125106   8.715   5.403   9.694
 8288WAT     H225107   8.649   5.276   9.773
 8289WAT      O25108   2.186   2.765   6.025
 8289WAT     H125109   2.165   2.724   5.936
 8289WAT     H225110   2.205   2.862   6.012
 8290WAT      O25111   6.578   2.452   1.769
 8290WAT     H125112   6.583   2.506   1.853
 8290WAT     H225113   6.489   2.405   1.765
 8291WAT      O25114   8.300   3.250   2.651
 8291WAT     H125115   8.264   3.215   2.565
 8291WAT     H225116   8.391   3.288   2.636
 8292WAT      O25117   7.624   3.415   7.529
 8292WAT     H125118   7.692   3.486   7.516
 8292WAT     H225119   7.636   3.344   7.459
 8293WAT      O25120   0.056   8.237   8.193
 8293WAT     H125121   0.114   8.159   8.172
 8293WAT     H225122   0.111   8.320   8.196
 8294WAT      O25123   6.123   2.405   9.391
 8294WAT     H125124   6.056   2.352   9.337
 8294WAT     H225125   6.130   2.497   9.353
 8295WAT      O25126   7.559   8.396   7.358
 8295WAT     H125127   7.551   8.447   7.272
 8295WAT     H225128   7.554   8.459   7.435
 8296WAT      O25129   2.715   9.064   2.435
 8296WAT     H125130   2.631   9.111   2.408
 8296WAT     H225131   2.698   9.008   2.516
 8297WAT      O25132   7.869   8.480   2.876
 8297WAT     H125133   7.819   8.564   2.852
 8297WAT     H225134   7.895   8.432   2.792
 8298WAT      O25135   4.962   1.228   8.862
 8298WAT     H125136   5.024   1.198   8.790
 8298WAT     H225137   4.990   1.189   8.949
 8299WAT      O25138   8.877   2.719   8.991
 8299WAT     H125139   8.925   2.691   8.907
 8299WAT     H225140   8.780   2.697   8.983
 8300WAT      O25141   1.759   1.886   1.495
 8300WAT     H125142   1.789   1.976   1.526
 8300WAT     H225143   1.682   1.896   1.432
 8301WAT      O25144   4.356   9.065   4.929
 8301WAT     H125145   4.387   8.976   4.896
 8301WAT     H225146   4.267   9.086   4.888
 8302WAT      O25147   5.334   9.072   6.936
 8302WAT     H125148   5.429   9.058   6.964
 8302WAT     H225149   5.330   9.104   6.842
 8303WAT      O25150   1.472   9.342   5.549
 8303WAT     H125151   1.441   9.268   5.609
 8303WAT     H225152   1.424   9.338   5.462
 8304WAT      O25153   1.473   4.135   2.085
 8304WAT     H125154   1.398   4.104   2.144
 8304WAT     H225155   1.557   4.086   2.109
 8305WAT      O25156   7.408   7.398   1.392
 8305WAT     H125157   7.331   7.428   1.335
 8305WAT     H225158   7.374   7.346   1.470
 8306WAT      O25159   8.965   6.685   0.086
 8306WAT     H125160   9.041   6.696   0.022
 8306WAT     H225161   8.880   6.712   0.041
 8307WAT      O25162   1.887   1.269   3.544
 8307WAT     H125163   1.971   1.229   3.581
 8307WAT     H225164   1.900   1.367   3.530
 8308WAT      O25165   1.198   2.487   0.772
 8308WAT     H125166   1.109   2.454   0.742
 8308WAT     H225167   1.222   2.570   0.722
 8309WAT      O25168   3.000   7.821   1.893
 8309WAT     H125169   2.932   7.748   1.895
 8309WAT     H225170   3.048   7.820   1.806
 8310WAT      O25171   8.539   3.052   4.028
 8310WAT     H125172   8.501   2.969   4.070
 8310WAT     H225173   8.625   3.075   4.071
 8311WAT      O25174   2.242   3.030   5.945
 8311WAT     H125175   2.341   3.041   5.954
 8311WAT     H225176   2.196   3.110   5.983
 8312WAT      O25177   4.358   4.562   7.762
 8312WAT     H125178   4.339   4.495   7.690
 8312WAT     H225179   4.416   4.634   7.725
 8313WAT      O25180   0.420   6.676   7.462
 8313WAT     H125181   0.457   6.710   7.549
 8313WAT     H225182   0.420   6.749   7.395
 8314WAT      O25183   8.863   6.527   0.408
 8314WAT     H125184   8.961   6.513   0.421
 8314WAT     H225185   8.820   6.551   0.496
 8315WAT      O25186   3.727   5.407   1.415
 8315WAT     H125187   3.683   5.464   1.346
 8315WAT     H225188   3.797   5.350   1.372
 8316WAT      O25189   9.806   1.974   4.647
 8316WAT     H125190   9.709   1.975   4.623
 8316WAT     H225191   9.853   2.047   4.598
 8317WAT      O25192   3.020   7.692   0.789
 8317WAT     H125193   3.023   7.751   0.708
 8317WAT     H225194   2.998   7.748   0.869
 8318WAT      O25195   2.062   0.661   7.889
 8318WAT     H125196   2.064   0.718   7.971
 8318WAT     H225197   1.967   0.644   7.863
 8319WAT      O25198   8.124   8.712   1.424
 8319WAT     H125199   8.210   8.673   1.390
 8319WAT     H225200   8.058   8.718   1.349
 8320WAT      O25201   7.883   8.868   7.381
 8320WAT     H125202   7.858   8.774   7.359
 8320WAT     H225203   7.816   8.931   7.341
 8321WAT      O25204   2.638   2.419   2.588
 8321WAT     H125205   2.600   2.377   2.671
 8321WAT     H225206   2.733   2.390   2.576
 8322WAT      O25207   1.914   2.783   0.979
 8322WAT     H125208   1.905   2.716   0.905
 8322WAT     H225209   1.978   2.749   1.047
 8323WAT      O25210   4.040   8.069   9.121
 8323WAT     H125211   4.067   8.144   9.181
 8323WAT     H225212   4.113   8.000   9.120
 8324WAT      O25213   0.299   6.668   2.494
 8324WAT     H125214   0.329   6.604   2.564
 8324WAT     H225215   0.217   6.633   2.450
 8325WAT      O25216   0.263   9.310   5.654
 8325WAT     H125217   0.247   9.305   5.555
 8325WAT     H225218   0.332   9.380   5.673
 8326WAT      O25219   2.042   7.169   5.056
 8326WAT     H125220   2.049   7.081   5.102
 8326WAT     H225221   2.010   7.155   4.962
 8327WAT      O25222   1.573   4.602   0.933
 8327WAT     H125223   1.526   4.514   0.938
 8327WAT     H225224   1.531   4.666   0.996
 8328WAT      O25225   5.216   7.969   8.582
 8328WAT     H125226   5.298   7.924   8.547
 8328WAT     H225227   5.220   8.067   8.560
 8329WAT      O25228   7.798   4.800   6.707
 8329WAT     H125229   7.841   4.890   6.695
 8329WAT     H225230   7.699   4.811   6.715
 8330WAT      O25231   4.889   8.936   3.790
 8330WAT     H125232   4.971   8.958   3.843
 8330WAT     H225233   4.911   8.867   3.720
 8331WAT      O25234   9.490   5.905   4.130
 8331WAT     H125235   9.521   5.963   4.205
 8331WAT     H225236   9.390   5.910   4.123
 8332WAT      O25237   5.520   7.296   2.569
 8332WAT     H125238   5.526   7.310   2.668
 8332WAT     H225239   5.438   7.243   2.547
 8333WAT      O25240   2.072   4.990   8.279
 8333WAT     H125241   2.149   4.983   8.215
 8333WAT     H225242   2.094   5.058   8.349
 8334WAT      O25243   6.779   4.027   9.636
 8334WAT     H125244   6.877   4.023   9.618
 8334WAT     H225245   6.731   4.053   9.552
 8335WAT      O25246   3.518   6.434   3.280
 8335WAT     H125247   3.479   6.397   3.196
 8335WAT     H225248   3.495   6.531   3.288
 8336WAT      O25249   5.746   0.543   9.298
 8336WAT     H125250   5.788   0.630   9.326
 8336WAT     H225251   5.781   0.470   9.356
 8337WAT      O25252   2.881   3.431   7.693
 8337WAT     H125253   2.834   3.460   7.777
 8337WAT     H225254   2.815   3.426   7.618
 8338WAT      O25255   5.743   5.072   6.748
 8338WAT     H125256   5.835   5.103   6.773
 8338WAT     H225257   5.676   5.141   6.774
 8339WAT      O25258   2.907   5.202   1.817
 8339WAT     H125259   2.895   5.186   1.915
 8339WAT     H225260   3.002   5.185   1.792
 8340WAT      O25261   7.831   0.547   4.342
 8340WAT     H125262   7.876   0.606   4.410
 8340WAT     H225263   7.842   0.452   4.370
 8341WAT      O25264   2.247   4.863   1.562
 8341WAT     H125265   2.156   4.830   1.536
 8341WAT     H225266   2.313   4.788   1.554
 8342WAT      O25267   3.276   4.342   2.098
 8342WAT     H125268   3.229   4.406   2.159
 8342WAT     H225269   3.271   4.375   2.004
 8343WAT      O25270   4.155   4.603   4.407
 8343WAT     H125271   4.145   4.645   4.497
 8343WAT     H225272   4.251   4.585   4.389
 8344WAT      O25273   7.204   6.447   3.156
 8344WAT     H125274   7.184   6.480   3.063
 8344WAT     H225275   7.131   6.386   3.186
 8345WAT      O25276   4.861   7.457   7.161
 8345WAT     H125277   4.888   7.480   7.067
 8345WAT     H225278   4.775   7.407   7.160
 8346WAT      O25279   8.759   3.990   1.527
 8346WAT     H125280   8.812   3.933   1.464
 8346WAT     H225281   8.769   4.086   1.501
 8347WAT      O25282   5.305   5.168   7.918
 8347WAT     H125283   5.370   5.154   7.992
 8347WAT     H225284   5.354   5.193   7.834
 8348WAT      O25285   9.076   0.456   6.969
 8348WAT     H125286   9.144   0.507   7.021
 8348WAT     H225287   9.112   0.436   6.878
 8349WAT      O25288   6.201   6.061   9.234
 8349WAT     H125289   6.130   6.007   9.188
 8349WAT     H225290   6.290   6.022   9.214
 8350WAT      O25291   0.268   4.028   6.648
 8350WAT     H125292   0.236   3.977   6.567
 8350WAT     H225293   0.211   4.006   6.726
 8351WAT      O25294   7.963   6.902   0.585
 8351WAT     H125295   7.915   6.818   0.611
 8351WAT     H225296   8.032   6.924   0.654
 8352WAT      O25297   3.254   1.257   8.260
 8352WAT     H125298   3.335   1.261   8.202
 8352WAT     H225299   3.274   1.202   8.341
 8353WAT      O25300   0.266   6.881   7.719
 8353WAT     H125301   0.195   6.886   7.789
 8353WAT     H225302   0.334   6.812   7.745
 8354WAT      O25303   5.734   6.018   4.261
 8354WAT     H125304   5.680   6.098   4.289
 8354WAT     H225305   5.711   5.941   4.320
 8355WAT      O25306   6.803   8.917   8.207
 8355WAT     H125307   6.725   8.881   8.155
 8355WAT     H225308   6.882   8.859   8.191
 8356WAT      O25309   1.395   5.170   4.874
 8356WAT     H125310   1.386   5.087   4.930
 8356WAT     H225311   1.309   5.187   4.826
 8357WAT      O25312   3.980   9.515   5.531
 8357WAT     H125313   3.995   9.613   5.518
 8357WAT     H225314   3.903   9.486   5.474
 8358WAT      O25315   2.974   1.612   1.824
 8358WAT     H125316   3.019   1.691   1.783
 8358WAT     H225317   2.881   1.637   1.852
 8359WAT      O25318   6.779   4.369   3.682
 8359WAT     H125319   6.728   4.355   3.767
 8359WAT     H225320   6.873   4.396   3.703
 8360WAT      O25321   4.241   7.614   2.134
 8360WAT     H125322   4.203   7.700   2.168
 8360WAT     H225323   4.322   7.633   2.079
 8361WAT      O25324   4.763   0.796   0.004
 8361WAT     H125325   4.826   0.769  -0.069
 8361WAT     H225326   4.801   0.875   0.053
 8362WAT      O25327   8.283   2.865   5.527
 8362WAT     H125328   8.184   2.859   5.538
 8362WAT     H225329   8.310   2.821   5.441
 8363WAT      O25330   8.835   5.922   1.316
 8363WAT     H125331   8.896   5.911   1.238
 8363WAT     H225332   8.819   6.019   1.333
 8364WAT      O25333   3.196   3.942   4.587
 8364WAT     H125334   3.130   3.917   4.516
 8364WAT     H225335   3.234   4.032   4.566
 8365WAT      O25336   0.801   1.272   5.544
 8365WAT     H125337   0.833   1.361   5.575
 8365WAT     H225338   0.705   1.277   5.519
 8366WAT      O25339   9.253   6.947   4.894
 8366WAT     H125340   9.219   6.876   4.832
 8366WAT     H225341   9.185   6.963   4.966
 8367WAT      O25342   1.783   4.986   9.817
 8367WAT     H125343   1.737   4.910   9.772
 8367WAT     H225344   1.826   5.045   9.748
 8368WAT      O25345   1.367   2.424   2.905
 8368WAT     H125346   1.338   2.490   2.836
 8368WAT     H225347   1.317   2.441   2.990
 8369WAT      O25348   4.250   1.342   7.530
 8369WAT     H125349   4.245   1.439   7.507
 8369WAT     H225350   4.165   1.296   7.505
 8370WAT      O25351   7.905   9.620   5.994
 8370WAT     H125352   7.911   9.718   6.012
 8370WAT     H225353   7.826   9.582   6.042
 8371WAT      O25354   9.816   5.288   3.256
 8371WAT     H125355   9.822   5.200   3.303
 8371WAT     H225356   9.722   5.302   3.224
 8372WAT      O25357   8.914   8.480   3.347
 8372WAT     H125358   8.897   8.508   3.441
 8372WAT     H225359   8.888   8.553   3.284
 8373WAT      O25360   0.490   2.648   0.875
 8373WAT     H125361   0.523   2.554   0.866
 8373WAT     H225362   0.422   2.666   0.805
 8374WAT      O25363   4.193   0.051   3.536
 8374WAT     H125364   4.178   0.149   3.553
 8374WAT     H225365   4.109   0.001   3.554
 8375WAT      O25366   8.693   0.939   5.902
 8375WAT     H125367   8.752   0.871   5.944
 8375WAT     H225368   8.739   1.028   5.900
 8376WAT      O25369   9.735   1.649   8.387
 8376WAT     H125370   9.680   1.693   8.315
 8376WAT     H225371   9.831   1.650   8.360
 8377WAT      O25372   9.115   8.167   6.582
 8377WAT     H125373   9.090   8.072   6.564
 8377WAT     H225374   9.215   8.175   6.586
 8378WAT      O25375   4.025   1.711   2.880
 8378WAT     H125376   4.050   1.630   2.827
 8378WAT     H225377   4.108   1.759   2.910
 8379WAT      O25378   4.384   0.467   3.449
 8379WAT     H125379   4.457   0.408   3.414
 8379WAT     H225380   4.411   0.563   3.439
 8380WAT      O25381   9.733   5.384   6.162
 8380WAT     H125382   9.710   5.395   6.065
 8380WAT     H225383   9.674   5.315   6.203
 8381WAT      O25384   2.380   3.454   1.219
 8381WAT     H125385   2.407   3.404   1.301
 8381WAT     H225386   2.438   3.535   1.209
 8382WAT      O25387   2.796   5.865   1.352
 8382WAT     H125388   2.858   5.850   1.275
 8382WAT     H225389   2.731   5.937   1.329
 8383WAT      O25390   2.787   2.822   4.087
 8383WAT     H125391   2.827   2.751   4.146
 8383WAT     H225392   2.859   2.882   4.054
 8384WAT      O25393   3.475   9.128   8.602
 8384WAT     H125394   3.565   9.090   8.581
 8384WAT     H225395   3.409   9.098   8.532
 8385WAT      O25396   2.223   8.298   4.918
 8385WAT     H125397   2.231   8.280   4.820
 8385WAT     H225398   2.131   8.330   4.938
 8386WAT      O25399   4.077   1.631   3.332
 8386WAT     H125400   4.094   1.712   3.388
 8386WAT     H225401   4.004   1.651   3.267
 8387WAT      O25402   0.565   3.514   5.586
 8387WAT     H125403   0.484   3.558   5.623
 8387WAT     H225404   0.647   3.563   5.617
 8388WAT      O25405   6.556   8.383   6.913
 8388WAT     H125406   6.462   8.414   6.927
 8388WAT     H225407   6.555   8.294   6.867
 8389WAT      O25408   9.066   1.072   7.209
 8389WAT     H125409   9.155   1.082   7.254
 8389WAT     H225410   9.066   1.125   7.125
 8390WAT      O25411   7.551   3.387   1.029
 8390WAT     H125412   7.530   3.328   1.107
 8390WAT     H225413   7.506   3.352   0.947
 8391WAT      O25414   0.102   3.186   2.527
 8391WAT     H125415   0.127   3.283   2.522
 8391WAT     H225416   0.176   3.130   2.491
 8392WAT      O25417   4.499   0.398   5.217
 8392WAT     H125418   4.484   0.299   5.222
 8392WAT     H225419   4.596   0.417   5.232
 8393WAT      O25420   0.798   7.052   8.597
 8393WAT     H125421   0.761   7.108   8.523
 8393WAT     H225422   0.729   6.986   8.627
 8394WAT      O25423   9.452   3.579   2.111
 8394WAT     H125424   9.413   3.528   2.187
 8394WAT     H225425   9.470   3.517   2.034
 8395WAT      O25426   9.378   6.977   9.470
 8395WAT     H125427   9.382   6.908   9.543
 8395WAT     H225428   9.327   6.940   9.392
 8396WAT      O25429   3.610   0.577   7.675
 8396WAT     H125430   3.570   0.510   7.612
 8396WAT     H225431   3.685   0.625   7.629
 8397WAT      O25432   9.743   3.318   0.337
 8397WAT     H125433   9.686   3.386   0.382
 8397WAT     H225434   9.706   3.227   0.353
 8398WAT      O25435   5.550   0.839   9.312
 8398WAT     H125436   5.567   0.782   9.393
 8398WAT     H225437   5.637   0.868   9.272
 8399WAT      O25438   9.459   0.695   8.425
 8399WAT     H125439   9.489   0.631   8.495
 8399WAT     H225440   9.386   0.655   8.371
 8400WAT      O25441   4.554   1.512   5.578
 8400WAT     H125442   4.557   1.607   5.546
 8400WAT     H225443   4.548   1.450   5.500
 8401WAT      O25444   6.093   4.394   0.236
 8401WAT     H125445   6.128   4.338   0.310
 8401WAT     H225446   6.124   4.488   0.248
 8402WAT      O25447   2.945   2.388   4.779
 8402WAT     H125448   2.845   2.394   4.773
 8402WAT     H225449   2.972   2.292   4.785
 8403WAT      O25450   1.598   3.733   1.091
 8403WAT     H125451   1.508   3.706   1.124
 8403WAT     H225452   1.637   3.658   1.037
 8404WAT      O25453   9.311   6.065   6.847
 8404WAT     H125454   9.226   6.108   6.818
 8404WAT     H225455   9.308   5.968   6.823
 8405WAT      O25456   3.283   4.114   6.664
 8405WAT     H125457   3.357   4.138   6.601
 8405WAT     H225458   3.321   4.077   6.748
 8406WAT      O25459   7.330   6.932   3.767
 8406WAT     H125460   7.247   6.966   3.722
 8406WAT     H225461   7.328   6.957   3.864
 8407WAT      O25462   4.457   0.103   7.762
 8407WAT     H125463   4.442   0.118   7.860
 8407WAT     H225464   4.528   0.035   7.749
 8408WAT      O25465   0.510   7.951   0.425
 8408WAT     H125466   0.549   7.859   0.435
 8408WAT     H225467   0.580   8.013   0.390
 8409WAT      O25468   1.728   9.282   5.835
 8409WAT     H125469   1.804   9.299   5.897
 8409WAT     H225470   1.733   9.345   5.757
 8410WAT      O25471   1.988   9.029   5.036
 8410WAT     H125472   2.047   8.949   5.024
 8410WAT     H225473   2.031   9.108   4.992
 8411WAT      O25474   8.156   5.885   8.365
 8411WAT     H125475   8.122   5.798   8.328
 8411WAT     H225476   8.174   5.874   8.463
 8412WAT      O25477   5.995   5.955   7.412
 8412WAT     H125478   5.939   6.036   7.392
 8412WAT     H225479   6.091   5.974   7.392
 8413WAT      O25480   5.439   3.331   8.596
 8413WAT     H125481   5.419   3.250   8.652
 8413WAT     H225482   5.373   3.403   8.616
 8414WAT      O25483   3.691   6.032   7.598
 8414WAT     H125484   3.735   6.116   7.569
 8414WAT     H225485   3.625   6.003   7.528
 8415WAT      O25486   6.678   5.972   5.406
 8415WAT     H125487   6.712   5.918   5.483
 8415WAT     H225488   6.580   5.956   5.394
 8416WAT      O25489   5.301   7.631   9.516
 8416WAT     H125490   5.222   7.653   9.459
 8416WAT     H225491   5.368   7.580   9.461
 8417WAT      O25492   4.772   0.836   0.982
 8417WAT     H125493   4.756   0.933   0.961
 8417WAT     H225494   4.685   0.790   0.998
 8418WAT      O25495   0.303   3.962   1.169
 8418WAT     H125496   0.208   3.968   1.139
 8418WAT     H225497   0.307   3.915   1.257
 8419WAT      O25498   2.815   4.661   6.863
 8419WAT     H125499   2.871   4.584   6.896
 8419WAT     H225500   2.718   4.639   6.876
 8420WAT      O25501   6.523   9.002   8.574
 8420WAT     H125502   6.496   9.085   8.526
 8420WAT     H225503   6.451   8.933   8.564
 8421WAT      O25504   6.912   3.656   3.843
 8421WAT     H125505   7.003   3.653   3.886
 8421WAT     H225506   6.845   3.691   3.908
 8422WAT      O25507   5.956   5.396   3.344
 8422WAT     H125508   5.959   5.495   3.361
 8422WAT     H225509   5.862   5.368   3.326
 8423WAT      O25510   2.430   6.499   0.236
 8423WAT     H125511   2.414   6.463   0.328
 8423WAT     H225512   2.506   6.564   0.238
 8424WAT      O25513   6.315   0.583   7.992
 8424WAT     H125514   6.251   0.616   8.062
 8424WAT     H225515   6.354   0.661   7.943
 8425WAT      O25516   4.901   2.161   7.178
 8425WAT     H125517   4.982   2.146   7.122
 8425WAT     H225518   4.872   2.256   7.172
 8426WAT      O25519  -0.003   1.092   0.678
 8426WAT     H125520   0.065   1.045   0.735
 8426WAT     H225521  -0.007   1.189   0.704
 8427WAT      O25522   9.237   2.427   7.327
 8427WAT     H125523   9.159   2.369   7.349
 8427WAT     H225524   9.322   2.378   7.348
 8428WAT      O25525   9.692   8.408   8.112
 8428WAT     H125526   9.688   8.310   8.090
 8428WAT     H225527   9.644   8.459   8.041
 8429WAT      O25528   0.896   3.503   9.317
 8429WAT     H125529   0.895   3.603   9.319
 8429WAT     H225530   0.804   3.468   9.332
 8430WAT      O25531   0.760   8.168   6.356
 8430WAT     H125532   0.832   8.237   6.369
 8430WAT     H225533   0.728   8.137   6.445
 8431WAT      O25534   5.502   8.723   1.616
 8431WAT     H125535   5.524   8.762   1.706
 8431WAT     H225536   5.579   8.668   1.584
 8432WAT      O25537   9.729   9.804   3.302
 8432WAT     H125538   9.650   9.791   3.363
 8432WAT     H225539   9.813   9.804   3.357
 8433WAT      O25540   0.202   0.191   7.314
 8433WAT     H125541   0.133   0.165   7.381
 8433WAT     H225542   0.174   0.162   7.223
 8434WAT      O25543   7.765   2.195   2.370
 8434WAT     H125544   7.758   2.266   2.300
 8434WAT     H225545   7.771   2.238   2.460
 8435WAT      O25546   9.479   3.943   5.820
 8435WAT     H125547   9.569   3.985   5.810
 8435WAT     H225548   9.424   3.997   5.884
 8436WAT      O25549   5.146   2.142   4.458
 8436WAT     H125550   5.238   2.139   4.421
 8436WAT     H225551   5.080   2.146   4.382
 8437WAT      O25552   0.983   9.809   5.630
 8437WAT     H125553   1.059   9.766   5.581
 8437WAT     H225554   0.998   9.802   5.728
 8438WAT      O25555   2.021   2.382   4.121
 8438WAT     H125556   2.110   2.410   4.085
 8438WAT     H225557   1.981   2.314   4.060
 8439WAT      O25558   9.862   9.054   6.393
 8439WAT     H125559   9.824   9.146   6.398
 8439WAT     H225560   9.872   9.027   6.297
 8440WAT      O25561   8.803   2.079   4.242
 8440WAT     H125562   8.729   2.073   4.309
 8440WAT     H225563   8.869   2.005   4.259
 8441WAT      O25564   7.177   3.872   7.296
 8441WAT     H125565   7.169   3.791   7.238
 8441WAT     H225566   7.218   3.946   7.244
 8442WAT      O25567   1.205   5.419   8.478
 8442WAT     H125568   1.156   5.464   8.403
 8442WAT     H225569   1.150   5.345   8.515
 8443WAT      O25570   3.696   2.934   7.825
 8443WAT     H125571   3.598   2.916   7.838
 8443WAT     H225572   3.719   2.927   7.728
 8444WAT      O25573   3.478   6.084   0.446
 8444WAT     H125574   3.506   6.176   0.420
 8444WAT     H225575   3.486   6.073   0.545
 8445WAT      O25576   4.062   8.966   2.226
 8445WAT     H125577   4.010   8.914   2.294
 8445WAT     H225578   4.000   9.006   2.159
 8446WAT      O25579   7.209   3.465   1.423
 8446WAT     H125580   7.193   3.545   1.365
 8446WAT     H225581   7.275   3.488   1.494
 8447WAT      O25582   6.674   1.836   9.101
 8447WAT     H125583   6.733   1.872   9.174
 8447WAT     H225584   6.579   1.838   9.133
 8448WAT      O25585   3.003   6.706   4.065
 8448WAT     H125586   2.977   6.609   4.062
 8448WAT     H225587   3.074   6.723   3.996
 8449WAT      O25588   1.171   7.690   9.370
 8449WAT     H125589   1.138   7.621   9.305
 8449WAT     H225590   1.184   7.647   9.460
 8450WAT      O25591   8.319   2.947   4.665
 8450WAT     H125592   8.231   2.909   4.634
 8450WAT     H225593   8.374   2.972   4.586
 8451WAT      O25594   1.708   4.348   2.314
 8451WAT     H125595   1.658   4.424   2.274
 8451WAT     H225596   1.800   4.344   2.275
 8452WAT      O25597   2.171   2.976   6.824
 8452WAT     H125598   2.210   3.065   6.847
 8452WAT     H225599   2.245   2.909   6.813
 8453WAT      O25600   2.162   7.072   2.554
 8453WAT     H125601   2.199   6.995   2.607
 8453WAT     H225602   2.189   7.062   2.458
 8454WAT      O25603   2.017   5.221   3.252
 8454WAT     H125604   2.092   5.270   3.296
 8454WAT     H225605   2.031   5.122   3.262
 8455WAT      O25606   1.774   2.846   7.840
 8455WAT     H125607   1.701   2.868   7.905
 8455WAT     H225608   1.830   2.772   7.878
 8456WAT      O25609   6.489   1.711   4.355
 8456WAT     H125610   6.516   1.759   4.272
 8456WAT     H225611   6.425   1.638   4.333
 8457WAT      O25612   2.758   2.943   7.741
 8457WAT     H125613   2.772   3.017   7.675
 8457WAT     H225614   2.715   2.866   7.694
 8458WAT      O25615   5.195   3.861   4.567
 8458WAT     H125616   5.204   3.854   4.467
 8458WAT     H225617   5.105   3.826   4.595
 8459WAT      O25618   7.252   8.553   9.695
 8459WAT     H125619   7.251   8.623   9.766
 8459WAT     H225620   7.195   8.583   9.618
 8460WAT      O25621   1.638   8.568   6.900
 8460WAT     H125622   1.723   8.543   6.853
 8460WAT     H225623   1.622   8.666   6.889
 8461WAT      O25624   9.019   8.307   2.959
 8461WAT     H125625   9.093   8.241   2.947
 8461WAT     H225626   8.932   8.258   2.967
 8462WAT      O25627   2.382   8.701   1.775
 8462WAT     H125628   2.368   8.602   1.767
 8462WAT     H225629   2.314   8.748   1.719
 8463WAT      O25630   6.921   4.876   3.468
 8463WAT     H125631   6.910   4.785   3.510
 8463WAT     H225632   6.918   4.867   3.369
 8464WAT      O25633   4.290   3.515   6.903
 8464WAT     H125634   4.237   3.471   6.830
 8464WAT     H225635   4.338   3.445   6.956
 8465WAT      O25636   9.620   0.483   4.536
 8465WAT     H125637   9.576   0.472   4.625
 8465WAT     H225638   9.640   0.392   4.498
 8466WAT      O25639   6.269   1.988   4.303
 8466WAT     H125640   6.355   2.039   4.298
 8466WAT     H225641   6.193   2.052   4.299
 8467WAT      O25642   7.581   6.829   8.127
 8467WAT     H125643   7.525   6.771   8.069
 8467WAT     H225644   7.611   6.778   8.208
 8468WAT      O25645   8.150   8.662   4.873
 8468WAT     H125646   8.230   8.695   4.822
 8468WAT     H225647   8.075   8.728   4.863
 8469WAT      O25648   4.614   9.037   0.795
 8469WAT     H125649   4.517   9.028   0.772
 8469WAT     H225650   4.645   8.956   0.844
 8470WAT      O25651   8.667   1.048   4.998
 8470WAT     H125652   8.616   0.962   4.998
 8470WAT     H225653   8.675   1.082   4.905
 8471WAT      O25654   5.370   7.665   2.387
 8471WAT     H125655   5.466   7.637   2.390
 8471WAT     H225656   5.357   7.747   2.443
 8472WAT      O25657   8.078   1.879   3.408
 8472WAT     H125658   7.999   1.819   3.418
 8472WAT     H225659   8.161   1.830   3.436
 8473WAT      O25660   8.088   1.672   2.756
 8473WAT     H125661   8.115   1.626   2.672
 8473WAT     H225662   7.988   1.675   2.762
 8474WAT      O25663   0.399   4.432   0.665
 8474WAT     H125664   0.426   4.511   0.610
 8474WAT     H225665   0.467   4.360   0.654
 8475WAT      O25666   7.013   3.928   6.991
 8475WAT     H125667   7.006   3.836   6.954
 8475WAT     H225668   7.106   3.964   6.975
 8476WAT      O25669   5.576   1.745   7.118
 8476WAT     H125670   5.498   1.683   7.112
 8476WAT     H225671   5.554   1.832   7.074
 8477WAT      O25672   7.634   7.223   8.688
 8477WAT     H125673   7.686   7.156   8.741
 8477WAT     H225674   7.657   7.214   8.591
 8478WAT      O25675   8.619   3.023   1.771
 8478WAT     H125676   8.695   3.045   1.710
 8478WAT     H225677   8.653   3.010   1.864
 8479WAT      O25678   6.181   2.213   0.669
 8479WAT     H125679   6.249   2.255   0.609
 8479WAT     H225680   6.197   2.115   0.674
 8480WAT      O25681   2.434   6.278   2.575
 8480WAT     H125682   2.494   6.242   2.646
 8480WAT     H225683   2.489   6.309   2.497
 8481WAT      O25684   3.415   2.286   3.324
 8481WAT     H125685   3.391   2.349   3.397
 8481WAT     H225686   3.416   2.192   3.359
 8482WAT      O25687   7.202   8.641   0.382
 8482WAT     H125688   7.248   8.716   0.430
 8482WAT     H225689   7.262   8.606   0.310
 8483WAT      O25690   1.549   3.590   4.882
 8483WAT     H125691   1.606   3.671   4.868
 8483WAT     H225692   1.456   3.618   4.907
 8484WAT      O25693   7.171   1.115   8.636
 8484WAT     H125694   7.248   1.093   8.696
 8484WAT     H225695   7.089   1.131   8.691
 8485WAT      O25696   3.960   0.903   4.862
 8485WAT     H125697   3.862   0.909   4.883
 8485WAT     H225698   4.006   0.985   4.897
 8486WAT      O25699   3.329   5.916   0.837
 8486WAT     H125700   3.350   5.889   0.743
 8486WAT     H225701   3.381   5.860   0.901
 8487WAT      O25702   6.654   3.482   3.936
 8487WAT     H125703   6.626   3.576   3.913
 8487WAT     H225704   6.574   3.422   3.934
 8488WAT      O25705   9.260   4.952   2.813
 8488WAT     H125706   9.335   4.918   2.757
 8488WAT     H225707   9.296   5.010   2.886
 8489WAT      O25708   1.866   6.616   2.847
 8489WAT     H125709   1.899   6.663   2.929
 8489WAT     H225710   1.859   6.682   2.772
 8490WAT      O25711   8.369   1.316   7.469
 8490WAT     H125712   8.327   1.237   7.425
 8490WAT     H225713   8.300   1.366   7.521
 8491WAT      O25714   8.726   4.711   4.471
 8491WAT     H125715   8.664   4.790   4.477
 8491WAT     H225716   8.804   4.735   4.414
 8492WAT      O25717   3.552   6.578   8.268
 8492WAT     H125718   3.528   6.624   8.354
 8492WAT     H225719   3.649   6.552   8.270
 8493WAT      O25720   0.391   2.268   7.510
 8493WAT     H125721   0.336   2.235   7.587
 8493WAT     H225722   0.363   2.221   7.427
 8494WAT      O25723   6.521   4.154   5.793
 8494WAT     H125724   6.593   4.221   5.776
 8494WAT     H225725   6.497   4.109   5.707
 8495WAT      O25726   9.742   8.554   2.462
 8495WAT     H125727   9.738   8.649   2.430
 8495WAT     H225728   9.836   8.530   2.487
 8496WAT      O25729   2.684   5.261   2.395
 8496WAT     H125730   2.781   5.246   2.377
 8496WAT     H225731   2.675   5.329   2.468
 8497WAT      O25732   1.376   1.888   8.666
 8497WAT     H125733   1.304   1.911   8.732
 8497WAT     H225734   1.373   1.790   8.645
 8498WAT      O25735   7.294   6.785   8.529
 8498WAT     H125736   7.235   6.839   8.469
 8498WAT     H225737   7.352   6.725   8.474
 8499WAT      O25738   5.994   6.161   3.312
 8499WAT     H125739   5.913   6.175   3.368
 8499WAT     H225740   5.994   6.069   3.274
 8500WAT      O25741   6.524   4.509   9.745
 8500WAT     H125742   6.432   4.548   9.757
 8500WAT     H225743   6.585   4.547   9.814
 8501WAT      O25744   6.739   4.020   4.824
 8501WAT     H125745   6.715   4.018   4.921
 8501WAT     H225746   6.717   4.110   4.786
 8502WAT      O25747   7.934   8.936   5.391
 8502WAT     H125748   7.976   8.871   5.454
 8502WAT     H225749   7.855   8.979   5.436
 8503WAT      O25750   1.266   2.398   5.078
 8503WAT     H125751   1.190   2.361   5.025
 8503WAT     H225752   1.279   2.342   5.160
 8504WAT      O25753   5.690   6.888   2.905
 8504WAT     H125754   5.635   6.967   2.932
 8504WAT     H225755   5.632   6.806   2.902
 8505WAT      O25756   0.876   9.383   4.744
 8505WAT     H125757   0.792   9.436   4.758
 8505WAT     H225758   0.955   9.434   4.778
 8506WAT      O25759   2.725   9.415   9.434
 8506WAT     H125760   2.813   9.377   9.405
 8506WAT     H225761   2.712   9.398   9.532
 8507WAT      O25762   0.893   8.518   6.077
 8507WAT     H125763   0.979   8.569   6.077
 8507WAT     H225764   0.908   8.426   6.041
 8508WAT      O25765   0.617   6.735   6.977
 8508WAT     H125766   0.669   6.777   6.902
 8508WAT     H225767   0.607   6.637   6.960
 8509WAT      O25768   8.079   8.247   5.937
 8509WAT     H125769   8.027   8.174   5.981
 8509WAT     H225770   8.029   8.279   5.856
 8510WAT      O25771   8.049   4.661   2.269
 8510WAT     H125772   7.963   4.610   2.267
 8510WAT     H225773   8.124   4.602   2.239
 8511WAT      O25774   7.306   3.884   0.677
 8511WAT     H125775   7.215   3.913   0.648
 8511WAT     H225776   7.332   3.934   0.760
 8512WAT      O25777   9.020   2.756   3.078
 8512WAT     H125778   9.036   2.689   3.005
 8512WAT     H225779   8.940   2.812   3.055
 8513WAT      O25780   4.067   0.990   2.868
 8513WAT     H125781   3.970   1.001   2.890
 8513WAT     H225782   4.120   0.985   2.954
 8514WAT      O25783   8.528   1.435   1.930
 8514WAT     H125784   8.598   1.410   1.864
 8514WAT     H225785   8.473   1.511   1.893
 8515WAT      O25786   2.624   1.415   2.026
 8515WAT     H125787   2.579   1.340   2.074
 8515WAT     H225788   2.583   1.426   1.935
 8516WAT      O25789   9.678   1.946   7.949
 8516WAT     H125790   9.647   2.001   7.871
 8516WAT     H225791   9.711   2.007   8.021
 8517WAT      O25792   5.092   4.555   2.388
 8517WAT     H125793   5.054   4.635   2.342
 8517WAT     H225794   5.192   4.556   2.379
 8518WAT      O25795   2.310   1.365   7.692
 8518WAT     H125796   2.238   1.409   7.639
 8518WAT     H225797   2.338   1.280   7.646
 8519WAT      O25798   3.155   9.342   9.866
 8519WAT     H125799   3.246   9.310   9.840
 8519WAT     H225800   3.101   9.264   9.899
 8520WAT      O25801   5.190   3.266   7.421
 8520WAT     H125802   5.248   3.347   7.431
 8520WAT     H225803   5.157   3.237   7.511
 8521WAT      O25804   3.889   5.394   9.250
 8521WAT     H125805   3.917   5.303   9.219
 8521WAT     H225806   3.969   5.444   9.283
 8522WAT      O25807   2.841   5.314   5.102
 8522WAT     H125808   2.856   5.221   5.069
 8522WAT     H225809   2.761   5.316   5.162
 8523WAT      O25810   2.356   6.511   9.697
 8523WAT     H125811   2.325   6.483   9.788
 8523WAT     H225812   2.318   6.450   9.629
 8524WAT      O25813   6.930   7.290   1.710
 8524WAT     H125814   6.952   7.379   1.748
 8524WAT     H225815   6.990   7.271   1.632
 8525WAT      O25816   3.125   4.576   5.265
 8525WAT     H125817   3.059   4.506   5.237
 8525WAT     H225818   3.080   4.666   5.267
 8526WAT      O25819   8.445   8.871   5.939
 8526WAT     H125820   8.368   8.880   6.003
 8526WAT     H225821   8.453   8.776   5.910
 8527WAT      O25822   3.082   8.951   2.670
 8527WAT     H125823   3.175   8.950   2.707
 8527WAT     H225824   3.023   9.005   2.729
 8528WAT      O25825   0.481   2.482   4.212
 8528WAT     H125826   0.446   2.391   4.191
 8528WAT     H225827   0.580   2.477   4.229
 8529WAT      O25828   9.338   6.792   7.506
 8529WAT     H125829   9.394   6.796   7.589
 8529WAT     H225830   9.346   6.878   7.456
 8530WAT      O25831   1.994   6.571   9.261
 8530WAT     H125832   1.936   6.514   9.319
 8530WAT     H225833   1.971   6.667   9.276
 8531WAT      O25834   7.853   0.017   1.906
 8531WAT     H125835   7.791  -0.059   1.888
 8531WAT     H225836   7.931  -0.015   1.960
 8532WAT      O25837   1.584   2.264   5.235
 8532WAT     H125838   1.598   2.195   5.307
 8532WAT     H225839   1.611   2.354   5.269
 8533WAT      O25840   5.243   5.205   8.555
 8533WAT     H125841   5.301   5.130   8.584
 8533WAT     H225842   5.287   5.254   8.479
 8534WAT      O25843   5.067   0.966   3.033
 8534WAT     H125844   4.996   0.900   3.057
 8534WAT     H225845   5.154   0.937   3.072
 8535WAT      O25846   1.299   7.911   3.589
 8535WAT     H125847   1.358   7.894   3.510
 8535WAT     H225848   1.274   7.824   3.631
 8536WAT      O25849   3.627   6.059   2.291
 8536WAT     H125850   3.702   6.003   2.255
 8536WAT     H225851   3.663   6.123   2.359
 8537WAT      O25852   1.195   2.636   5.175
 8537WAT     H125853   1.249   2.713   5.140
 8537WAT     H225854   1.239   2.550   5.150
 8538WAT      O25855   8.121   8.715   0.381
 8538WAT     H125856   8.114   8.766   0.296
 8538WAT     H225857   8.104   8.776   0.458
 8539WAT      O25858   3.101   5.883   8.482
 8539WAT     H125859   3.125   5.850   8.573
 8539WAT     H225860   3.076   5.805   8.424
 8540WAT      O25861   3.306   0.806   8.689
 8540WAT     H125862   3.357   0.843   8.767
 8540WAT     H225863   3.219   0.768   8.720
 8541WAT      O25864   0.532   3.960   4.980
 8541WAT     H125865   0.478   3.931   4.901
 8541WAT     H225866   0.482   4.030   5.031
 8542WAT      O25867   5.789   7.597   0.742
 8542WAT     H125868   5.723   7.640   0.804
 8542WAT     H225869   5.740   7.554   0.666
 8543WAT      O25870   8.613   6.144   0.217
 8543WAT     H125871   8.640   6.241   0.216
 8543WAT     H225872   8.551   6.127   0.293
 8544WAT      O25873   3.618   4.767   0.633
 8544WAT     H125874   3.521   4.769   0.656
 8544WAT     H225875   3.634   4.824   0.552
 8545WAT      O25876   3.321   0.565   0.455
 8545WAT     H125877   3.237   0.606   0.489
 8545WAT     H225878   3.340   0.481   0.506
 8546WAT      O25879   8.649   2.160   1.907
 8546WAT     H125880   8.725   2.181   1.968
 8546WAT     H225881   8.684   2.122   1.822
 8547WAT      O25882   4.208   4.928   3.228
 8547WAT     H125883   4.200   5.004   3.293
 8547WAT     H225884   4.301   4.891   3.233
 8548WAT      O25885   3.487   8.355   2.077
 8548WAT     H125886   3.411   8.310   2.124
 8548WAT     H225887   3.520   8.296   2.003
 8549WAT      O25888   0.967   3.094   9.084
 8549WAT     H125889   0.941   2.998   9.076
 8549WAT     H225890   1.035   3.116   9.014
 8550WAT      O25891   4.778   9.203   8.872
 8550WAT     H125892   4.731   9.231   8.788
 8550WAT     H225893   4.711   9.193   8.946
 8551WAT      O25894   0.938   1.468   0.503
 8551WAT     H125895   0.848   1.453   0.462
 8551WAT     H225896   0.957   1.394   0.567
 8552WAT      O25897   1.465   6.684   8.360
 8552WAT     H125898   1.527   6.757   8.331
 8552WAT     H225899   1.508   6.595   8.342
 8553WAT      O25900   0.684   0.429   5.081
 8553WAT     H125901   0.713   0.405   5.174
 8553WAT     H225902   0.585   0.428   5.075
 8554WAT      O25903   0.487   6.570   4.089
 8554WAT     H125904   0.402   6.520   4.099
 8554WAT     H225905   0.564   6.507   4.097
 8555WAT      O25906   0.942   3.998   6.582
 8555WAT     H125907   0.923   3.915   6.531
 8555WAT     H225908   1.038   4.024   6.572
 8556WAT      O25909   9.134   9.511   3.641
 8556WAT     H125910   9.217   9.493   3.694
 8556WAT     H225911   9.054   9.488   3.695
 8557WAT      O25912   1.080   8.851   4.924
 8557WAT     H125913   1.169   8.896   4.913
 8557WAT     H225914   1.062   8.839   5.022
 8558WAT      O25915   1.430   9.135   2.045
 8558WAT     H125916   1.488   9.069   2.092
 8558WAT     H225917   1.362   9.171   2.108
 8559WAT      O25918   0.035   0.006   2.367
 8559WAT     H125919   0.068   0.063   2.292
 8559WAT     H225920   0.047   0.054   2.454
 8560WAT      O25921   8.557   8.990   2.149
 8560WAT     H125922   8.523   8.920   2.087
 8560WAT     H225923   8.534   8.966   2.243
 8561WAT      O25924   7.741   0.570   3.091
 8561WAT     H125925   7.665   0.594   3.031
 8561WAT     H225926   7.821   0.624   3.065
 8562WAT      O25927   7.374   0.264   8.353
 8562WAT     H125928   7.303   0.194   8.342
 8562WAT     H225929   7.401   0.269   8.449
 8563WAT      O25930   2.547   9.599   2.898
 8563WAT     H125931   2.621   9.653   2.937
 8563WAT     H225932   2.495   9.555   2.972
 8564WAT      O25933   3.468   1.625   4.571
 8564WAT     H125934   3.522   1.579   4.641
 8564WAT     H225935   3.524   1.639   4.490
 8565WAT      O25936   2.047   3.221   1.235
 8565WAT     H125937   2.120   3.154   1.246
 8565WAT     H225938   1.966   3.190   1.285
 8566WAT      O25939   5.187   9.319   8.191
 8566WAT     H125940   5.152   9.407   8.221
 8566WAT     H225941   5.168   9.307   8.093
 8567WAT      O25942   4.808   0.425   6.291
 8567WAT     H125943   4.838   0.519   6.307
 8567WAT     H225944   4.865   0.384   6.219
 8568WAT      O25945   7.435   5.455   9.139
 8568WAT     H125946   7.429   5.393   9.216
 8568WAT     H225947   7.522   5.440   9.091
 8569WAT      O25948   1.726   9.450   7.404
 8569WAT     H125949   1.667   9.519   7.448
 8569WAT     H225950   1.766   9.392   7.474
 8570WAT      O25951   5.080   2.649   0.089
 8570WAT     H125952   5.084   2.748   0.077
 8570WAT     H225953   5.053   2.606   0.002
 8571WAT      O25954   9.432   4.734   0.687
 8571WAT     H125955   9.463   4.749   0.593
 8571WAT     H225956   9.334   4.714   0.688
 8572WAT      O25957   3.138   2.728   2.350
 8572WAT     H125958   3.151   2.725   2.449
 8572WAT     H225959   3.089   2.646   2.320
 8573WAT      O25960   7.447   3.199   3.250
 8573WAT     H125961   7.482   3.219   3.342
 8573WAT     H225962   7.360   3.149   3.258
 8574WAT      O25963   9.272   0.762   8.639
 8574WAT     H125964   9.329   0.743   8.560
 8574WAT     H225965   9.274   0.860   8.659
 8575WAT      O25966   9.349   3.683   9.701
 8575WAT     H125967   9.271   3.736   9.735
 8575WAT     H225968   9.404   3.652   9.777
 8576WAT      O25969   0.716   6.010   4.728
 8576WAT     H125970   0.803   6.016   4.679
 8576WAT     H225971   0.676   6.102   4.735
 8577WAT      O25972   2.326   8.270   2.340
 8577WAT     H125973   2.364   8.209   2.410
 8577WAT     H225974   2.308   8.218   2.257
 8578WAT      O25975   6.162   0.310   6.505
 8578WAT     H125976   6.258   0.298   6.481
 8578WAT     H225977   6.125   0.223   6.538
 8579WAT      O25978   2.310   1.166   4.543
 8579WAT     H125979   2.272   1.254   4.571
 8579WAT     H225980   2.237   1.104   4.516
 8580WAT      O25981   0.858   2.677   2.109
 8580WAT     H125982   0.876   2.579   2.095
 8580WAT     H225983   0.787   2.688   2.178
 8581WAT      O25984   2.028   5.227   7.125
 8581WAT     H125985   2.085   5.156   7.084
 8581WAT     H225986   1.947   5.241   7.069
 8582WAT      O25987   2.617   7.319   8.543
 8582WAT     H125988   2.610   7.281   8.635
 8582WAT     H225989   2.563   7.264   8.480
 8583WAT      O25990   5.638   5.160   1.044
 8583WAT     H125991   5.539   5.154   1.058
 8583WAT     H225992   5.683   5.176   1.132
 8584WAT      O25993   9.592   5.052   4.852
 8584WAT     H125994   9.572   5.107   4.933
 8584WAT     H225995   9.632   5.111   4.781
 8585WAT      O25996   0.919   5.886   4.045
 8585WAT     H125997   0.836   5.921   4.002
 8585WAT     H225998   0.987   5.864   3.975
 8586WAT      O25999   6.767   9.558   4.376
 8586WAT     H126000   6.852   9.515   4.407
 8586WAT     H226001   6.689   9.511   4.416
 8587WAT      O26002   1.839   0.335   4.633
 8587WAT     H126003   1.798   0.243   4.637
 8587WAT     H226004   1.784   0.393   4.573
 8588WAT      O26005   6.207   8.378   3.138
 8588WAT     H126006   6.192   8.365   3.236
 8588WAT     H226007   6.167   8.465   3.110
 8589WAT      O26008   7.417   1.642   0.732
 8589WAT     H126009   7.362   1.618   0.812
 8589WAT     H226010   7.439   1.740   0.735
 8590WAT      O26011   4.863   8.606   7.084
 8590WAT     H126012   4.827   8.685   7.034
 8590WAT     H226013   4.955   8.626   7.118
 8591WAT      O26014   3.556   6.352   0.284
 8591WAT     H126015   3.603   6.439   0.301
 8591WAT     H226016   3.501   6.359   0.201
 8592WAT      O26017   4.896   9.428   3.581
 8592WAT     H126018   4.977   9.412   3.525
 8592WAT     H226019   4.817   9.446   3.523
 8593WAT      O26020   9.003   0.297   2.210
 8593WAT     H126021   8.951   0.328   2.130
 8593WAT     H226022   9.092   0.262   2.180
 8594WAT      O26023   5.300   1.831   6.461
 8594WAT     H126024   5.206   1.857   6.443
 8594WAT     H226025   5.336   1.886   6.536
 8595WAT      O26026   1.057   8.964   8.236
 8595WAT     H126027   0.964   8.957   8.201
 8595WAT     H226028   1.056   8.952   8.335
 8596WAT      O26029   1.943   3.498   9.673
 8596WAT     H126030   1.981   3.445   9.750
 8596WAT     H226031   2.015   3.556   9.635
 8597WAT      O26032   9.256   6.523   5.947
 8597WAT     H126033   9.165   6.562   5.937
 8597WAT     H226034   9.278   6.514   6.044
 8598WAT      O26035   9.819   2.034   6.734
 8598WAT     H126036   9.889   1.963   6.746
 8598WAT     H226037   9.813   2.089   6.817
 8599WAT      O26038   0.743   4.854   1.094
 8599WAT     H126039   0.839   4.831   1.076
 8599WAT     H226040   0.684   4.794   1.041
 8600WAT      O26041   1.442   2.433   3.803
 8600WAT     H126042   1.354   2.441   3.757
 8600WAT     H226043   1.514   2.468   3.744
 8601WAT      O26044   0.372   1.150   0.155
 8601WAT     H126045   0.367   1.206   0.073
 8601WAT     H226046   0.463   1.158   0.196
 8602WAT      O26047   6.283   8.051   5.678
 8602WAT     H126048   6.292   7.959   5.717
 8602WAT     H226049   6.188   8.081   5.686
 8603WAT      O26050   3.648   1.914   3.633
 8603WAT     H126051   3.641   2.012   3.618
 8603WAT     H226052   3.636   1.865   3.547
 8604WAT      O26053   7.528   3.610   8.372
 8604WAT     H126054   7.512   3.654   8.284
 8604WAT     H226055   7.594   3.535   8.361
 8605WAT      O26056   0.913   9.233   1.664
 8605WAT     H126057   0.867   9.212   1.578
 8605WAT     H226058   0.846   9.258   1.734
 8606WAT      O26059   2.142   8.352   1.690
 8606WAT     H126060   2.231   8.384   1.721
 8606WAT     H226061   2.153   8.267   1.639
 8607WAT      O26062   0.608   3.184   8.303
 8607WAT     H126063   0.698   3.159   8.268
 8607WAT     H226064   0.537   3.155   8.239
 8608WAT      O26065   3.127   1.397   1.377
 8608WAT     H126066   3.135   1.325   1.446
 8608WAT     H226067   3.121   1.356   1.286
 8609WAT      O26068   6.189   7.147   9.623
 8609WAT     H126069   6.282   7.164   9.591
 8609WAT     H226070   6.150   7.070   9.572
 8610WAT      O26071   7.464   8.900   6.389
 8610WAT     H126072   7.527   8.958   6.440
 8610WAT     H226073   7.482   8.804   6.411
 8611WAT      O26074   3.893   6.394   1.916
 8611WAT     H126075   3.935   6.307   1.890
 8611WAT     H226076   3.817   6.377   1.979
 8612WAT      O26077   8.655   2.734   3.157
 8612WAT     H126078   8.627   2.746   3.061
 8612WAT     H226079   8.687   2.640   3.171
 8613WAT      O26080   3.478   2.445   1.225
 8613WAT     H126081   3.447   2.517   1.287
 8613WAT     H226082   3.567   2.471   1.187
 8614WAT      O26083   7.003   5.839   3.791
 8614WAT     H126084   6.939   5.772   3.752
 8614WAT     H226085   7.036   5.899   3.718
 8615WAT      O26086   6.886   3.985   2.804
 8615WAT     H126087   6.952   3.966   2.877
 8615WAT     H226088   6.908   3.929   2.724
 8616WAT      O26089   5.374   3.895   2.517
 8616WAT     H126090   5.337   3.810   2.553
 8616WAT     H226091   5.473   3.885   2.501
 8617WAT      O26092   3.102   6.769   2.835
 8617WAT     H126093   3.026   6.713   2.802
 8617WAT     H226094   3.105   6.854   2.782
 8618WAT      O26095   8.539   2.720   4.519
 8618WAT     H126096   8.499   2.801   4.476
 8618WAT     H226097   8.466   2.657   4.546
 8619WAT      O26098   1.950   4.087   5.316
 8619WAT     H126099   1.855   4.117   5.322
 8619WAT     H226100   1.955   3.998   5.270
 8620WAT      O26101   0.024   6.210   3.817
 8620WAT     H126102   0.058   6.166   3.900
 8620WAT     H226103   0.018   6.309   3.832
 8621WAT      O26104   1.124   2.282   6.967
 8621WAT     H126105   1.085   2.338   6.894
 8621WAT     H226106   1.201   2.331   7.009
 8622WAT      O26107   1.527   0.417   7.207
 8622WAT     H126108   1.434   0.454   7.206
 8622WAT     H226109   1.593   0.492   7.197
 8623WAT      O26110   0.245   4.947   3.664
 8623WAT     H126111   0.243   4.848   3.653
 8623WAT     H226112   0.177   4.990   3.604
 8624WAT      O26113   4.777   7.778   3.514
 8624WAT     H126114   4.708   7.713   3.547
 8624WAT     H226115   4.798   7.758   3.418
 8625WAT      O26116   5.550   9.349   9.089
 8625WAT     H126117   5.563   9.376   9.184
 8625WAT     H226118   5.515   9.427   9.036
 8626WAT      O26119   2.183   0.096   6.364
 8626WAT     H126120   2.187   0.022   6.297
 8626WAT     H226121   2.268   0.148   6.361
 8627WAT      O26122   4.014   6.601   6.625
 8627WAT     H126123   4.098   6.622   6.674
 8627WAT     H226124   3.963   6.531   6.676
 8628WAT      O26125   9.336   4.463   0.273
 8628WAT     H126126   9.280   4.409   0.337
 8628WAT     H226127   9.278   4.497   0.199
 8629WAT      O26128   6.621   3.096   0.333
 8629WAT     H126129   6.685   3.065   0.262
 8629WAT     H226130   6.529   3.103   0.295
 8630WAT      O26131   8.758   5.504   5.359
 8630WAT     H126132   8.734   5.467   5.270
 8630WAT     H226133   8.856   5.523   5.362
 8631WAT      O26134   3.271   8.977   6.131
 8631WAT     H126135   3.301   8.941   6.219
 8631WAT     H226136   3.251   8.901   6.069
 8632WAT      O26137   3.022   0.152   7.886
 8632WAT     H126138   2.941   0.206   7.864
 8632WAT     H226139   2.997   0.055   7.889
 8633WAT      O26140   6.463   0.851   5.722
 8633WAT     H126141   6.427   0.797   5.647
 8633WAT     H226142   6.389   0.897   5.770
 8634WAT      O26143   6.757   6.472   3.033
 8634WAT     H126144   6.805   6.434   2.954
 8634WAT     H226145   6.773   6.571   3.038
 8635WAT      O26146   3.836   7.247   3.582
 8635WAT     H126147   3.867   7.339   3.606
 8635WAT     H226148   3.885   7.215   3.501
 8636WAT      O26149   6.950   7.177   4.820
 8636WAT     H126150   6.873   7.137   4.869
 8636WAT     H226151   7.023   7.199   4.884
 8637WAT      O26152   2.362   0.200   0.901
 8637WAT     H126153   2.308   0.117   0.918
 8637WAT     H226154   2.400   0.196   0.809
 8638WAT      O26155   1.435   0.322   7.449
 8638WAT     H126156   1.343   0.313   7.410
 8638WAT     H226157   1.501   0.340   7.376
 8639WAT      O26158   7.275   4.351   8.063
 8639WAT     H126159   7.374   4.362   8.059
 8639WAT     H226160   7.249   4.313   8.152
 8640WAT      O26161   7.702   3.065   1.091
 8640WAT     H126162   7.731   3.146   1.040
 8640WAT     H226163   7.753   3.060   1.177
 8641WAT      O26164   0.833   0.731   6.069
 8641WAT     H126165   0.910   0.791   6.091
 8641WAT     H226166   0.776   0.773   5.999
 8642WAT      O26167   7.920   8.802   7.750
 8642WAT     H126168   7.913   8.703   7.738
 8642WAT     H226169   7.901   8.826   7.845
 8643WAT      O26170   8.186   3.894   3.540
 8643WAT     H126171   8.282   3.876   3.521
 8643WAT     H226172   8.162   3.858   3.630
 8644WAT      O26173   6.672   4.653   4.282
 8644WAT     H126174   6.707   4.625   4.192
 8644WAT     H226175   6.621   4.739   4.272
 8645WAT      O26176   6.247   0.864   5.413
 8645WAT     H126177   6.334   0.822   5.436
 8645WAT     H226178   6.189   0.868   5.494
 8646WAT      O26179   0.852   8.941   0.766
 8646WAT     H126180   0.923   8.883   0.806
 8646WAT     H226181   0.881   8.973   0.676
 8647WAT      O26182   3.268   9.693   0.380
 8647WAT     H126183   3.226   9.603   0.373
 8647WAT     H226184   3.273   9.735   0.290
 8648WAT      O26185   0.909   2.588   9.776
 8648WAT     H126186   0.902   2.637   9.863
 8648WAT     H226187   0.991   2.530   9.778
 8649WAT      O26188   5.073   6.293   0.109
 8649WAT     H126189   5.069   6.285   0.009
 8649WAT     H226190   5.131   6.370   0.134
 8650WAT      O26191   2.145   2.831   4.057
 8650WAT     H126192   2.149   2.750   3.997
 8650WAT     H226193   2.050   2.851   4.079
 8651WAT      O26194   1.758   7.782   2.205
 8651WAT     H126195   1.685   7.802   2.140
 8651WAT     H226196   1.732   7.814   2.296
 8652WAT      O26197   0.331   4.675   7.741
 8652WAT     H126198   0.319   4.621   7.824
 8652WAT     H226199   0.377   4.620   7.672
 8653WAT      O26200   4.403   5.342   2.794
 8653WAT     H126201   4.480   5.386   2.840
 8653WAT     H226202   4.431   5.251   2.763
 8654WAT      O26203   5.437   1.088   3.589
 8654WAT     H126204   5.413   1.002   3.546
 8654WAT     H226205   5.485   1.147   3.524
 8655WAT      O26206   7.191   0.183   7.546
 8655WAT     H126207   7.148   0.169   7.636
 8655WAT     H226208   7.121   0.175   7.475
 8656WAT      O26209   1.294   3.695   9.749
 8656WAT     H126210   1.391   3.683   9.770
 8656WAT     H226211   1.278   3.674   9.652
 8657WAT      O26212   2.877   7.421   0.741
 8657WAT     H126213   2.907   7.511   0.773
 8657WAT     H226214   2.881   7.418   0.641
 8658WAT      O26215   8.873   6.506   5.607
 8658WAT     H126216   8.851   6.493   5.703
 8658WAT     H226217   8.864   6.603   5.583
 8659WAT      O26218   0.183   0.753   4.789
 8659WAT     H126219   0.220   0.784   4.702
 8659WAT     H226220   0.086   0.733   4.778
 8660WAT      O26221   7.882   1.858   6.257
 8660WAT     H126222   7.850   1.940   6.210
 8660WAT     H226223   7.806   1.794   6.266
 8661WAT      O26224   9.812   9.432   7.815
 8661WAT     H126225   9.739   9.481   7.862
 8661WAT     H226226   9.832   9.347   7.865
 8662WAT      O26227   7.080   6.975   5.804
 8662WAT     H126228   7.066   6.889   5.853
 8662WAT     H226229   7.177   6.984   5.781
 8663WAT      O26230   5.130   2.880   8.960
 8663WAT     H126231   5.126   2.793   8.910
 8663WAT     H226232   5.047   2.891   9.014
 8664WAT      O26233   6.227   9.778   3.267
 8664WAT     H126234   6.271   9.737   3.347
 8664WAT     H226235   6.191   9.868   3.292
 8665WAT      O26236   7.740   0.241   5.951
 8665WAT     H126237   7.715   0.242   5.854
 8665WAT     H226238   7.732   0.333   5.989
 8666WAT      O26239   4.599   3.225   6.305
 8666WAT     H126240   4.542   3.266   6.376
 8666WAT     H226241   4.586   3.275   6.219
 8667WAT      O26242   0.192   0.274   5.968
 8667WAT     H126243   0.131   0.345   5.933
 8667WAT     H226244   0.255   0.246   5.895
 8668WAT      O26245   5.979   1.032   1.375
 8668WAT     H126246   5.880   1.027   1.388
 8668WAT     H226247   6.018   1.096   1.440
 8669WAT      O26248   6.824   1.407   5.007
 8669WAT     H126249   6.917   1.423   5.041
 8669WAT     H226250   6.776   1.495   4.997
 8670WAT      O26251   7.601   5.984   6.521
 8670WAT     H126252   7.502   5.985   6.538
 8670WAT     H226253   7.645   5.920   6.583
 8671WAT      O26254   4.248   3.579   7.686
 8671WAT     H126255   4.208   3.520   7.757
 8671WAT     H226256   4.248   3.530   7.599
 8672WAT      O26257   4.565   7.352   8.599
 8672WAT     H126258   4.619   7.291   8.658
 8672WAT     H226259   4.608   7.442   8.596
 8673WAT      O26260   1.843   1.342   0.024
 8673WAT     H126261   1.810   1.427  -0.017
 8673WAT     H226262   1.943   1.343   0.026
 8674WAT      O26263   8.658   3.628   4.797
 8674WAT     H126264   8.668   3.563   4.873
 8674WAT     H226265   8.673   3.721   4.830
 8675WAT      O26266   1.175   3.185   1.068
 8675WAT     H126267   1.246   3.116   1.052
 8675WAT     H226268   1.217   3.276   1.066
 8676WAT      O26269   2.482   1.037   7.371
 8676WAT     H126270   2.575   1.023   7.405
 8676WAT     H226271   2.460   0.966   7.304
 8677WAT      O26272   7.280   8.052   2.822
 8677WAT     H126273   7.308   7.972   2.876
 8677WAT     H226274   7.181   8.065   2.832
 8678WAT      O26275   2.535   6.327   8.618
 8678WAT     H126276   2.618   6.383   8.617
 8678WAT     H226277   2.560   6.230   8.621
 8679WAT      O26278   3.661   1.862   0.559
 8679WAT     H126279   3.663   1.826   0.466
 8679WAT     H226280   3.742   1.918   0.575
 8680WAT      O26281   8.841   5.324   7.378
 8680WAT     H126282   8.817   5.320   7.281
 8680WAT     H226283   8.903   5.249   7.401
 8681WAT      O26284   6.402   9.322   7.765
 8681WAT     H126285   6.483   9.307   7.708
 8681WAT     H226286   6.338   9.381   7.716
 8682WAT      O26287   3.464   3.314   6.094
 8682WAT     H126288   3.379   3.346   6.137
 8682WAT     H226289   3.462   3.214   6.087
 8683WAT      O26290   5.869   1.086   0.430
 8683WAT     H126291   5.954   1.115   0.384
 8683WAT     H226292   5.880   0.993   0.463
 8684WAT      O26293   9.437   8.619   8.519
 8684WAT     H126294   9.433   8.706   8.569
 8684WAT     H226295   9.373   8.554   8.560
 8685WAT      O26296   1.605   4.388   1.313
 8685WAT     H126297   1.648   4.378   1.223
 8685WAT     H226298   1.598   4.299   1.357
 8686WAT      O26299   5.244   5.767   4.118
 8686WAT     H126300   5.297   5.715   4.051
 8686WAT     H226301   5.304   5.799   4.191
 8687WAT      O26302   2.742   5.279   6.869
 8687WAT     H126303   2.789   5.196   6.839
 8687WAT     H226304   2.685   5.314   6.795
 8688WAT      O26305   3.626   3.010   4.578
 8688WAT     H126306   3.641   3.038   4.483
 8688WAT     H226307   3.648   3.086   4.639
 8689WAT      O26308   3.988   4.083   3.027
 8689WAT     H126309   3.921   4.009   3.019
 8689WAT     H226310   4.029   4.080   3.118
 8690WAT      O26311   1.183   6.147   0.274
 8690WAT     H126312   1.140   6.114   0.190
 8690WAT     H226313   1.129   6.117   0.353
 8691WAT      O26314   8.367   4.506   5.924
 8691WAT     H126315   8.274   4.477   5.944
 8691WAT     H226316   8.425   4.489   6.004
 8692WAT      O26317   1.448   5.469   0.933
 8692WAT     H126318   1.406   5.435   1.017
 8692WAT     H226319   1.377   5.484   0.864
 8693WAT      O26320   1.267   1.140   0.312
 8693WAT     H126321   1.286   1.222   0.366
 8693WAT     H226322   1.168   1.134   0.295
 8694WAT      O26323   2.008   0.656   1.657
 8694WAT     H126324   2.067   0.668   1.578
 8694WAT     H226325   1.914   0.638   1.627
 8695WAT      O26326   5.850   7.934   1.304
 8695WAT     H126327   5.866   7.863   1.372
 8695WAT     H226328   5.763   7.980   1.323
 8696WAT      O26329   2.886   0.144   5.470
 8696WAT     H126330   2.830   0.131   5.552
 8696WAT     H226331   2.965   0.082   5.474
 8697WAT      O26332   7.542   1.174   8.173
 8697WAT     H126333   7.555   1.185   8.272
 8697WAT     H226334   7.605   1.235   8.125
 8698WAT      O26335   9.763   6.655   9.653
 8698WAT     H126336   9.672   6.696   9.663
 8698WAT     H226337   9.832   6.728   9.657
 8699WAT      O26338   0.910   0.668   8.094
 8699WAT     H126339   0.860   0.719   8.024
 8699WAT     H226340   1.000   0.642   8.059
 8700WAT      O26341   3.625   3.085   7.334
 8700WAT     H126342   3.722   3.058   7.332
 8700WAT     H226343   3.571   3.011   7.374
 8701WAT      O26344   7.469   6.580   8.423
 8701WAT     H126345   7.450   6.491   8.381
 8701WAT     H226346   7.553   6.618   8.385
 8702WAT      O26347   5.786   8.312   6.231
 8702WAT     H126348   5.715   8.382   6.232
 8702WAT     H226349   5.853   8.333   6.160
 8703WAT      O26350   6.253   6.072   5.594
 8703WAT     H126351   6.184   6.136   5.558
 8703WAT     H226352   6.312   6.042   5.520
 8704WAT      O26353   2.658   9.694   6.857
 8704WAT     H126354   2.648   9.622   6.787
 8704WAT     H226355   2.754   9.701   6.884
 8705WAT      O26356   8.910   2.134   2.767
 8705WAT     H126357   8.890   2.040   2.795
 8705WAT     H226358   8.997   2.137   2.718
 8706WAT      O26359   5.331   1.744   7.526
 8706WAT     H126360   5.249   1.694   7.496
 8706WAT     H226361   5.413   1.695   7.495
 8707WAT      O26362   2.818   1.831   9.403
 8707WAT     H126363   2.863   1.843   9.315
 8707WAT     H226364   2.803   1.921   9.446
 8708WAT      O26365   1.547   2.804   8.825
 8708WAT     H126366   1.620   2.768   8.882
 8708WAT     H226367   1.510   2.888   8.866
 8709WAT      O26368   6.277   8.958   7.112
 8709WAT     H126369   6.180   8.938   7.128
 8709WAT     H226370   6.327   8.952   7.198
 8710WAT      O26371   4.026   5.972   9.479
 8710WAT     H126372   3.982   5.977   9.390
 8710WAT     H226373   3.965   5.928   9.545
 8711WAT      O26374   9.063   3.470   0.456
 8711WAT     H126375   9.035   3.443   0.548
 8711WAT     H226376   8.982   3.497   0.403
 8712WAT      O26377   4.379   4.877   0.156
 8712WAT     H126378   4.462   4.885   0.212
 8712WAT     H226379   4.401   4.891   0.060
 8713WAT      O26380   8.771   6.645   8.077
 8713WAT     H126381   8.835   6.612   8.008
 8713WAT     H226382   8.760   6.576   8.148
 8714WAT      O26383   4.449   3.471   4.243
 8714WAT     H126384   4.483   3.377   4.242
 8714WAT     H226385   4.382   3.483   4.170
 8715WAT      O26386   4.505   2.482   8.237
 8715WAT     H126387   4.478   2.500   8.142
 8715WAT     H226388   4.482   2.388   8.261
 8716WAT      O26389   4.653   9.100   0.438
 8716WAT     H126390   4.681   9.154   0.359
 8716WAT     H226391   4.714   9.119   0.515
 8717WAT      O26392   8.610   7.602   1.452
 8717WAT     H126393   8.685   7.644   1.503
 8717WAT     H226394   8.567   7.531   1.508
 8718WAT      O26395   8.682   3.323   8.518
 8718WAT     H126396   8.693   3.224   8.510
 8718WAT     H226397   8.673   3.363   8.426
 8719WAT      O26398   2.924   5.103   3.636
 8719WAT     H126399   2.991   5.160   3.589
 8719WAT     H226400   2.967   5.058   3.714
 8720WAT      O26401   1.266   2.292   4.028
 8720WAT     H126402   1.305   2.201   4.037
 8720WAT     H226403   1.279   2.325   3.934
 8721WAT      O26404   9.758   3.918   6.195
 8721WAT     H126405   9.789   3.911   6.290
 8721WAT     H226406   9.776   3.831   6.149
 8722WAT      O26407   7.007   7.859   1.556
 8722WAT     H126408   6.981   7.843   1.651
 8722WAT     H226409   6.977   7.950   1.527
 8723WAT      O26410   8.133   4.210   5.876
 8723WAT     H126411   8.142   4.135   5.941
 8723WAT     H226412   8.113   4.295   5.924
 8724WAT      O26413   2.907   7.108   1.212
 8724WAT     H126414   2.846   7.163   1.155
 8724WAT     H226415   2.999   7.146   1.209
 8725WAT      O26416   5.465   8.982   6.095
 8725WAT     H126417   5.473   8.949   6.001
 8725WAT     H226418   5.372   8.968   6.128
 8726WAT      O26419   7.266   2.864   4.360
 8726WAT     H126420   7.305   2.773   4.376
 8726WAT     H226421   7.272   2.918   4.444
 8727WAT      O26422   1.736   6.519   2.457
 8727WAT     H126423   1.746   6.461   2.376
 8727WAT     H226424   1.642   6.551   2.463
 8728WAT      O26425   7.813   1.087   2.315
 8728WAT     H126426   7.758   1.164   2.283
 8728WAT     H226427   7.905   1.093   2.276
 8729WAT      O26428   8.200   0.508   8.316
 8729WAT     H126429   8.295   0.533   8.300
 8729WAT     H226430   8.191   0.469   8.408
 8730WAT      O26431   1.143   2.989   0.076
 8730WAT     H126432   1.105   2.929   0.006
 8730WAT     H226433   1.096   2.973   0.163
 8731WAT      O26434   4.290   8.722   2.193
 8731WAT     H126435   4.358   8.662   2.151
 8731WAT     H226436   4.199   8.681   2.185
 8732WAT      O26437   0.162   3.458   2.496
 8732WAT     H126438   0.237   3.502   2.546
 8732WAT     H226439   0.184   3.456   2.398
 8733WAT      O26440   2.426   7.479   1.200
 8733WAT     H126441   2.508   7.483   1.142
 8733WAT     H226442   2.444   7.528   1.285
 8734WAT      O26443   3.783   1.714   1.436
 8734WAT     H126444   3.734   1.764   1.364
 8734WAT     H226445   3.826   1.633   1.396
 8735WAT      O26446   2.698   0.379   5.651
 8735WAT     H126447   2.672   0.455   5.710
 8735WAT     H226448   2.763   0.410   5.583
 8736WAT      O26449   8.181   1.703   1.471
 8736WAT     H126450   8.163   1.623   1.413
 8736WAT     H226451   8.171   1.677   1.567
 8737WAT      O26452   5.798   8.678   2.601
 8737WAT     H126453   5.871   8.739   2.633
 8737WAT     H226454   5.812   8.657   2.505
 8738WAT      O26455   3.972   5.975   6.428
 8738WAT     H126456   3.996   5.930   6.513
 8738WAT     H226457   4.052   5.980   6.369
 8739WAT      O26458   4.793   9.515   4.762
 8739WAT     H126459   4.755   9.509   4.670
 8739WAT     H226460   4.843   9.431   4.783
 8740WAT      O26461   2.684   1.633   7.930
 8740WAT     H126462   2.655   1.729   7.936
 8740WAT     H226463   2.635   1.588   7.856
 8741WAT      O26464   4.597   9.491   0.359
 8741WAT     H126465   4.642   9.548   0.290
 8741WAT     H226466   4.579   9.401   0.321
 8742WAT      O26467   6.697   3.346   9.311
 8742WAT     H126468   6.762   3.270   9.303
 8742WAT     H226469   6.728   3.409   9.382
 8743WAT      O26470   0.884   2.755   0.123
 8743WAT     H126471   0.827   2.837   0.117
 8743WAT     H226472   0.894   2.728   0.219
 8744WAT      O26473   0.670   0.236   0.098
 8744WAT     H126474   0.613   0.154   0.095
 8744WAT     H226475   0.738   0.232   0.025
 8745WAT      O26476   4.595   0.519   0.370
 8745WAT     H126477   4.626   0.564   0.286
 8745WAT     H226478   4.606   0.420   0.360
 8746WAT      O26479   3.207   3.160   9.290
 8746WAT     H126480   3.148   3.139   9.368
 8746WAT     H226481   3.167   3.121   9.207
 8747WAT      O26482   6.965   9.605   8.295
 8747WAT     H126483   6.997   9.634   8.385
 8747WAT     H226484   6.957   9.685   8.235
 8748WAT      O26485   6.498   9.478   5.760
 8748WAT     H126486   6.416   9.425   5.742
 8748WAT     H226487   6.509   9.547   5.689
 8749WAT      O26488   5.278   4.445   6.595
 8749WAT     H126489   5.364   4.395   6.601
 8749WAT     H226490   5.283   4.511   6.521
 8750WAT      O26491   9.187   7.884   0.110
 8750WAT     H126492   9.268   7.825   0.104
 8750WAT     H226493   9.215   7.978   0.131
 8751WAT      O26494   9.207   8.802   1.517
 8751WAT     H126495   9.198   8.703   1.534
 8751WAT     H226496   9.188   8.852   1.601
 8752WAT      O26497   3.583   9.132   6.036
 8752WAT     H126498   3.673   9.168   6.009
 8752WAT     H226499   3.515   9.204   6.026
 8753WAT      O26500   5.425   6.153   0.435
 8753WAT     H126501   5.459   6.101   0.513
 8753WAT     H226502   5.378   6.235   0.467
 8754WAT      O26503   6.616   6.237   0.364
 8754WAT     H126504   6.549   6.304   0.395
 8754WAT     H226505   6.689   6.283   0.313
 8755WAT      O26506   1.036   8.626   3.235
 8755WAT     H126507   1.075   8.586   3.318
 8755WAT     H226508   1.101   8.690   3.194
 8756WAT      O26509   3.867   9.014   7.212
 8756WAT     H126510   3.817   8.958   7.277
 8756WAT     H226511   3.818   9.100   7.198
 8757WAT      O26512   2.638   0.909   4.308
 8757WAT     H126513   2.666   0.818   4.341
 8757WAT     H226514   2.546   0.903   4.269
 8758WAT      O26515   6.226   1.404   3.188
 8758WAT     H126516   6.241   1.491   3.235
 8758WAT     H226517   6.193   1.336   3.254
 8759WAT      O26518   3.613   1.213   8.565
 8759WAT     H126519   3.514   1.195   8.567
 8759WAT     H226520   3.630   1.305   8.599
 8760WAT      O26521   7.467   8.233   2.360
 8760WAT     H126522   7.432   8.234   2.266
 8760WAT     H226523   7.402   8.188   2.420
 8761WAT      O26524   7.823   9.704   9.502
 8761WAT     H126525   7.875   9.676   9.583
 8761WAT     H226526   7.730   9.669   9.510
 8762WAT      O26527   0.396   1.562   2.465
 8762WAT     H126528   0.451   1.596   2.542
 8762WAT     H226529   0.307   1.608   2.464
 8763WAT      O26530   0.921   9.102   6.763
 8763WAT     H126531   0.953   9.078   6.855
 8763WAT     H226532   0.965   9.186   6.733
 8764WAT      O26533   3.659   3.887   9.209
 8764WAT     H126534   3.588   3.953   9.184
 8764WAT     H226535   3.636   3.844   9.296
 8765WAT      O26536   1.264   9.722   0.853
 8765WAT     H126537   1.264   9.822   0.858
 8765WAT     H226538   1.322   9.686   0.926
 8766WAT      O26539   7.854   2.546   9.286
 8766WAT     H126540   7.890   2.622   9.339
 8766WAT     H226541   7.797   2.580   9.211
 8767WAT      O26542   8.418   0.807   1.086
 8767WAT     H126543   8.323   0.836   1.098
 8767WAT     H226544   8.440   0.805   0.989
 8768WAT      O26545   9.694   2.485   1.267
 8768WAT     H126546   9.660   2.556   1.205
 8768WAT     H226547   9.623   2.460   1.332
 8769WAT      O26548   5.287   7.800   9.802
 8769WAT     H126549   5.331   7.889   9.793
 8769WAT     H226550   5.219   7.789   9.729
 8770WAT      O26551   3.399   0.775   4.613
 8770WAT     H126552   3.314   0.749   4.567
 8770WAT     H226553   3.476   0.766   4.549
 8771WAT      O26554   4.173   6.358   3.299
 8771WAT     H126555   4.218   6.446   3.282
 8771WAT     H226556   4.188   6.297   3.221
 8772WAT      O26557   0.191   9.637   5.626
 8772WAT     H126558   0.153   9.730   5.625
 8772WAT     H226559   0.138   9.578   5.566
 8773WAT      O26560   0.920   3.002   5.021
 8773WAT     H126561   0.889   2.929   4.960
 8773WAT     H226562   0.896   2.979   5.115
 8774WAT      O26563   1.473   2.367   6.086
 8774WAT     H126564   1.458   2.454   6.132
 8774WAT     H226565   1.387   2.316   6.082
 8775WAT      O26566   4.457   9.231   2.209
 8775WAT     H126567   4.405   9.146   2.198
 8775WAT     H226568   4.398   9.300   2.252
 8776WAT      O26569   8.524   0.087   7.305
 8776WAT     H126570   8.587   0.157   7.337
 8776WAT     H226571   8.575   0.014   7.260
 8777WAT      O26572   2.723   4.896   9.327
 8777WAT     H126573   2.655   4.890   9.254
 8777WAT     H226574   2.677   4.913   9.414
 8778WAT      O26575   6.679   0.376   2.926
 8778WAT     H126576   6.745   0.342   2.859
 8778WAT     H226577   6.634   0.299   2.971
 8779WAT      O26578   0.821   6.380   8.380
 8779WAT     H126579   0.875   6.388   8.464
 8779WAT     H226580   0.881   6.383   8.301
 8780WAT      O26581   7.447   6.408   9.550
 8780WAT     H126582   7.427   6.434   9.455
 8780WAT     H226583   7.468   6.490   9.603
 8781WAT      O26584   5.847   0.940   4.281
 8781WAT     H126585   5.843   1.021   4.340
 8781WAT     H226586   5.906   0.872   4.322
 8782WAT      O26587   9.597   6.582   3.758
 8782WAT     H126588   9.593   6.651   3.686
 8782WAT     H226589   9.515   6.525   3.754
 8783WAT      O26590   9.752   4.568   2.864
 8783WAT     H126591   9.851   4.570   2.856
 8783WAT     H226592   9.715   4.501   2.799
 8784WAT      O26593   2.477   5.789   9.324
 8784WAT     H126594   2.401   5.760   9.381
 8784WAT     H226595   2.448   5.789   9.228
 8785WAT      O26596   6.423   8.657   5.967
 8785WAT     H126597   6.497   8.723   5.977
 8785WAT     H226598   6.458   8.573   5.927
 8786WAT      O26599   4.163   8.030   3.160
 8786WAT     H126600   4.146   8.013   3.063
 8786WAT     H226601   4.242   8.091   3.170
 8787WAT      O26602   0.277   0.848   7.656
 8787WAT     H126603   0.294   0.946   7.647
 8787WAT     H226604   0.235   0.814   7.571
 8788WAT      O26605   3.699   6.785   0.725
 8788WAT     H126606   3.677   6.819   0.817
 8788WAT     H226607   3.659   6.845   0.657
 8789WAT      O26608   2.145   3.403   2.428
 8789WAT     H126609   2.081   3.399   2.505
 8789WAT     H226610   2.096   3.390   2.342
 8790WAT      O26611   0.910   7.136   3.013
 8790WAT     H126612   0.841   7.065   2.998
 8790WAT     H226613   1.000   7.093   3.021
 8791WAT      O26614   6.090   2.440   4.764
 8791WAT     H126615   6.121   2.364   4.822
 8791WAT     H226616   6.163   2.509   4.759
 8792WAT      O26617   8.999   4.513   5.589
 8792WAT     H126618   8.956   4.516   5.499
 8792WAT     H226619   9.018   4.418   5.613
 8793WAT      O26620   4.309   1.931   4.529
 8793WAT     H126621   4.265   1.853   4.483
 8793WAT     H226622   4.258   1.952   4.613
 8794WAT      O26623   4.491   6.473   8.287
 8794WAT     H126624   4.408   6.422   8.266
 8794WAT     H226625   4.470   6.570   8.294
 8795WAT      O26626   7.243   1.110   1.778
 8795WAT     H126627   7.204   1.200   1.757
 8795WAT     H226628   7.192   1.070   1.854
 8796WAT      O26629   7.206   4.281   6.187
 8796WAT     H126630   7.213   4.340   6.267
 8796WAT     H226631   7.296   4.270   6.145
 8797WAT      O26632   9.665   2.521   3.755
 8797WAT     H126633   9.653   2.440   3.697
 8797WAT     H226634   9.758   2.555   3.744
 8798WAT      O26635   0.905   0.498   7.432
 8798WAT     H126636   0.910   0.399   7.448
 8798WAT     H226637   0.881   0.544   7.518
 8799WAT      O26638   0.628   3.702   6.404
 8799WAT     H126639   0.636   3.607   6.434
 8799WAT     H226640   0.537   3.716   6.364
 8800WAT      O26641   5.404   5.043   8.854
 8800WAT     H126642   5.329   5.104   8.880
 8800WAT     H226643   5.475   5.047   8.925
 8801WAT      O26644   3.453   3.261   6.442
 8801WAT     H126645   3.548   3.278   6.468
 8801WAT     H226646   3.430   3.313   6.360
 8802WAT      O26647   6.660   2.978   4.357
 8802WAT     H126648   6.589   2.911   4.336
 8802WAT     H226649   6.684   3.028   4.274
 8803WAT      O26650   7.763   9.452   5.137
 8803WAT     H126651   7.694   9.383   5.162
 8803WAT     H226652   7.720   9.521   5.079
 8804WAT      O26653   8.414   8.704   8.065
 8804WAT     H126654   8.327   8.659   8.044
 8804WAT     H226655   8.407   8.749   8.154
 8805WAT      O26656   9.847   4.171   0.913
 8805WAT     H126657   9.910   4.181   0.989
 8805WAT     H226658   9.836   4.260   0.867
 8806WAT      O26659   9.053   4.009   1.766
 8806WAT     H126660   8.978   4.057   1.810
 8806WAT     H226661   9.092   4.067   1.694
 8807WAT      O26662   1.546   7.673   1.155
 8807WAT     H126663   1.454   7.704   1.129
 8807WAT     H226664   1.545   7.574   1.169
 8808WAT      O26665   0.761   9.152   0.921
 8808WAT     H126666   0.701   9.119   0.994
 8808WAT     H226667   0.792   9.075   0.865
 8809WAT      O26668   9.386   7.788   4.453
 8809WAT     H126669   9.397   7.887   4.469
 8809WAT     H226670   9.378   7.741   4.540
 8810WAT      O26671   1.275   2.216   8.690
 8810WAT     H126672   1.366   2.237   8.727
 8810WAT     H226673   1.286   2.164   8.605
 8811WAT      O26674   9.159   3.664   0.326
 8811WAT     H126675   9.153   3.622   0.236
 8811WAT     H226676   9.128   3.599   0.396
 8812WAT      O26677   9.837   0.237   4.281
 8812WAT     H126678   9.821   0.272   4.188
 8812WAT     H226679   9.873   0.311   4.338
 8813WAT      O26680   6.738   0.171   1.681
 8813WAT     H126681   6.669   0.167   1.608
 8813WAT     H226682   6.804   0.097   1.668
 8814WAT      O26683   7.917   1.810   0.540
 8814WAT     H126684   7.912   1.908   0.557
 8814WAT     H226685   7.914   1.760   0.626
 8815WAT      O26686   3.946   7.687   0.351
 8815WAT     H126687   3.995   7.645   0.274
 8815WAT     H226688   3.891   7.617   0.397
 8816WAT      O26689   5.367   5.764   2.200
 8816WAT     H126690   5.453   5.713   2.193
 8816WAT     H226691   5.371   5.826   2.279
 8817WAT      O26692   2.012   2.550   1.360
 8817WAT     H126693   2.028   2.632   1.305
 8817WAT     H226694   2.096   2.496   1.363
 8818WAT      O26695   6.518   0.570   6.075
 8818WAT     H126696   6.502   0.504   6.002
 8818WAT     H226697   6.436   0.625   6.089
 8819WAT      O26698   3.661   3.385   4.025
 8819WAT     H126699   3.642   3.388   4.123
 8819WAT     H226700   3.577   3.406   3.974
 8820WAT      O26701   3.535   8.668   7.378
 8820WAT     H126702   3.512   8.742   7.315
 8820WAT     H226703   3.603   8.608   7.336
 8821WAT      O26704   1.656   7.283   1.843
 8821WAT     H126705   1.656   7.325   1.934
 8821WAT     H226706   1.709   7.339   1.780
 8822WAT      O26707   6.771   3.702   8.360
 8822WAT     H126708   6.808   3.719   8.268
 8822WAT     H226709   6.675   3.677   8.353
 8823WAT      O26710   5.189   4.103   1.191
 8823WAT     H126711   5.176   4.053   1.106
 8823WAT     H226712   5.234   4.191   1.173
 8824WAT      O26713   1.318   9.634   3.791
 8824WAT     H126714   1.324   9.713   3.851
 8824WAT     H226715   1.229   9.590   3.802
 8825WAT      O26716   8.866   3.753   0.195
 8825WAT     H126717   8.951   3.714   0.230
 8825WAT     H226718   8.800   3.763   0.269
 8826WAT      O26719   6.039   0.031   4.722
 8826WAT     H126720   6.113  -0.018   4.768
 8826WAT     H226721   6.078   0.104   4.665
 8827WAT      O26722   3.594   2.165   3.578
 8827WAT     H126723   3.627   2.178   3.485
 8827WAT     H226724   3.577   2.254   3.620
 8828WAT      O26725   7.145   5.402   2.752
 8828WAT     H126726   7.166   5.330   2.686
 8828WAT     H226727   7.068   5.456   2.717
 8829WAT      O26728   8.497   9.777   6.845
 8829WAT     H126729   8.528   9.779   6.940
 8829WAT     H226730   8.564   9.823   6.787
 8830WAT      O26731   6.549   6.811   6.045
 8830WAT     H126732   6.509   6.751   6.113
 8830WAT     H226733   6.541   6.906   6.075
 8831WAT      O26734   2.174   3.981   9.211
 8831WAT     H126735   2.120   3.928   9.146
 8831WAT     H226736   2.128   4.068   9.229
 8832WAT      O26737   1.999   3.823   2.673
 8832WAT     H126738   1.955   3.739   2.642
 8832WAT     H226739   2.098   3.810   2.674
 8833WAT      O26740   1.573   9.021   3.433
 8833WAT     H126741   1.560   9.039   3.531
 8833WAT     H226742   1.610   9.103   3.389
 8834WAT      O26743   1.057   5.000   2.032
 8834WAT     H126744   1.136   5.022   1.974
 8834WAT     H226745   1.023   5.083   2.075
 8835WAT      O26746   3.951   6.007   5.863
 8835WAT     H126747   3.869   6.055   5.834
 8835WAT     H226748   3.991   6.053   5.942
 8836WAT      O26749   4.114   2.636   2.044
 8836WAT     H126750   4.093   2.566   1.975
 8836WAT     H226751   4.047   2.632   2.117
 8837WAT      O26752   4.696   5.452   2.644
 8837WAT     H126753   4.750   5.374   2.611
 8837WAT     H226754   4.697   5.454   2.744
 8838WAT      O26755   3.791   8.552   2.933
 8838WAT     H126756   3.830   8.590   3.017
 8838WAT     H226757   3.826   8.459   2.920
 8839WAT      O26758   5.104   3.344   1.194
 8839WAT     H126759   5.106   3.262   1.252
 8839WAT     H226760   5.014   3.385   1.197
 8840WAT      O26761   9.563   5.259   3.117
 8840WAT     H126762   9.509   5.279   3.036
 8840WAT     H226763   9.608   5.171   3.106
 8841WAT      O26764   2.867   0.839   6.331
 8841WAT     H126765   2.828   0.892   6.406
 8841WAT     H226766   2.796   0.819   6.263
 8842WAT      O26767   8.814   5.328   6.264
 8842WAT     H126768   8.910   5.351   6.250
 8842WAT     H226769   8.758   5.411   6.257
 8843WAT      O26770   3.183   2.980   5.277
 8843WAT     H126771   3.110   2.993   5.210
 8843WAT     H226772   3.206   2.883   5.284
 8844WAT      O26773   4.510   5.357   7.548
 8844WAT     H126774   4.469   5.271   7.580
 8844WAT     H226775   4.515   5.421   7.625
 8845WAT      O26776   5.359   6.111   8.176
 8845WAT     H126777   5.352   6.030   8.234
 8845WAT     H226778   5.299   6.183   8.212
 8846WAT      O26779   6.641   4.573   5.601
 8846WAT     H126780   6.573   4.561   5.673
 8846WAT     H226781   6.598   4.616   5.521
 8847WAT      O26782   5.981   1.460   4.717
 8847WAT     H126783   5.886   1.455   4.687
 8847WAT     H226784   5.987   1.439   4.815
 8848WAT      O26785   5.959   1.765   1.123
 8848WAT     H126786   5.958   1.732   1.029
 8848WAT     H226787   5.891   1.837   1.134
 8849WAT      O26788   6.088   6.405   8.281
 8849WAT     H126789   6.079   6.392   8.182
 8849WAT     H226790   5.999   6.395   8.325
 8850WAT      O26791   4.981   4.639   4.246
 8850WAT     H126792   5.017   4.566   4.304
 8850WAT     H226793   5.054   4.675   4.188
 8851WAT      O26794   3.554   4.544   1.152
 8851WAT     H126795   3.614   4.624   1.149
 8851WAT     H226796   3.464   4.569   1.118
 8852WAT      O26797   9.654   6.196   6.440
 8852WAT     H126798   9.580   6.191   6.507
 8852WAT     H226799   9.727   6.133   6.465
 8853WAT      O26800   2.607   9.229   3.850
 8853WAT     H126801   2.577   9.322   3.827
 8853WAT     H226802   2.587   9.210   3.946
 8854WAT      O26803   3.487   5.216   2.885
 8854WAT     H126804   3.480   5.117   2.895
 8854WAT     H226805   3.561   5.251   2.942
 8855WAT      O26806   9.678   0.624   1.331
 8855WAT     H126807   9.765   0.619   1.281
 8855WAT     H226808   9.696   0.625   1.429
 8856WAT      O26809   5.957   5.883   2.749
 8856WAT     H126810   5.985   5.840   2.664
 8856WAT     H226811   5.868   5.928   2.736
 8857WAT      O26812   0.807   8.920   1.680
 8857WAT     H126813   0.840   8.946   1.770
 8857WAT     H226814   0.871   8.855   1.638
 8858WAT      O26815   5.288   0.587   7.347
 8858WAT     H126816   5.332   0.594   7.258
 8858WAT     H226817   5.356   0.565   7.417
 8859WAT      O26818   6.499   6.576   4.409
 8859WAT     H126819   6.454   6.619   4.331
 8859WAT     H226820   6.570   6.513   4.376
 8860WAT      O26821   6.275   6.815   4.975
 8860WAT     H126822   6.367   6.850   4.958
 8860WAT     H226823   6.276   6.716   4.969
 8861WAT      O26824   4.940   2.954   5.027
 8861WAT     H126825   4.953   3.053   5.031
 8861WAT     H226826   5.003   2.915   4.959
 8862WAT      O26827   9.572   1.436   8.456
 8862WAT     H126828   9.625   1.519   8.436
 8862WAT     H226829   9.574   1.375   8.377
 8863WAT      O26830   7.606   4.738   8.494
 8863WAT     H126831   7.628   4.668   8.563
 8863WAT     H226832   7.509   4.759   8.498
 8864WAT      O26833   8.617   9.038   6.760
 8864WAT     H126834   8.677   8.998   6.691
 8864WAT     H226835   8.587   9.129   6.729
 8865WAT      O26836   3.547   8.524   8.789
 8865WAT     H126837   3.612   8.532   8.865
 8865WAT     H226838   3.492   8.608   8.783
 8866WAT      O26839   6.791   6.108   7.732
 8866WAT     H126840   6.694   6.132   7.733
 8866WAT     H226841   6.818   6.077   7.823
 8867WAT      O26842   7.149   5.789   7.462
 8867WAT     H126843   7.135   5.818   7.557
 8867WAT     H226844   7.107   5.698   7.449
 8868WAT      O26845   1.174   1.479   7.100
 8868WAT     H126846   1.240   1.487   7.175
 8868WAT     H226847   1.083   1.506   7.133
 8869WAT      O26848   8.800   2.678   2.276
 8869WAT     H126849   8.814   2.628   2.362
 8869WAT     H226850   8.850   2.764   2.279
 8870WAT      O26851   4.236   3.878   4.090
 8870WAT     H126852   4.323   3.838   4.120
 8870WAT     H226853   4.248   3.923   4.002
 8871WAT      O26854   7.337   1.967   6.696
 8871WAT     H126855   7.315   2.022   6.776
 8871WAT     H226856   7.434   1.943   6.698
 8872WAT      O26857   1.425   3.695   4.274
 8872WAT     H126858   1.329   3.712   4.296
 8872WAT     H226859   1.483   3.758   4.326
 8873WAT      O26860   8.879   4.061   3.498
 8873WAT     H126861   8.966   4.062   3.448
 8873WAT     H226862   8.867   4.149   3.544
 8874WAT      O26863   7.862   2.996   2.184
 8874WAT     H126864   7.952   3.030   2.157
 8874WAT     H226865   7.828   3.050   2.261
 8875WAT      O26866   6.592   2.083   8.190
 8875WAT     H126867   6.605   2.023   8.111
 8875WAT     H226868   6.628   2.174   8.169
 8876WAT      O26869   5.579   7.228   0.436
 8876WAT     H126870   5.634   7.280   0.370
 8876WAT     H226871   5.640   7.187   0.504
 8877WAT      O26872   0.452   4.449   7.576
 8877WAT     H126873   0.378   4.397   7.533
 8877WAT     H226874   0.527   4.387   7.600
 8878WAT      O26875   1.953   8.005   6.577
 8878WAT     H126876   1.897   8.062   6.518
 8878WAT     H226877   1.947   7.909   6.548
 8879WAT      O26878   6.921   5.588   5.448
 8879WAT     H126879   6.829   5.556   5.427
 8879WAT     H226880   6.916   5.672   5.501
 8880WAT      O26881   9.886   8.081   5.499
 8880WAT     H126882   9.885   8.043   5.592
 8880WAT     H226883   9.800   8.129   5.482
 8881WAT      O26884   7.532   1.632   7.422
 8881WAT     H126885   7.437   1.615   7.447
 8881WAT     H226886   7.549   1.596   7.330
 8882WAT      O26887   4.390   5.295   7.315
 8882WAT     H126888   4.433   5.318   7.228
 8882WAT     H226889   4.438   5.341   7.389
 8883WAT      O26890   5.407   0.233   4.132
 8883WAT     H126891   5.490   0.282   4.159
 8883WAT     H226892   5.353   0.291   4.071
 8884WAT      O26893   5.301   7.682   2.906
 8884WAT     H126894   5.376   7.680   2.972
 8884WAT     H226895   5.310   7.605   2.843
 8885WAT      O26896   6.767   4.454   3.092
 8885WAT     H126897   6.808   4.507   3.018
 8885WAT     H226898   6.672   4.484   3.105
 8886WAT      O26899   6.805   0.609   7.985
 8886WAT     H126900   6.739   0.552   8.034
 8886WAT     H226901   6.849   0.554   7.914
 8887WAT      O26902   0.218   5.052   9.598
 8887WAT     H126903   0.137   5.001   9.571
 8887WAT     H226904   0.194   5.117   9.670
 8888WAT      O26905   3.407   0.796   3.896
 8888WAT     H126906   3.393   0.698   3.882
 8888WAT     H226907   3.502   0.820   3.873
 8889WAT      O26908   1.872   8.632   2.591
 8889WAT     H126909   1.869   8.539   2.553
 8889WAT     H226910   1.874   8.627   2.690
 8890WAT      O26911   3.699   8.037   8.795
 8890WAT     H126912   3.721   8.039   8.893
 8890WAT     H226913   3.778   8.069   8.743
 8891WAT      O26914   0.588   4.740   3.986
 8891WAT     H126915   0.639   4.662   4.022
 8891WAT     H226916   0.650   4.798   3.933
 8892WAT      O26917   4.318   5.064   6.151
 8892WAT     H126918   4.228   5.034   6.117
 8892WAT     H226919   4.305   5.140   6.215
 8893WAT      O26920   4.294   6.056   7.473
 8893WAT     H126921   4.221   5.989   7.478
 8893WAT     H226922   4.301   6.105   7.561
 8894WAT      O26923   1.635   3.488   2.697
 8894WAT     H126924   1.595   3.532   2.617
 8894WAT     H226925   1.575   3.499   2.776
 8895WAT      O26926   6.548   9.512   4.915
 8895WAT     H126927   6.604   9.563   4.849
 8895WAT     H226928   6.469   9.472   4.869
 8896WAT      O26929   1.154   7.489   2.472
 8896WAT     H126930   1.210   7.537   2.540
 8896WAT     H226931   1.143   7.547   2.392
 8897WAT      O26932   7.996   2.354   8.275
 8897WAT     H126933   7.908   2.402   8.283
 8897WAT     H226934   8.070   2.414   8.302
 8898WAT      O26935   3.662   3.649   1.356
 8898WAT     H126936   3.710   3.577   1.306
 8898WAT     H226937   3.637   3.615   1.447
 8899WAT      O26938   1.279   3.724   7.086
 8899WAT     H126939   1.184   3.730   7.118
 8899WAT     H226940   1.315   3.816   7.071
 8900WAT      O26941   3.214   8.789   6.552
 8900WAT     H126942   3.267   8.803   6.468
 8900WAT     H226943   3.136   8.852   6.552
 8901WAT      O26944   1.603   6.305   1.487
 8901WAT     H126945   1.505   6.289   1.479
 8901WAT     H226946   1.642   6.321   1.396
 8902WAT      O26947   7.144   5.921   9.752
 8902WAT     H126948   7.170   5.826   9.736
 8902WAT     H226949   7.082   5.925   9.831
 8903WAT      O26950   9.274   3.990   3.159
 8903WAT     H126951   9.367   3.993   3.123
 8903WAT     H226952   9.214   4.044   3.101
 8904WAT      O26953   8.462   8.830   7.483
 8904WAT     H126954   8.397   8.804   7.412
 8904WAT     H226955   8.553   8.796   7.459
 8905WAT      O26956   2.698   8.667   9.559
 8905WAT     H126957   2.716   8.571   9.578
 8905WAT     H226958   2.761   8.699   9.488
 8906WAT      O26959   8.948   3.301   2.140
 8906WAT     H126960   9.014   3.377   2.137
 8906WAT     H226961   8.944   3.265   2.233
 8907WAT      O26962   0.874   7.020   2.080
 8907WAT     H126963   0.899   6.996   1.986
 8907WAT     H226964   0.778   7.045   2.084
 8908WAT      O26965   9.012   5.941   9.374
 8908WAT     H126966   8.995   6.032   9.411
 8908WAT     H226967   8.927   5.887   9.375
 8909WAT      O26968   3.683   9.453   8.870
 8909WAT     H126969   3.724   9.443   8.780
 8909WAT     H226970   3.703   9.544   8.907
 8910WAT      O26971   2.632   2.477   7.274
 8910WAT     H126972   2.724   2.504   7.244
 8910WAT     H226973   2.573   2.468   7.194
 8911WAT      O26974   3.529   7.953   9.019
 8911WAT     H126975   3.560   7.865   8.983
 8911WAT     H226976   3.588   7.980   9.095
 8912WAT      O26977   7.985   8.235   3.552
 8912WAT     H126978   7.956   8.312   3.494
 8912WAT     H226979   7.982   8.264   3.647
 8913WAT      O26980   3.544   2.814   3.226
 8913WAT     H126981   3.508   2.818   3.319
 8913WAT     H226982   3.574   2.906   3.198
 8914WAT      O26983   4.965   3.491   3.413
 8914WAT     H126984   4.945   3.588   3.425
 8914WAT     H226985   5.060   3.474   3.437
 8915WAT      O26986   7.517   5.548   0.881
 8915WAT     H126987   7.544   5.617   0.949
 8915WAT     H226988   7.499   5.461   0.928
 8916WAT      O26989   2.739   1.167   8.719
 8916WAT     H126990   2.724   1.072   8.747
 8916WAT     H226991   2.769   1.169   8.623
 8917WAT      O26992   3.433   7.833   4.701
 8917WAT     H126993   3.437   7.801   4.607
 8917WAT     H226994   3.411   7.931   4.702
 8918WAT      O26995   1.517   8.332   0.231
 8918WAT     H126996   1.467   8.337   0.145
 8918WAT     H226997   1.586   8.260   0.226
 8919WAT      O26998   6.945   6.572   0.669
 8919WAT     H126999   6.913   6.514   0.594
 8919WAT     H227000   6.947   6.667   0.640
 8920WAT      O27001   4.269   9.261   3.990
 8920WAT     H127002   4.294   9.165   3.978
 8920WAT     H227003   4.348   9.319   3.968
 8921WAT      O27004   7.918   3.350   9.073
 8921WAT     H127005   7.871   3.436   9.093
 8921WAT     H227006   7.992   3.367   9.008
 8922WAT      O27007   5.546   5.473   4.297
 8922WAT     H127008   5.486   5.494   4.374
 8922WAT     H227009   5.574   5.377   4.302
 8923WAT      O27010   0.555   9.161   8.016
 8923WAT     H127011   0.650   9.188   8.033
 8923WAT     H227012   0.536   9.166   7.918
 8924WAT      O27013   4.982   8.846   1.882
 8924WAT     H127014   4.945   8.760   1.916
 8924WAT     H227015   4.979   8.847   1.782
 8925WAT      O27016   2.320   0.152   4.440
 8925WAT     H127017   2.414   0.141   4.407
 8925WAT     H227018   2.284   0.064   4.467
 8926WAT      O27019   9.827   7.263   1.787
 8926WAT     H127020   9.785   7.296   1.702
 8926WAT     H227021   9.823   7.335   1.856
 8927WAT      O27022   2.355   5.644   1.934
 8927WAT     H127023   2.302   5.724   1.962
 8927WAT     H227024   2.402   5.606   2.013
 8928WAT      O27025   7.899   8.343   9.209
 8928WAT     H127026   7.828   8.275   9.229
 8928WAT     H227027   7.970   8.337   9.278
 8929WAT      O27028   2.840   0.576   7.378
 8929WAT     H127029   2.904   0.499   7.371
 8929WAT     H227030   2.870   0.639   7.450
 8930WAT      O27031   1.012   1.413   9.898
 8930WAT     H127032   1.050   1.361   9.822
 8930WAT     H227033   0.990   1.506   9.866
 8931WAT      O27034   2.966   3.814   8.732
 8931WAT     H127035   2.955   3.822   8.633
 8931WAT     H227036   2.887   3.768   8.771
 8932WAT      O27037   8.885   6.250   5.995
 8932WAT     H127038   8.808   6.206   6.041
 8932WAT     H227039   8.917   6.327   6.050
 8933WAT      O27040   8.915   6.468   3.627
 8933WAT     H127041   8.880   6.376   3.612
 8933WAT     H227042   8.976   6.469   3.707
 8934WAT      O27043   9.552   3.587   5.456
 8934WAT     H127044   9.604   3.634   5.385
 8934WAT     H227045   9.459   3.568   5.422
 8935WAT      O27046   7.010   7.999   4.324
 8935WAT     H127047   7.100   8.015   4.285
 8935WAT     H227048   6.976   8.084   4.365
 8936WAT      O27049   3.432   7.320   1.248
 8936WAT     H127050   3.358   7.335   1.313
 8936WAT     H227051   3.398   7.328   1.155
 8937WAT      O27052   0.185   6.898   7.082
 8937WAT     H127053   0.115   6.827   7.083
 8937WAT     H227054   0.144   6.985   7.056
 8938WAT      O27055   6.144   9.577   6.260
 8938WAT     H127056   6.180   9.560   6.168
 8938WAT     H227057   6.185   9.661   6.297
 8939WAT      O27058   0.976   5.151   5.883
 8939WAT     H127059   0.895   5.130   5.938
 8939WAT     H227060   1.057   5.111   5.925
 8940WAT      O27061   7.466   0.437   7.407
 8940WAT     H127062   7.519   0.380   7.470
 8940WAT     H227063   7.374   0.448   7.443
 8941WAT      O27064   3.111   7.831   7.101
 8941WAT     H127065   3.126   7.886   7.183
 8941WAT     H227066   3.170   7.750   7.104
 8942WAT      O27067   5.035   8.936   3.203
 8942WAT     H127068   5.047   8.841   3.175
 8942WAT     H227069   4.969   8.941   3.278
 8943WAT      O27070   2.433   9.405   0.512
 8943WAT     H127071   2.433   9.466   0.591
 8943WAT     H227072   2.370   9.329   0.527
 8944WAT      O27073   4.792   8.922   0.051
 8944WAT     H127074   4.796   8.871   0.136
 8944WAT     H227075   4.842   8.873  -0.020
 8945WAT      O27076   6.133   9.505   9.300
 8945WAT     H127077   6.130   9.492   9.201
 8945WAT     H227078   6.043   9.488   9.338
 8946WAT      O27079   8.373   9.579   3.273
 8946WAT     H127080   8.470   9.578   3.249
 8946WAT     H227081   8.350   9.495   3.324
 8947WAT      O27082   5.684   2.116   0.317
 8947WAT     H127083   5.704   2.029   0.272
 8947WAT     H227084   5.665   2.186   0.248
 8948WAT      O27085   3.532   6.833   1.272
 8948WAT     H127086   3.602   6.888   1.316
 8948WAT     H227087   3.444   6.881   1.274
 8949WAT      O27088   9.483   0.388   6.138
 8949WAT     H127089   9.511   0.378   6.043
 8949WAT     H227090   9.432   0.474   6.149
 8950WAT      O27091   5.570   2.874   3.526
 8950WAT     H127092   5.666   2.870   3.498
 8950WAT     H227093   5.563   2.853   3.623
 8951WAT      O27094   1.360   3.386   1.013
 8951WAT     H127095   1.385   3.457   1.079
 8951WAT     H227096   1.391   3.413   0.922
 8952WAT      O27097   1.737   3.037   4.378
 8952WAT     H127098   1.712   3.125   4.337
 8952WAT     H227099   1.665   3.008   4.441
 8953WAT      O27100   2.856   8.345   0.279
 8953WAT     H127101   2.858   8.278   0.353
 8953WAT     H227102   2.859   8.298   0.191
 8954WAT      O27103   2.813   7.832   5.719
 8954WAT     H127104   2.726   7.784   5.706
 8954WAT     H227105   2.832   7.888   5.639
 8955WAT      O27106   4.939   1.481   4.274
 8955WAT     H127107   4.926   1.580   4.266
 8955WAT     H227108   5.027   1.462   4.317
 8956WAT      O27109   6.736   2.835   1.577
 8956WAT     H127110   6.743   2.779   1.660
 8956WAT     H227111   6.760   2.930   1.599
 8957WAT      O27112   8.731   2.941   6.954
 8957WAT     H127113   8.785   2.859   6.934
 8957WAT     H227114   8.649   2.941   6.897
 8958WAT      O27115   0.860   9.131   0.285
 8958WAT     H127116   0.896   9.223   0.270
 8958WAT     H227117   0.762   9.137   0.304
 8959WAT      O27118   7.885   2.303   1.201
 8959WAT     H127119   7.960   2.314   1.266
 8959WAT     H227120   7.866   2.391   1.157
 8960WAT      O27121   0.076   7.980   5.256
 8960WAT     H127122   0.063   8.040   5.336
 8960WAT     H227123   0.024   7.896   5.269
 8961WAT      O27124   7.261   7.460   8.647
 8961WAT     H127125   7.167   7.439   8.620
 8961WAT     H227126   7.261   7.512   8.733
 8962WAT      O27127   6.875   2.010   9.576
 8962WAT     H127128   6.803   1.962   9.628
 8962WAT     H227129   6.964   1.982   9.611
 8963WAT      O27130   7.605   3.722   6.746
 8963WAT     H127131   7.599   3.813   6.703
 8963WAT     H227132   7.668   3.665   6.693
 8964WAT      O27133   7.606   3.200   8.154
 8964WAT     H127134   7.521   3.148   8.161
 8964WAT     H227135   7.676   3.143   8.111
 8965WAT      O27136   1.935   9.738   7.481
 8965WAT     H127137   1.873   9.817   7.481
 8965WAT     H227138   1.902   9.669   7.418
 8966WAT      O27139   3.246   2.242   6.326
 8966WAT     H127140   3.178   2.187   6.277
 8966WAT     H227141   3.212   2.264   6.417
 8967WAT      O27142   5.381   1.494   3.005
 8967WAT     H127143   5.417   1.428   2.938
 8967WAT     H227144   5.355   1.446   3.088
 8968WAT      O27145   0.285   5.704   1.754
 8968WAT     H127146   0.227   5.769   1.704
 8968WAT     H227147   0.252   5.611   1.738
 8969WAT      O27148   7.052   6.014   6.668
 8969WAT     H127149   7.130   6.076   6.663
 8969WAT     H227150   6.990   6.031   6.591
 8970WAT      O27151   1.845   0.920   3.593
 8970WAT     H127152   1.811   0.887   3.681
 8970WAT     H227153   1.785   0.992   3.559
 8971WAT      O27154   7.733   2.572   7.012
 8971WAT     H127155   7.803   2.520   6.963
 8971WAT     H227156   7.752   2.669   7.006
 8972WAT      O27157   7.575   0.574   7.220
 8972WAT     H127158   7.589   0.506   7.149
 8972WAT     H227159   7.533   0.531   7.300
 8973WAT      O27160   0.582   3.371   1.446
 8973WAT     H127161   0.496   3.341   1.404
 8973WAT     H227162   0.656   3.362   1.380
 8974WAT      O27163   1.368   7.040   1.330
 8974WAT     H127164   1.341   6.962   1.386
 8974WAT     H227165   1.287   7.079   1.286
 8975WAT      O27166   0.693   4.682   3.618
 8975WAT     H127167   0.629   4.713   3.688
 8975WAT     H227168   0.735   4.762   3.574
 8976WAT      O27169   9.375   5.084   9.772
 8976WAT     H127170   9.369   5.170   9.823
 8976WAT     H227171   9.471   5.058   9.762
 8977WAT      O27172   6.904   4.465   0.868
 8977WAT     H127173   6.883   4.496   0.961
 8977WAT     H227174   6.981   4.517   0.832
 8978WAT      O27175   4.532   1.008   5.142
 8978WAT     H127176   4.585   0.992   5.058
 8978WAT     H227177   4.562   0.943   5.212
 8979WAT      O27178   6.434   5.803   5.686
 8979WAT     H127179   6.354   5.842   5.732
 8979WAT     H227180   6.470   5.727   5.741
 8980WAT      O27181   3.255   9.383   4.935
 8980WAT     H127182   3.249   9.478   4.905
 8980WAT     H227183   3.296   9.327   4.862
 8981WAT      O27184   6.341   6.523   0.265
 8981WAT     H127185   6.395   6.490   0.342
 8981WAT     H227186   6.274   6.453   0.239
 8982WAT      O27187   0.221   1.332   7.677
 8982WAT     H127188   0.282   1.410   7.693
 8982WAT     H227189   0.268   1.247   7.700
 8983WAT      O27190   0.406   8.171   0.213
 8983WAT     H127191   0.326   8.175   0.272
 8983WAT     H227192   0.427   8.076   0.190
 8984WAT      O27193   6.351   1.756   3.661
 8984WAT     H127194   6.418   1.691   3.627
 8984WAT     H227195   6.345   1.834   3.598
 8985WAT      O27196   8.319   1.682   2.186
 8985WAT     H127197   8.411   1.677   2.226
 8985WAT     H227198   8.273   1.593   2.197
 8986WAT      O27199   4.771   0.217   2.664
 8986WAT     H127200   4.794   0.163   2.745
 8986WAT     H227201   4.714   0.162   2.602
 8987WAT      O27202   3.349   5.243   0.637
 8987WAT     H127203   3.306   5.220   0.549
 8987WAT     H227204   3.409   5.322   0.625
 8988WAT      O27205   9.028   3.150   4.070
 8988WAT     H127206   9.051   3.067   4.020
 8988WAT     H227207   8.936   3.181   4.044
 8989WAT      O27208   0.120   4.892   9.294
 8989WAT     H127209   0.165   4.814   9.337
 8989WAT     H227210   0.044   4.860   9.237
 8990WAT      O27211   3.069   3.073   9.060
 8990WAT     H127212   3.060   2.977   9.085
 8990WAT     H227213   3.033   3.087   8.967
 8991WAT      O27214   6.083   0.949   5.600
 8991WAT     H127215   6.011   0.986   5.541
 8991WAT     H227216   6.053   0.863   5.640
 8992WAT      O27217   5.145   3.976   2.210
 8992WAT     H127218   5.145   3.954   2.307
 8992WAT     H227219   5.110   3.898   2.158
 8993WAT      O27220   8.699   7.164   0.574
 8993WAT     H127221   8.766   7.090   0.566
 8993WAT     H227222   8.611   7.133   0.537
 8994WAT      O27223   9.043   0.198   5.997
 8994WAT     H127224   9.026   0.198   5.898
 8994WAT     H227225   8.958   0.177   6.045
 8995WAT      O27226   6.709   1.864   9.744
 8995WAT     H127227   6.701   1.841   9.841
 8995WAT     H227228   6.618   1.875   9.705
 8996WAT      O27229   9.633   0.610   3.179
 8996WAT     H127230   9.709   0.629   3.117
 8996WAT     H227231   9.661   0.629   3.273
 8997WAT      O27232   5.833   4.283   8.600
 8997WAT     H127233   5.865   4.359   8.543
 8997WAT     H227234   5.741   4.301   8.632
 8998WAT      O27235   4.447   5.425   0.570
 8998WAT     H127236   4.376   5.495   0.570
 8998WAT     H227237   4.523   5.455   0.628
 8999WAT      O27238   3.677   8.164   0.104
 8999WAT     H127239   3.743   8.100   0.143
 8999WAT     H227240   3.688   8.253   0.148
 9000WAT      O27241   9.629   7.411   0.929
 9000WAT     H127242   9.692   7.463   0.986
 9000WAT     H227243   9.567   7.473   0.881
 9001WAT      O27244   1.311   0.560   5.086
 9001WAT     H127245   1.360   0.648   5.084
 9001WAT     H227246   1.241   0.563   5.157
 9002WAT      O27247   9.334   1.610   5.873
 9002WAT     H127248   9.392   1.661   5.810
 9002WAT     H227249   9.386   1.534   5.913
 9003WAT      O27250   1.226   1.879   1.797
 9003WAT     H127251   1.178   1.850   1.715
 9003WAT     H227252   1.169   1.944   1.849
 9004WAT      O27253   0.507   9.148   4.019
 9004WAT     H127254   0.457   9.185   4.097
 9004WAT     H227255   0.568   9.219   3.982
 9005WAT      O27256   3.061   6.678   7.480
 9005WAT     H127257   3.089   6.619   7.556
 9005WAT     H227258   3.132   6.677   7.409
 9006WAT      O27259   8.927   6.480   2.458
 9006WAT     H127260   8.849   6.426   2.490
 9006WAT     H227261   9.002   6.473   2.523
 9007WAT      O27262   5.566   7.910   7.202
 9007WAT     H127263   5.566   8.010   7.197
 9007WAT     H227264   5.592   7.871   7.114
 9008WAT      O27265   8.637   9.329   0.114
 9008WAT     H127266   8.546   9.352   0.079
 9008WAT     H227267   8.663   9.238   0.083
 9009WAT      O27268   0.414   5.223   8.493
 9009WAT     H127269   0.336   5.269   8.449
 9009WAT     H227270   0.434   5.138   8.445
 9010WAT      O27271   3.236   1.525   4.264
 9010WAT     H127272   3.153   1.530   4.319
 9010WAT     H227273   3.284   1.439   4.284
 9011WAT      O27274   3.004   0.181   9.606
 9011WAT     H127275   3.001   0.132   9.693
 9011WAT     H227276   3.096   0.218   9.592
 9012WAT      O27277   8.527   7.942   4.748
 9012WAT     H127278   8.558   8.036   4.744
 9012WAT     H227279   8.540   7.899   4.658
 9013WAT      O27280   3.163   7.861   6.251
 9013WAT     H127281   3.245   7.916   6.237
 9013WAT     H227282   3.159   7.789   6.182
 9014WAT      O27283   3.784   5.009   7.710
 9014WAT     H127284   3.852   4.939   7.687
 9014WAT     H227285   3.805   5.046   7.801
 9015WAT      O27286   9.154   1.697   7.427
 9015WAT     H127287   9.069   1.749   7.424
 9015WAT     H227288   9.231   1.758   7.407
 9016WAT      O27289   6.776   9.372   3.813
 9016WAT     H127290   6.825   9.313   3.748
 9016WAT     H227291   6.749   9.456   3.767
 9017WAT      O27292   0.317   0.246   6.973
 9017WAT     H127293   0.257   0.196   7.035
 9017WAT     H227294   0.412   0.238   7.004
 9018WAT      O27295   4.368   0.029   5.935
 9018WAT     H127296   4.291   0.028   5.870
 9018WAT     H227297   4.378   0.120   5.974
 9019WAT      O27298   9.491   5.194   2.758
 9019WAT     H127299   9.430   5.237   2.824
 9019WAT     H227300   9.585   5.200   2.791
 9020WAT      O27301   0.056   6.061   3.156
 9020WAT     H127302  -0.018   6.088   3.218
 9020WAT     H227303   0.052   5.962   3.142
 9021WAT      O27304   5.017   5.500   3.050
 9021WAT     H127305   5.091   5.564   3.030
 9021WAT     H227306   5.019   5.475   3.147
 9022WAT      O27307   1.497   9.688   8.002
 9022WAT     H127308   1.545   9.658   7.919
 9022WAT     H227309   1.521   9.629   8.078
 9023WAT      O27310   7.868   7.791   8.977
 9023WAT     H127311   7.898   7.858   9.044
 9023WAT     H227312   7.790   7.740   9.012
 9024WAT      O27313   1.998   6.385   2.892
 9024WAT     H127314   2.081   6.389   2.836
 9024WAT     H227315   1.946   6.470   2.880
 9025WAT      O27316   5.470   2.365   7.991
 9025WAT     H127317   5.437   2.349   8.084
 9025WAT     H227318   5.499   2.278   7.951
 9026WAT      O27319   9.703   0.671   6.428
 9026WAT     H127320   9.736   0.754   6.473
 9026WAT     H227321   9.677   0.692   6.333
 9027WAT      O27322   7.415   5.310   2.412
 9027WAT     H127323   7.422   5.297   2.313
 9027WAT     H227324   7.475   5.386   2.440
 9028WAT      O27325   2.546   8.635   4.511
 9028WAT     H127326   2.506   8.638   4.603
 9028WAT     H227327   2.478   8.661   4.444
 9029WAT      O27328   0.359   0.820   9.726
 9029WAT     H127329   0.452   0.837   9.694
 9029WAT     H227330   0.296   0.886   9.685
 9030WAT      O27331   0.846   2.040   0.595
 9030WAT     H127332   0.848   1.983   0.677
 9030WAT     H227333   0.922   2.016   0.535
 9031WAT      O27334   5.036   0.133   1.225
 9031WAT     H127335   5.082   0.177   1.302
 9031WAT     H227336   5.042   0.034   1.234
 9032WAT      O27337   2.693   4.801   3.162
 9032WAT     H127338   2.684   4.817   3.261
 9032WAT     H227339   2.781   4.835   3.131
 9033WAT      O27340   0.965   7.329   3.883
 9033WAT     H127341   0.964   7.318   3.784
 9033WAT     H227342   1.031   7.399   3.909
 9034WAT      O27343   5.970   4.544   6.345
 9034WAT     H127344   6.062   4.567   6.314
 9034WAT     H227345   5.924   4.627   6.379
 9035WAT      O27346   7.808   9.380   2.370
 9035WAT     H127347   7.885   9.442   2.357
 9035WAT     H227348   7.831   9.311   2.438
 9036WAT      O27349   4.378   7.840   0.410
 9036WAT     H127350   4.453   7.774   0.413
 9036WAT     H227351   4.415   7.933   0.403
 9037WAT      O27352   5.300   6.164   8.891
 9037WAT     H127353   5.376   6.219   8.925
 9037WAT     H227354   5.264   6.108   8.965
 9038WAT      O27355   2.986   2.301   5.207
 9038WAT     H127356   2.998   2.202   5.198
 9038WAT     H227357   3.046   2.348   5.143
 9039WAT      O27358   0.144   5.203   4.257
 9039WAT     H127359   0.119   5.110   4.284
 9039WAT     H227360   0.243   5.210   4.246
 9040WAT      O27361   5.481   9.073   8.844
 9040WAT     H127362   5.463   9.162   8.802
 9040WAT     H227363   5.395   9.036   8.879
 9041WAT      O27364   8.184   0.674   6.629
 9041WAT     H127365   8.193   0.758   6.576
 9041WAT     H227366   8.135   0.606   6.575
 9042WAT      O27367   3.639   8.646   1.135
 9042WAT     H127368   3.574   8.677   1.066
 9042WAT     H227369   3.708   8.717   1.151
 9043WAT      O27370   4.547   7.984   1.384
 9043WAT     H127371   4.480   7.991   1.457
 9043WAT     H227372   4.587   7.893   1.384
 9044WAT      O27373   2.846   4.664   9.389
 9044WAT     H127374   2.798   4.751   9.380
 9044WAT     H227375   2.932   4.669   9.340
 9045WAT      O27376   0.486   8.561   8.554
 9045WAT     H127377   0.577   8.600   8.568
 9045WAT     H227378   0.487   8.464   8.579
 9046WAT      O27379   7.779   7.651   3.068
 9046WAT     H127380   7.787   7.750   3.053
 9046WAT     H227381   7.860   7.605   3.029
 9047WAT      O27382   0.023   8.358   0.340
 9047WAT     H127383   0.041   8.443   0.389
 9047WAT     H227384   0.050   8.368   0.244
 9048WAT      O27385   5.008   6.273   1.413
 9048WAT     H127386   5.040   6.321   1.331
 9048WAT     H227387   4.973   6.340   1.479
 9049WAT      O27388   0.603   8.217   3.633
 9049WAT     H127389   0.579   8.136   3.687
 9049WAT     H227390   0.653   8.189   3.551
 9050WAT      O27391   1.033   2.744   0.720
 9050WAT     H127392   0.945   2.784   0.745
 9050WAT     H227393   1.096   2.752   0.798
 9051WAT      O27394   8.484   0.512   5.959
 9051WAT     H127395   8.466   0.497   6.057
 9051WAT     H227396   8.581   0.531   5.946
 9052WAT      O27397   0.379   3.599   5.191
 9052WAT     H127398   0.290   3.622   5.230
 9052WAT     H227399   0.413   3.514   5.231
 9053WAT      O27400   0.672   6.821   7.447
 9053WAT     H127401   0.669   6.917   7.477
 9053WAT     H227402   0.699   6.817   7.351
 9054WAT      O27403   3.760   5.529   5.086
 9054WAT     H127404   3.842   5.558   5.036
 9054WAT     H227405   3.702   5.609   5.102
 9055WAT      O27406   1.834   8.699   0.107
 9055WAT     H127407   1.878   8.761   0.172
 9055WAT     H227408   1.904   8.649   0.056
 9056WAT      O27409   4.186   4.239   0.762
 9056WAT     H127410   4.215   4.143   0.766
 9056WAT     H227411   4.206   4.276   0.671
 9057WAT      O27412   9.069   7.314   6.235
 9057WAT     H127413   9.138   7.265   6.182
 9057WAT     H227414   9.071   7.411   6.210
 9058WAT      O27415   7.246   3.129   1.658
 9058WAT     H127416   7.209   3.073   1.584
 9058WAT     H227417   7.181   3.202   1.680
 9059WAT      O27418   5.879   3.247   2.201
 9059WAT     H127419   5.973   3.236   2.233
 9059WAT     H227420   5.848   3.341   2.219
 9060WAT      O27421   6.042   4.322   7.812
 9060WAT     H127422   5.996   4.297   7.727
 9060WAT     H227423   5.973   4.338   7.883
 9061WAT      O27424   4.164   1.082   1.475
 9061WAT     H127425   4.104   1.100   1.554
 9061WAT     H227426   4.191   1.169   1.433
 9062WAT      O27427   3.535   9.182   4.548
 9062WAT     H127428   3.634   9.196   4.540
 9062WAT     H227429   3.496   9.165   4.458
 9063WAT      O27430   4.960   0.311   9.686
 9063WAT     H127431   5.023   0.264   9.748
 9063WAT     H227432   5.010   0.381   9.635
 9064WAT      O27433   0.296   1.315   7.274
 9064WAT     H127434   0.355   1.382   7.320
 9064WAT     H227435   0.202   1.347   7.276
 9065WAT      O27436   7.158   5.323   0.134
 9065WAT     H127437   7.120   5.297   0.223
 9065WAT     H227438   7.187   5.241   0.084
 9066WAT      O27439   4.907   5.249   3.456
 9066WAT     H127440   4.972   5.179   3.425
 9066WAT     H227441   4.928   5.275   3.550
 9067WAT      O27442   8.986   8.885   5.107
 9067WAT     H127443   8.997   8.786   5.114
 9067WAT     H227444   8.897   8.911   5.144
 9068WAT      O27445   8.749   9.034   5.222
 9068WAT     H127446   8.811   8.996   5.291
 9068WAT     H227447   8.658   8.995   5.235
 9069WAT      O27448   8.807   8.176   1.734
 9069WAT     H127449   8.820   8.268   1.770
 9069WAT     H227450   8.809   8.110   1.809
 9070WAT      O27451   8.643   4.308   4.064
 9070WAT     H127452   8.696   4.307   4.149
 9070WAT     H227453   8.558   4.258   4.077
 9071WAT      O27454   5.429   5.725   3.608
 9071WAT     H127455   5.332   5.729   3.632
 9071WAT     H227456   5.449   5.793   3.538
 9072WAT      O27457   3.119   6.900   4.957
 9072WAT     H127458   3.045   6.968   4.961
 9072WAT     H227459   3.116   6.852   4.870
 9073WAT      O27460   6.517   8.416   0.973
 9073WAT     H127461   6.558   8.352   0.907
 9073WAT     H227462   6.504   8.504   0.929
 9074WAT      O27463   0.731   8.313   4.153
 9074WAT     H127464   0.810   8.281   4.100
 9074WAT     H227465   0.679   8.379   4.099
 9075WAT      O27466   0.532   0.602   5.805
 9075WAT     H127467   0.627   0.625   5.781
 9075WAT     H227468   0.531   0.527   5.870
 9076WAT      O27469   8.334   1.310   2.840
 9076WAT     H127470   8.276   1.238   2.801
 9076WAT     H227471   8.430   1.287   2.826
 9077WAT      O27472   3.846   3.827   2.491
 9077WAT     H127473   3.827   3.856   2.397
 9077WAT     H227474   3.886   3.736   2.489
 9078WAT      O27475   2.516   8.031   6.514
 9078WAT     H127476   2.422   8.001   6.499
 9078WAT     H227477   2.528   8.060   6.609
 9079WAT      O27478   1.801   2.132   7.173
 9079WAT     H127479   1.822   2.076   7.253
 9079WAT     H227480   1.864   2.110   7.099
 9080WAT      O27481   2.317   8.834   3.228
 9080WAT     H127482   2.340   8.766   3.298
 9080WAT     H227483   2.374   8.820   3.147
 9081WAT      O27484   6.258   9.754   4.870
 9081WAT     H127485   6.219   9.686   4.933
 9081WAT     H227486   6.349   9.781   4.902
 9082WAT      O27487   7.659   1.705   5.608
 9082WAT     H127488   7.700   1.787   5.567
 9082WAT     H227489   7.576   1.680   5.558
 9083WAT      O27490   6.983   9.637   5.964
 9083WAT     H127491   6.980   9.733   5.936
 9083WAT     H227492   7.076   9.613   5.992
 9084WAT      O27493   0.616   1.337   1.591
 9084WAT     H127494   0.713   1.359   1.603
 9084WAT     H227495   0.575   1.316   1.679
 9085WAT      O27496   9.191   6.863   2.850
 9085WAT     H127497   9.213   6.839   2.756
 9085WAT     H227498   9.274   6.862   2.905
 9086WAT      O27499   4.451   2.180   2.296
 9086WAT     H127500   4.474   2.277   2.283
 9086WAT     H227501   4.410   2.168   2.387
 9087WAT      O27502   1.439   5.700   7.804
 9087WAT     H127503   1.517   5.640   7.790
 9087WAT     H227504   1.461   5.767   7.875
 9088WAT      O27505   2.321   9.328   5.637
 9088WAT     H127506   2.265   9.272   5.699
 9088WAT     H227507   2.417   9.302   5.647
 9089WAT      O27508   8.715   8.427   4.833
 9089WAT     H127509   8.754   8.420   4.925
 9089WAT     H227510   8.659   8.510   4.826
 9090WAT      O27511   1.065   2.088   2.201
 9090WAT     H127512   1.050   2.039   2.287
 9090WAT     H227513   1.002   2.054   2.132
 9091WAT      O27514   4.854   8.551   8.880
 9091WAT     H127515   4.820   8.557   8.787
 9091WAT     H227516   4.929   8.486   8.884
 9092WAT      O27517   6.752   0.488   3.152
 9092WAT     H127518   6.742   0.474   3.054
 9092WAT     H227519   6.820   0.425   3.189
 9093WAT      O27520   8.634   5.003   4.492
 9093WAT     H127521   8.642   4.972   4.586
 9093WAT     H227522   8.591   5.094   4.490
 9094WAT      O27523   0.938   2.876   5.254
 9094WAT     H127524   0.975   2.809   5.318
 9094WAT     H227525   0.874   2.936   5.302
 9095WAT      O27526   6.699   7.924   4.354
 9095WAT     H127527   6.718   7.855   4.424
 9095WAT     H227528   6.774   7.925   4.288
 9096WAT      O27529   1.145   4.007   6.849
 9096WAT     H127530   1.234   3.979   6.885
 9096WAT     H227531   1.106   4.078   6.907
 9097WAT      O27532   7.791   0.324   4.010
 9097WAT     H127533   7.788   0.408   3.955
 9097WAT     H227534   7.876   0.322   4.063
 9098WAT      O27535   5.600   2.395   8.385
 9098WAT     H127536   5.615   2.490   8.358
 9098WAT     H227537   5.668   2.369   8.453
 9099WAT      O27538   5.105   2.816   4.021
 9099WAT     H127539   5.022   2.870   4.035
 9099WAT     H227540   5.156   2.810   4.106
 9100WAT      O27541   1.831   4.006   8.290
 9100WAT     H127542   1.910   3.949   8.312
 9100WAT     H227543   1.855   4.102   8.302
 9101WAT      O27544   0.882   8.136   3.825
 9101WAT     H127545   0.963   8.120   3.768
 9101WAT     H227546   0.815   8.189   3.772
 9102WAT      O27547   6.248   1.947   3.426
 9102WAT     H127548   6.341   1.983   3.434
 9102WAT     H227549   6.215   1.957   3.332
 9103WAT      O27550   1.797   4.481   1.727
 9103WAT     H127551   1.883   4.516   1.689
 9103WAT     H227552   1.769   4.539   1.804
 9104WAT      O27553   4.813   4.519   2.498
 9104WAT     H127554   4.734   4.493   2.443
 9104WAT     H227555   4.886   4.550   2.438
 9105WAT      O27556   3.348   4.896   9.008
 9105WAT     H127557   3.304   4.946   8.933
 9105WAT     H227558   3.389   4.961   9.072
 9106WAT      O27559   9.643   1.746   7.169
 9106WAT     H127560   9.646   1.817   7.098
 9106WAT     H227561   9.727   1.750   7.223
 9107WAT      O27562   4.944   9.734   8.558
 9107WAT     H127563   4.908   9.642   8.539
 9107WAT     H227564   5.040   9.739   8.528
 9108WAT      O27565   4.277   0.635   8.743
 9108WAT     H127566   4.272   0.538   8.765
 9108WAT     H227567   4.372   0.666   8.748
 9109WAT      O27568   0.660   2.078   4.286
 9109WAT     H127569   0.685   2.059   4.381
 9109WAT     H227570   0.697   2.006   4.227
 9110WAT      O27571   1.122   3.831   1.442
 9110WAT     H127572   1.126   3.731   1.436
 9110WAT     H227573   1.206   3.870   1.406
 9111WAT      O27574   0.436   9.006   4.900
 9111WAT     H127575   0.517   9.031   4.846
 9111WAT     H227576   0.424   9.072   4.974
 9112WAT      O27577   6.535   8.167   5.673
 9112WAT     H127578   6.539   8.267   5.666
 9112WAT     H227579   6.439   8.137   5.672
 9113WAT      O27580   8.996   0.385   3.374
 9113WAT     H127581   9.011   0.469   3.427
 9113WAT     H227582   9.032   0.307   3.425
 9114WAT      O27583   4.077   0.342   4.505
 9114WAT     H127584   4.167   0.376   4.478
 9114WAT     H227585   4.022   0.418   4.542
 9115WAT      O27586   9.228   0.729   5.699
 9115WAT     H127587   9.135   0.726   5.664
 9115WAT     H227588   9.226   0.744   5.798
 9116WAT      O27589   6.341   1.257   5.575
 9116WAT     H127590   6.391   1.233   5.492
 9116WAT     H227591   6.403   1.303   5.639
 9117WAT      O27592   5.855   5.794   3.832
 9117WAT     H127593   5.876   5.787   3.929
 9117WAT     H227594   5.909   5.869   3.792
 9118WAT      O27595   5.267   3.956   1.398
 9118WAT     H127596   5.345   3.901   1.370
 9118WAT     H227597   5.244   4.021   1.326
 9119WAT      O27598   7.040   4.409   7.662
 9119WAT     H127599   6.970   4.374   7.725
 9119WAT     H227600   7.124   4.428   7.713
 9120WAT      O27601   4.956   2.370   4.604
 9120WAT     H127602   4.893   2.350   4.679
 9120WAT     H227603   4.929   2.455   4.559
 9121WAT      O27604   6.339   6.341   2.730
 9121WAT     H127605   6.376   6.433   2.725
 9121WAT     H227606   6.309   6.322   2.823
 9122WAT      O27607   0.296   3.813   9.889
 9122WAT     H127608   0.385   3.859   9.888
 9122WAT     H227609   0.236   3.856   9.822
 9123WAT      O27610   8.999   7.275   7.479
 9123WAT     H127611   8.922   7.306   7.535
 9123WAT     H227612   9.064   7.225   7.537
 9124WAT      O27613   2.705   8.251   6.051
 9124WAT     H127614   2.781   8.265   6.114
 9124WAT     H227615   2.677   8.155   6.053
 9125WAT      O27616   0.477   0.495   6.327
 9125WAT     H127617   0.450   0.437   6.251
 9125WAT     H227618   0.396   0.518   6.381
 9126WAT      O27619   9.181   1.258   0.697
 9126WAT     H127620   9.098   1.301   0.734
 9126WAT     H227621   9.262   1.307   0.730
 9127WAT      O27622   0.334   8.780   4.126
 9127WAT     H127623   0.424   8.738   4.140
 9127WAT     H227624   0.266   8.709   4.109
 9128WAT      O27625   6.010   1.904   8.236
 9128WAT     H127626   6.042   1.875   8.146
 9128WAT     H227627   5.931   1.964   8.226
 9129WAT      O27628   0.553   8.763   4.695
 9129WAT     H127629   0.617   8.819   4.748
 9129WAT     H227630   0.463   8.765   4.738
 9130WAT      O27631   4.198   3.655   5.174
 9130WAT     H127632   4.209   3.562   5.138
 9130WAT     H227633   4.282   3.707   5.160
 9131WAT      O27634   6.652   8.653   5.296
 9131WAT     H127635   6.703   8.607   5.369
 9131WAT     H227636   6.558   8.620   5.295
 9132WAT      O27637   2.515   8.199   0.323
 9132WAT     H127638   2.525   8.250   0.238
 9132WAT     H227639   2.586   8.129   0.328
 9133WAT      O27640   4.398   5.655   2.320
 9133WAT     H127641   4.319   5.676   2.379
 9133WAT     H227642   4.463   5.598   2.371
 9134WAT      O27643   4.227   8.829   2.767
 9134WAT     H127644   4.224   8.762   2.693
 9134WAT     H227645   4.208   8.920   2.731
 9135WAT      O27646   3.381   6.779   2.143
 9135WAT     H127647   3.452   6.834   2.098
 9135WAT     H227648   3.342   6.832   2.219
 9136WAT      O27649   6.167   1.851   1.634
 9136WAT     H127650   6.101   1.883   1.703
 9136WAT     H227651   6.118   1.824   1.552
 9137WAT      O27652   1.937   6.066   4.887
 9137WAT     H127653   2.034   6.076   4.864
 9137WAT     H227654   1.928   6.016   4.972
 9138WAT      O27655   9.667   3.227   3.159
 9138WAT     H127656   9.739   3.259   3.220
 9138WAT     H227657   9.664   3.286   3.078
 9139WAT      O27658   9.206   5.549   1.707
 9139WAT     H127659   9.187   5.620   1.775
 9139WAT     H227660   9.247   5.470   1.752
 9140WAT      O27661   2.069   6.596   5.612
 9140WAT     H127662   2.115   6.537   5.678
 9140WAT     H227663   1.974   6.567   5.602
 9141WAT      O27664   7.822   4.356   6.015
 9141WAT     H127665   7.909   4.405   6.009
 9141WAT     H227666   7.755   4.400   5.955
 9142WAT      O27667   1.085   4.709   5.139
 9142WAT     H127668   1.009   4.676   5.195
 9142WAT     H227669   1.054   4.725   5.046
 9143WAT      O27670   8.059   4.270   5.516
 9143WAT     H127671   7.995   4.250   5.441
 9143WAT     H227672   8.081   4.185   5.565
 9144WAT      O27673   6.183   9.536   9.027
 9144WAT     H127674   6.139   9.625   9.026
 9144WAT     H227675   6.176   9.495   8.936
 9145WAT      O27676   8.557   3.377   2.613
 9145WAT     H127677   8.651   3.345   2.622
 9145WAT     H227678   8.558   3.471   2.577
 9146WAT      O27679   6.226   8.847   0.288
 9146WAT     H127680   6.134   8.869   0.257
 9146WAT     H227681   6.225   8.824   0.385
 9147WAT      O27682   8.992   3.461   8.490
 9147WAT     H127683   8.982   3.472   8.589
 9147WAT     H227684   9.074   3.407   8.470
 9148WAT      O27685   4.970   4.162   2.207
 9148WAT     H127686   4.890   4.113   2.172
 9148WAT     H227687   5.048   4.099   2.213
 9149WAT      O27688   0.866   3.079   5.633
 9149WAT     H127689   0.870   3.148   5.706
 9149WAT     H227690   0.934   3.008   5.651
 9150WAT      O27691   8.974   7.914   7.708
 9150WAT     H127692   8.951   7.892   7.613
 9150WAT     H227693   9.072   7.900   7.723
 9151WAT      O27694   9.641   3.206   7.358
 9151WAT     H127695   9.604   3.242   7.272
 9151WAT     H227696   9.736   3.235   7.368
 9152WAT      O27697   5.621   6.117   9.107
 9152WAT     H127698   5.549   6.048   9.115
 9152WAT     H227699   5.600   6.179   9.031
 9153WAT      O27700   1.146   2.865   7.394
 9153WAT     H127701   1.060   2.916   7.391
 9153WAT     H227702   1.214   2.917   7.445
 9154WAT      O27703   6.575   1.191   1.404
 9154WAT     H127704   6.518   1.273   1.408
 9154WAT     H227705   6.652   1.201   1.466
 9155WAT      O27706   4.167   4.830   3.472
 9155WAT     H127707   4.190   4.865   3.381
 9155WAT     H227708   4.212   4.741   3.485
 9156WAT      O27709   4.539   6.096   0.335
 9156WAT     H127710   4.503   6.091   0.242
 9156WAT     H227711   4.636   6.121   0.331
 9157WAT      O27712   0.849   9.530   9.742
 9157WAT     H127713   0.877   9.541   9.646
 9157WAT     H227714   0.779   9.458   9.748
 9158WAT      O27715   7.065   8.660   6.264
 9158WAT     H127716   7.113   8.744   6.238
 9158WAT     H227717   7.109   8.621   6.345
 9159WAT      O27718   7.607   7.117   0.769
 9159WAT     H127719   7.571   7.025   0.781
 9159WAT     H227720   7.580   7.153   0.679
 9160WAT      O27721   0.661   9.347   9.721
 9160WAT     H127722   0.563   9.343   9.703
 9160WAT     H227723   0.689   9.266   9.773
 9161WAT      O27724   0.867   7.290   4.666
 9161WAT     H127725   0.802   7.361   4.638
 9161WAT     H227726   0.914   7.319   4.749
 9162WAT      O27727   1.166   3.608   7.920
 9162WAT     H127728   1.168   3.532   7.855
 9162WAT     H227729   1.073   3.646   7.924
 9163WAT      O27730   7.842   4.487   7.286
 9163WAT     H127731   7.920   4.546   7.265
 9163WAT     H227732   7.875   4.399   7.319
 9164WAT      O27733   9.069   9.564   6.117
 9164WAT     H127734   9.042   9.527   6.028
 9164WAT     H227735   9.121   9.648   6.104
 9165WAT      O27736   2.841   3.903   1.037
 9165WAT     H127737   2.847   3.964   1.116
 9165WAT     H227738   2.895   3.820   1.054
 9166WAT      O27739   7.649   4.606   5.293
 9166WAT     H127740   7.554   4.632   5.313
 9166WAT     H227741   7.691   4.676   5.236
 9167WAT      O27742   5.991   0.302   2.565
 9167WAT     H127743   6.072   0.337   2.519
 9167WAT     H227744   6.017   0.227   2.627
 9168WAT      O27745   9.665   7.392   7.348
 9168WAT     H127746   9.648   7.489   7.363
 9168WAT     H227747   9.736   7.382   7.278
 9169WAT      O27748   2.720   4.030   5.634
 9169WAT     H127749   2.632   4.031   5.586
 9169WAT     H227750   2.713   3.976   5.717
 9170WAT      O27751   0.349   7.676   8.717
 9170WAT     H127752   0.395   7.673   8.627
 9170WAT     H227753   0.418   7.675   8.789
 9171WAT      O27754   1.640   6.454   8.401
 9171WAT     H127755   1.732   6.437   8.364
 9171WAT     H227756   1.574   6.396   8.354
 9172WAT      O27757   7.046   6.057   1.911
 9172WAT     H127758   6.979   5.983   1.921
 9172WAT     H227759   7.028   6.128   1.979
 9173WAT      O27760   5.754   4.018   8.122
 9173WAT     H127761   5.832   3.961   8.146
 9173WAT     H227762   5.779   4.081   8.049
 9174WAT      O27763   0.261   2.741   3.866
 9174WAT     H127764   0.192   2.711   3.801
 9174WAT     H227765   0.331   2.671   3.876
 9175WAT      O27766   0.472   5.539   5.252
 9175WAT     H127767   0.572   5.539   5.245
 9175WAT     H227768   0.435   5.458   5.207
 9176WAT      O27769   7.404   2.296   9.535
 9176WAT     H127770   7.390   2.220   9.471
 9176WAT     H227771   7.364   2.272   9.624
 9177WAT      O27772   2.656   1.444   3.096
 9177WAT     H127773   2.675   1.362   3.042
 9177WAT     H227774   2.606   1.418   3.179
 9178WAT      O27775   8.297   3.387   4.279
 9178WAT     H127776   8.205   3.358   4.302
 9178WAT     H227777   8.310   3.384   4.179
 9179WAT      O27778   1.616   5.336   3.079
 9179WAT     H127779   1.678   5.389   3.137
 9179WAT     H227780   1.584   5.392   3.003
 9180WAT      O27781   0.586   8.051   7.890
 9180WAT     H127782   0.498   8.100   7.889
 9180WAT     H227783   0.650   8.099   7.951
 9181WAT      O27784   0.615   0.377   8.911
 9181WAT     H127785   0.632   0.432   8.993
 9181WAT     H227786   0.547   0.307   8.931
 9182WAT      O27787   4.612   1.108   8.992
 9182WAT     H127788   4.640   1.161   9.072
 9182WAT     H227789   4.682   1.114   8.921
 9183WAT      O27790   8.542   3.601   8.416
 9183WAT     H127791   8.596   3.658   8.353
 9183WAT     H227792   8.550   3.637   8.509
 9184WAT      O27793   5.468   3.169   7.829
 9184WAT     H127794   5.519   3.231   7.890
 9184WAT     H227795   5.468   3.206   7.736
 9185WAT      O27796   7.746   7.707   1.664
 9185WAT     H127797   7.821   7.643   1.645
 9185WAT     H227798   7.767   7.759   1.747
 9186WAT      O27799   7.041   7.458   4.715
 9186WAT     H127800   7.040   7.366   4.752
 9186WAT     H227801   7.030   7.455   4.616
 9187WAT      O27802   2.314   3.163   1.936
 9187WAT     H127803   2.397   3.183   1.987
 9187WAT     H227804   2.325   3.077   1.885
 9188WAT      O27805   7.745   1.829   0.315
 9188WAT     H127806   7.837   1.810   0.351
 9188WAT     H227807   7.677   1.805   0.384
 9189WAT      O27808   2.169   3.092   6.355
 9189WAT     H127809   2.115   3.158   6.302
 9189WAT     H227810   2.174   3.006   6.305
 9190WAT      O27811   7.632   2.724   2.977
 9190WAT     H127812   7.635   2.659   3.053
 9190WAT     H227813   7.615   2.676   2.891
 9191WAT      O27814   0.448   0.127   1.078
 9191WAT     H127815   0.508   0.127   0.998
 9191WAT     H227816   0.499   0.096   1.159
 9192WAT      O27817   2.228   5.251   8.138
 9192WAT     H127818   2.242   5.307   8.220
 9192WAT     H227819   2.241   5.155   8.161
 9193WAT      O27820   8.712   2.812   9.410
 9193WAT     H127821   8.639   2.832   9.345
 9193WAT     H227822   8.680   2.828   9.503
 9194WAT      O27823   5.227   0.669   4.709
 9194WAT     H127824   5.295   0.603   4.677
 9194WAT     H227825   5.227   0.749   4.649
 9195WAT      O27826   1.214   2.459   9.035
 9195WAT     H127827   1.223   2.360   9.019
 9195WAT     H227828   1.233   2.508   8.950
 9196WAT      O27829   4.975   4.487   6.175
 9196WAT     H127830   4.973   4.391   6.145
 9196WAT     H227831   4.982   4.547   6.096
 9197WAT      O27832   4.961   5.005   8.111
 9197WAT     H127833   4.906   5.085   8.137
 9197WAT     H227834   4.990   5.014   8.015
 9198WAT      O27835   1.986   0.477   5.276
 9198WAT     H127836   2.050   0.484   5.199
 9198WAT     H227837   1.919   0.551   5.270
 9199WAT      O27838   8.851   0.713   4.191
 9199WAT     H127839   8.944   0.699   4.157
 9199WAT     H227840   8.853   0.779   4.266
 9200WAT      O27841   6.131   7.206   7.921
 9200WAT     H127842   6.162   7.157   8.002
 9200WAT     H227843   6.055   7.267   7.945
 9201WAT      O27844   8.489   5.423   1.845
 9201WAT     H127845   8.524   5.492   1.781
 9201WAT     H227846   8.515   5.447   1.938
 9202WAT      O27847   7.695   0.188   4.994
 9202WAT     H127848   7.701   0.287   5.012
 9202WAT     H227849   7.668   0.173   4.900
 9203WAT      O27850   2.473   6.720   3.130
 9203WAT     H127851   2.458   6.708   3.229
 9203WAT     H227852   2.489   6.631   3.087
 9204WAT      O27853   7.932   4.465   4.004
 9204WAT     H127854   8.000   4.473   3.931
 9204WAT     H227855   7.858   4.406   3.974
 9205WAT      O27856   0.706   3.104   3.291
 9205WAT     H127857   0.713   3.013   3.332
 9205WAT     H227858   0.794   3.130   3.252
 9206WAT      O27859   2.804   2.218   5.822
 9206WAT     H127860   2.870   2.289   5.846
 9206WAT     H227861   2.820   2.188   5.728
 9207WAT      O27862   7.917   6.208   8.150
 9207WAT     H127863   7.963   6.179   8.234
 9207WAT     H227864   7.963   6.166   8.072
 9208WAT      O27865   5.503   0.154   4.707
 9208WAT     H127866   5.566   0.180   4.634
 9208WAT     H227867   5.415   0.200   4.694
 9209WAT      O27868   9.208   7.643   6.894
 9209WAT     H127869   9.280   7.696   6.848
 9209WAT     H227870   9.148   7.602   6.825
 9210WAT      O27871   8.522   3.236   7.179
 9210WAT     H127872   8.508   3.217   7.082
 9210WAT     H227873   8.455   3.186   7.233
 9211WAT      O27874   0.654   4.541   8.978
 9211WAT     H127875   0.620   4.498   9.061
 9211WAT     H227876   0.752   4.558   8.987
 9212WAT      O27877   7.309   4.562   0.924
 9212WAT     H127878   7.286   4.644   0.976
 9212WAT     H227879   7.368   4.503   0.979
 9213WAT      O27880   8.437   5.093   6.286
 9213WAT     H127881   8.352   5.059   6.245
 9213WAT     H227882   8.470   5.027   6.354
 9214WAT      O27883   2.092   4.230   9.118
 9214WAT     H127884   2.011   4.220   9.060
 9214WAT     H227885   2.119   4.326   9.121
 9215WAT      O27886   2.883   9.808   4.911
 9215WAT     H127887   2.864   9.899   4.874
 9215WAT     H227888   2.890   9.743   4.836
 9216WAT      O27889   7.112   4.373   4.246
 9216WAT     H127890   7.201   4.416   4.231
 9216WAT     H227891   7.087   4.381   4.343
 9217WAT      O27892   6.483   5.421   1.220
 9217WAT     H127893   6.396   5.395   1.261
 9217WAT     H227894   6.529   5.339   1.185
 9218WAT      O27895   8.521   4.095   0.881
 9218WAT     H127896   8.479   4.004   0.882
 9218WAT     H227897   8.459   4.160   0.837
 9219WAT      O27898   9.045   8.711   6.116
 9219WAT     H127899   9.044   8.611   6.115
 9219WAT     H227900   8.984   8.744   6.188
 9220WAT      O27901   3.457   7.779   4.147
 9220WAT     H127902   3.404   7.850   4.101
 9220WAT     H227903   3.555   7.800   4.140
 9221WAT      O27904   7.710   9.162   7.717
 9221WAT     H127905   7.613   9.138   7.710
 9221WAT     H227906   7.747   9.178   7.626
 9222WAT      O27907   1.612   4.437   7.091
 9222WAT     H127908   1.604   4.343   7.059
 9222WAT     H227909   1.564   4.446   7.179
 9223WAT      O27910   8.563   0.155   4.459
 9223WAT     H127911   8.616   0.237   4.437
 9223WAT     H227912   8.503   0.174   4.536
 9224WAT      O27913   7.248   3.748   2.245
 9224WAT     H127914   7.305   3.672   2.275
 9224WAT     H227915   7.207   3.792   2.325
 9225WAT      O27916   1.291   5.807   0.219
 9225WAT     H127917   1.334   5.872   0.282
 9225WAT     H227918   1.362   5.758   0.169
 9226WAT      O27919   9.235   3.602   5.152
 9226WAT     H127920   9.249   3.632   5.247
 9226WAT     H227921   9.320   3.614   5.101
 9227WAT      O27922   9.811   7.963   9.547
 9227WAT     H127923   9.776   8.018   9.471
 9227WAT     H227924   9.842   8.023   9.621
 9228WAT      O27925   3.292   8.996   1.680
 9228WAT     H127926   3.206   9.007   1.730
 9228WAT     H227927   3.368   8.993   1.746
 9229WAT      O27928   8.415   1.516   6.337
 9229WAT     H127929   8.406   1.613   6.315
 9229WAT     H227930   8.461   1.469   6.261
 9230WAT      O27931   1.661   0.938   0.707
 9230WAT     H127932   1.696   1.024   0.672
 9230WAT     H227933   1.561   0.940   0.710
 9231WAT      O27934   4.870   6.240   2.766
 9231WAT     H127935   4.970   6.244   2.759
 9231WAT     H227936   4.839   6.309   2.831
 9232WAT      O27937   1.967   1.597   8.604
 9232WAT     H127938   1.872   1.626   8.594
 9232WAT     H227939   2.002   1.627   8.692
 9233WAT      O27940   3.783   0.243   3.988
 9233WAT     H127941   3.791   0.227   4.087
 9233WAT     H227942   3.852   0.309   3.960
 9234WAT      O27943   1.893   0.468   9.687
 9234WAT     H127944   1.944   0.547   9.651
 9234WAT     H227945   1.875   0.482   9.784
 9235WAT      O27946   1.268   6.217   8.889
 9235WAT     H127947   1.279   6.314   8.910
 9235WAT     H227948   1.191   6.204   8.827
 9236WAT      O27949   3.106   1.662   5.692
 9236WAT     H127950   3.092   1.753   5.731
 9236WAT     H227951   3.063   1.593   5.750
 9237WAT      O27952   2.032   2.521   3.216
 9237WAT     H127953   1.995   2.548   3.127
 9237WAT     H227954   2.035   2.601   3.276
 9238WAT      O27955   0.832   2.470   9.416
 9238WAT     H127956   0.791   2.475   9.507
 9238WAT     H227957   0.768   2.507   9.348
 9239WAT      O27958   3.413   0.416   8.771
 9239WAT     H127959   3.467   0.336   8.746
 9239WAT     H227960   3.358   0.395   8.852
 9240WAT      O27961   1.329   7.653   3.118
 9240WAT     H127962   1.283   7.595   3.050
 9240WAT     H227963   1.280   7.648   3.205
 9241WAT      O27964   4.541   3.768   3.747
 9241WAT     H127965   4.551   3.836   3.820
 9241WAT     H227966   4.582   3.682   3.777
 9242WAT      O27967   6.605   2.990   7.731
 9242WAT     H127968   6.533   3.026   7.672
 9242WAT     H227969   6.689   2.978   7.678
 9243WAT      O27970   9.875   8.830   1.515
 9243WAT     H127971   9.942   8.873   1.576
 9243WAT     H227972   9.840   8.747   1.558
 9244WAT      O27973   5.737   5.192   0.803
 9244WAT     H127974   5.672   5.158   0.735
 9244WAT     H227975   5.704   5.169   0.895
 9245WAT      O27976   1.938   6.535   9.013
 9245WAT     H127977   1.870   6.596   8.972
 9245WAT     H227978   1.941   6.551   9.112
 9246WAT      O27979   2.559   6.431   5.822
 9246WAT     H127980   2.539   6.414   5.726
 9246WAT     H227981   2.633   6.371   5.852
 9247WAT      O27982   0.456   8.283   8.563
 9247WAT     H127983   0.552   8.255   8.563
 9247WAT     H227984   0.404   8.223   8.502
 9248WAT      O27985   3.107   6.009   2.630
 9248WAT     H127986   3.100   5.928   2.571
 9248WAT     H227987   3.044   6.079   2.596
 9249WAT      O27988   8.942   8.839   7.537
 9249WAT     H127989   8.873   8.789   7.485
 9249WAT     H227990   8.901   8.875   7.621
 9250WAT      O27991   7.017   0.839   5.401
 9250WAT     H127992   6.981   0.840   5.494
 9250WAT     H227993   7.103   0.891   5.399
 9251WAT      O27994   8.140   1.452   7.045
 9251WAT     H127995   8.145   1.486   7.139
 9251WAT     H227996   8.215   1.388   7.029
 9252WAT      O27997   7.625   8.480   5.439
 9252WAT     H127998   7.674   8.448   5.520
 9252WAT     H227999   7.686   8.473   5.360
 9253WAT      O28000   4.471   8.087   3.547
 9253WAT     H128001   4.376   8.058   3.537
 9253WAT     H228002   4.483   8.177   3.504
 9254WAT      O28003   1.651   0.958   2.256
 9254WAT     H128004   1.706   0.972   2.338
 9254WAT     H228005   1.612   0.865   2.257
 9255WAT      O28006   5.820   9.677   5.790
 9255WAT     H128007   5.759   9.598   5.801
 9255WAT     H228008   5.772   9.760   5.816
 9256WAT      O28009   1.871   3.624   5.741
 9256WAT     H128010   1.816   3.676   5.675
 9256WAT     H228011   1.919   3.687   5.802
 9257WAT      O28012   5.413   2.175   9.134
 9257WAT     H128013   5.371   2.167   9.044
 9257WAT     H228014   5.501   2.129   9.134
 9258WAT      O28015   3.229   1.622   7.111
 9258WAT     H128016   3.252   1.525   7.118
 9258WAT     H228017   3.240   1.665   7.200
 9259WAT      O28018   4.899   9.308   3.162
 9259WAT     H128019   4.817   9.254   3.180
 9259WAT     H228020   4.978   9.261   3.200
 9260WAT      O28021   4.632   3.564   5.447
 9260WAT     H128022   4.674   3.539   5.533
 9260WAT     H228023   4.540   3.600   5.464
 9261WAT      O28024   8.314   5.859   4.529
 9261WAT     H128025   8.325   5.765   4.496
 9261WAT     H228026   8.285   5.857   4.625
 9262WAT      O28027   2.522   4.207   2.916
 9262WAT     H128028   2.590   4.246   2.856
 9262WAT     H228029   2.482   4.279   2.973
 9263WAT      O28030   7.468   9.742   1.373
 9263WAT     H128031   7.406   9.665   1.389
 9263WAT     H228032   7.450   9.782   1.283
 9264WAT      O28033   1.618   4.248   3.828
 9264WAT     H128034   1.578   4.237   3.738
 9264WAT     H228035   1.715   4.223   3.825
 9265WAT      O28036   8.977   8.146   0.890
 9265WAT     H128037   8.962   8.238   0.854
 9265WAT     H228038   8.894   8.091   0.877
 9266WAT      O28039   1.655   1.675   0.939
 9266WAT     H128040   1.694   1.716   0.857
 9266WAT     H228041   1.708   1.703   1.019
 9267WAT      O28042   6.907   5.978   4.019
 9267WAT     H128043   6.963   5.954   3.940
 9267WAT     H228044   6.862   6.066   4.002
 9268WAT      O28045   2.463   4.617   9.597
 9268WAT     H128046   2.489   4.523   9.575
 9268WAT     H228047   2.365   4.622   9.613
 9269WAT      O28048   9.300   3.794   2.449
 9269WAT     H128049   9.371   3.798   2.378
 9269WAT     H228050   9.303   3.704   2.493
 9270WAT      O28051   5.800   0.491   0.302
 9270WAT     H128052   5.796   0.393   0.319
 9270WAT     H228053   5.880   0.530   0.349
 9271WAT      O28054   8.044   3.967   5.181
 9271WAT     H128055   8.003   3.884   5.144
 9271WAT     H228056   8.108   3.943   5.253
 9272WAT      O28057   4.869   7.124   6.033
 9272WAT     H128058   4.815   7.046   6.065
 9272WAT     H228059   4.966   7.104   6.047
 9273WAT      O28060   7.581   2.874   2.523
 9273WAT     H128061   7.575   2.969   2.491
 9273WAT     H228062   7.667   2.862   2.573
 9274WAT      O28063   3.135   8.580   6.217
 9274WAT     H128064   3.076   8.527   6.155
 9274WAT     H228065   3.209   8.522   6.250
 9275WAT      O28066   5.963   0.796   6.169
 9275WAT     H128067   6.025   0.869   6.198
 9275WAT     H228068   6.013   0.729   6.115
 9276WAT      O28069   3.324   5.997   8.005
 9276WAT     H128070   3.283   6.088   8.005
 9276WAT     H228071   3.252   5.929   7.990
 9277WAT      O28072   7.025   2.986   7.903
 9277WAT     H128073   7.066   3.077   7.889
 9277WAT     H228074   6.945   2.995   7.962
 9278WAT      O28075   6.858   7.534   1.508
 9278WAT     H128076   6.822   7.572   1.593
 9278WAT     H228077   6.783   7.492   1.457
 9279WAT      O28078   6.444   3.497   9.062
 9279WAT     H128079   6.396   3.410   9.053
 9279WAT     H228080   6.411   3.545   9.143
 9280WAT      O28081   4.538   2.825   3.337
 9280WAT     H128082   4.540   2.922   3.362
 9280WAT     H228083   4.455   2.783   3.374
 9281WAT      O28084   6.408   3.617   0.818
 9281WAT     H128085   6.395   3.531   0.868
 9281WAT     H228086   6.482   3.606   0.752
 9282WAT      O28087   1.978   3.384   7.495
 9282WAT     H128088   2.032   3.328   7.431
 9282WAT     H228089   1.922   3.448   7.443
 9283WAT      O28090   7.288   6.046   9.307
 9283WAT     H128091   7.314   6.058   9.403
 9283WAT     H228092   7.193   6.017   9.301
 9284WAT      O28093   3.518   7.182   0.864
 9284WAT     H128094   3.518   7.196   0.765
 9284WAT     H228095   3.569   7.098   0.886
 9285WAT      O28096   3.946   5.338   0.184
 9285WAT     H128097   3.879   5.295   0.124
 9285WAT     H228098   4.038   5.305   0.162
 9286WAT      O28099   7.085   1.837   7.315
 9286WAT     H128100   7.062   1.912   7.377
 9286WAT     H228101   7.001   1.796   7.280
 9287WAT      O28102   3.523   2.196   6.676
 9287WAT     H128103   3.554   2.280   6.631
 9287WAT     H228104   3.423   2.192   6.673
 9288WAT      O28105   2.535   1.138   2.791
 9288WAT     H128106   2.489   1.068   2.845
 9288WAT     H228107   2.596   1.191   2.849
 9289WAT      O28108   3.810   2.124   2.989
 9289WAT     H128109   3.724   2.129   3.040
 9289WAT     H228110   3.807   2.046   2.926
 9290WAT      O28111   5.693   7.270   0.870
 9290WAT     H128112   5.617   7.287   0.932
 9290WAT     H228113   5.778   7.306   0.909
 9291WAT      O28114   3.507   5.043   4.296
 9291WAT     H128115   3.598   5.028   4.258
 9291WAT     H228116   3.500   5.137   4.329
 9292WAT      O28117   2.687   5.037   5.073
 9292WAT     H128118   2.656   5.033   5.169
 9292WAT     H228119   2.776   4.993   5.065
 9293WAT      O28120   8.764   8.378   2.540
 9293WAT     H128121   8.789   8.430   2.622
 9293WAT     H228122   8.708   8.435   2.480
 9294WAT      O28123   1.135   2.623   8.001
 9294WAT     H128124   1.084   2.579   8.074
 9294WAT     H228125   1.203   2.560   7.964
 9295WAT      O28126   6.634   8.496   3.289
 9295WAT     H128127   6.630   8.466   3.193
 9295WAT     H228128   6.612   8.418   3.348
 9296WAT      O28129   3.531   6.962   7.809
 9296WAT     H128130   3.602   6.893   7.821
 9296WAT     H228131   3.511   6.973   7.711
 9297WAT      O28132   9.331   4.568   1.895
 9297WAT     H128133   9.428   4.579   1.917
 9297WAT     H228134   9.317   4.484   1.843
 9298WAT      O28135   3.032   8.466   1.400
 9298WAT     H128136   3.097   8.492   1.328
 9298WAT     H228137   2.945   8.512   1.383
 9299WAT      O28138   2.766   1.917   5.706
 9299WAT     H128139   2.806   1.986   5.646
 9299WAT     H228140   2.698   1.960   5.765
 9300WAT      O28141   5.064   9.119   2.414
 9300WAT     H128142   5.006   9.187   2.459
 9300WAT     H228143   5.150   9.110   2.465
 9301WAT      O28144   4.673   2.873   9.406
 9301WAT     H128145   4.623   2.933   9.468
 9301WAT     H228146   4.613   2.843   9.332
 9302WAT      O28147   1.217   6.170   1.070
 9302WAT     H128148   1.171   6.232   1.133
 9302WAT     H228149   1.269   6.102   1.121
 9303WAT      O28150   3.243   3.940   5.037
 9303WAT     H128151   3.258   4.034   5.006
 9303WAT     H228152   3.180   3.894   4.975
 9304WAT      O28153   7.953   8.428   6.622
 9304WAT     H128154   7.961   8.507   6.682
 9304WAT     H228155   7.905   8.355   6.670
 9305WAT      O28156   2.528   2.833   4.570
 9305WAT     H128157   2.560   2.808   4.661
 9305WAT     H228158   2.536   2.754   4.509
 9306WAT      O28159   1.050   0.997   4.727
 9306WAT     H128160   1.112   0.928   4.765
 9306WAT     H228161   1.034   1.068   4.794
 9307WAT      O28162   6.738   6.056   6.091
 9307WAT     H128163   6.718   5.966   6.130
 9307WAT     H228164   6.775   6.115   6.163
 9308WAT      O28165   4.496   0.952   5.906
 9308WAT     H128166   4.402   0.985   5.895
 9308WAT     H228167   4.495   0.853   5.919
 9309WAT      O28168   6.950   2.777   7.366
 9309WAT     H128169   6.989   2.710   7.302
 9309WAT     H228170   7.015   2.850   7.383
 9310WAT      O28171   7.744   4.098   8.591
 9310WAT     H128172   7.655   4.051   8.587
 9310WAT     H228173   7.815   4.033   8.616
 9311WAT      O28174   9.344   3.534   6.752
 9311WAT     H128175   9.266   3.473   6.766
 9311WAT     H228176   9.313   3.629   6.756
 9312WAT      O28177   5.645   8.366   8.733
 9312WAT     H128178   5.643   8.306   8.652
 9312WAT     H228179   5.734   8.411   8.738
 9313WAT      O28180   3.329   9.705   5.029
 9313WAT     H128181   3.359   9.798   5.009
 9313WAT     H228182   3.295   9.663   4.945
 9314WAT      O28183   0.227   6.319   2.570
 9314WAT     H128184   0.288   6.391   2.604
 9314WAT     H228185   0.264   6.230   2.595
 9315WAT      O28186   9.651   7.627   0.489
 9315WAT     H128187   9.688   7.706   0.439
 9315WAT     H228188   9.727   7.569   0.518
 9316WAT      O28189   7.859   0.861   3.809
 9316WAT     H128190   7.915   0.898   3.883
 9316WAT     H228191   7.762   0.877   3.829
 9317WAT      O28192   9.309   3.702   7.053
 9317WAT     H128193   9.378   3.765   7.090
 9317WAT     H228194   9.218   3.742   7.066
 9318WAT      O28195   7.004   3.724   4.739
 9318WAT     H128196   7.031   3.807   4.788
 9318WAT     H228197   6.905   3.725   4.724
 9319WAT      O28198   7.114   6.198   2.438
 9319WAT     H128199   7.196   6.142   2.434
 9319WAT     H228200   7.044   6.158   2.378
 9320WAT      O28201   3.868   5.406   4.239
 9320WAT     H128202   3.865   5.339   4.314
 9320WAT     H228203   3.776   5.441   4.223
 9321WAT      O28204   0.219   0.620   1.378
 9321WAT     H128205   0.288   0.680   1.337
 9321WAT     H228206   0.195   0.654   1.468
 9322WAT      O28207   2.501   5.435   9.025
 9322WAT     H128208   2.600   5.427   9.008
 9322WAT     H228209   2.459   5.487   8.951
 9323WAT      O28210   0.734   9.409   7.042
 9323WAT     H128211   0.749   9.403   6.943
 9323WAT     H228212   0.813   9.371   7.090
 9324WAT      O28213   0.134   2.123   6.386
 9324WAT     H128214   0.143   2.168   6.297
 9324WAT     H228215   0.143   2.024   6.375
 9325WAT      O28216   0.261   7.135   9.582
 9325WAT     H128217   0.180   7.077   9.584
 9325WAT     H228218   0.280   7.163   9.487
 9326WAT      O28219   4.128   7.367   2.454
 9326WAT     H128220   4.225   7.377   2.477
 9326WAT     H228221   4.074   7.423   2.517
 9327WAT      O28222   8.050   4.995   3.819
 9327WAT     H128223   8.086   5.085   3.844
 9327WAT     H228224   8.125   4.929   3.813
 9328WAT      O28225   1.213   7.024   6.779
 9328WAT     H128226   1.312   7.023   6.795
 9328WAT     H228227   1.195   6.998   6.684
 9329WAT      O28228   3.246   3.398   6.229
 9329WAT     H128229   3.188   3.416   6.149
 9329WAT     H228230   3.189   3.387   6.310
 9330WAT      O28231   2.777   2.939   1.961
 9330WAT     H128232   2.766   2.860   2.021
 9330WAT     H228233   2.789   3.022   2.016
 9331WAT      O28234   9.758   2.423   3.048
 9331WAT     H128235   9.721   2.459   2.963
 9331WAT     H228236   9.846   2.468   3.068
 9332WAT      O28237   5.678   0.721   1.471
 9332WAT     H128238   5.758   0.667   1.442
 9332WAT     H228239   5.691   0.816   1.444
 9333WAT      O28240   6.101   7.799   5.652
 9333WAT     H128241   6.011   7.765   5.681
 9333WAT     H228242   6.162   7.803   5.731
 9334WAT      O28243   4.341   4.004   9.707
 9334WAT     H128244   4.412   4.063   9.669
 9334WAT     H228245   4.370   3.973   9.798
 9335WAT      O28246   1.915   8.031   7.416
 9335WAT     H128247   1.926   8.114   7.361
 9335WAT     H228248   1.907   8.055   7.513
 9336WAT      O28249   9.606   5.330   1.079
 9336WAT     H128250   9.556   5.299   0.998
 9336WAT     H228251   9.655   5.415   1.057
 9337WAT      O28252   3.884   4.771   1.526
 9337WAT     H128253   3.844   4.817   1.447
 9337WAT     H228254   3.820   4.701   1.559
 9338WAT      O28255   1.005   1.969   4.056
 9338WAT     H128256   1.088   1.945   4.105
 9338WAT     H228257   1.000   2.069   4.046
 9339WAT      O28258   0.475   2.653   9.150
 9339WAT     H128259   0.398   2.714   9.133
 9339WAT     H228260   0.558   2.708   9.167
 9340WAT      O28261   9.214   5.336   8.089
 9340WAT     H128262   9.243   5.291   8.174
 9340WAT     H228263   9.121   5.310   8.067
 9341WAT      O28264   7.208   7.761   5.070
 9341WAT     H128265   7.204   7.694   4.996
 9341WAT     H228266   7.193   7.853   5.032
 9342WAT      O28267   0.568   0.239   2.945
 9342WAT     H128268   0.630   0.163   2.967
 9342WAT     H228269   0.605   0.324   2.983
 9343WAT      O28270   4.702   2.597   7.194
 9343WAT     H128271   4.653   2.667   7.141
 9343WAT     H228272   4.695   2.618   7.291
 9344WAT      O28273   3.995   2.511   8.797
 9344WAT     H128274   4.011   2.605   8.825
 9344WAT     H228275   3.963   2.458   8.875
 9345WAT      O28276   5.339   2.411   5.393
 9345WAT     H128277   5.419   2.408   5.453
 9345WAT     H228278   5.366   2.388   5.300
 9346WAT      O28279   5.647   6.739   0.186
 9346WAT     H128280   5.656   6.825   0.236
 9346WAT     H228281   5.653   6.662   0.249
 9347WAT      O28282   1.426   3.141   3.101
 9347WAT     H128283   1.349   3.098   3.149
 9347WAT     H228284   1.482   3.191   3.167
 9348WAT      O28285   7.707   4.659   0.964
 9348WAT     H128286   7.702   4.572   1.012
 9348WAT     H228287   7.803   4.680   0.943
 9349WAT      O28288   7.718   6.488   4.218
 9349WAT     H128289   7.760   6.466   4.306
 9349WAT     H228290   7.696   6.585   4.215
 9350WAT      O28291   3.587   0.105   2.305
 9350WAT     H128292   3.598   0.006   2.300
 9350WAT     H228293   3.510   0.134   2.249
 9351WAT      O28294   3.010   6.979   8.344
 9351WAT     H128295   2.924   6.937   8.374
 9351WAT     H228296   3.045   7.039   8.415
 9352WAT      O28297   0.582   8.028   7.604
 9352WAT     H128298   0.483   8.015   7.608
 9352WAT     H228299   0.616   8.054   7.694
 9353WAT      O28300   3.084   5.034   2.635
 9353WAT     H128301   3.030   5.065   2.557
 9353WAT     H228302   3.078   5.101   2.709
 9354WAT      O28303   5.789   0.234   1.783
 9354WAT     H128304   5.848   0.160   1.753
 9354WAT     H228305   5.693   0.208   1.771
 9355WAT      O28306   1.834   6.177   2.961
 9355WAT     H128307   1.894   6.255   2.946
 9355WAT     H228308   1.792   6.150   2.874
 9356WAT      O28309   5.304   0.633   2.676
 9356WAT     H128310   5.209   0.614   2.701
 9356WAT     H228311   5.357   0.548   2.682
 9357WAT      O28312   7.125   1.791   8.197
 9357WAT     H128313   7.089   1.848   8.123
 9357WAT     H228314   7.154   1.703   8.161
 9358WAT      O28315   5.477   2.362   6.918
 9358WAT     H128316   5.502   2.457   6.935
 9358WAT     H228317   5.513   2.305   6.992
 9359WAT      O28318   0.237   9.005   7.943
 9359WAT     H128319   0.227   9.054   7.856
 9359WAT     H228320   0.334   8.993   7.963
 9360WAT      O28321   6.028   6.288   7.676
 9360WAT     H128322   6.050   6.325   7.586
 9360WAT     H228323   6.106   6.301   7.738
 9361WAT      O28324   9.213   2.397   8.848
 9361WAT     H128325   9.151   2.320   8.865
 9361WAT     H228326   9.190   2.473   8.909
 9362WAT      O28327   7.755   7.665   6.284
 9362WAT     H128328   7.672   7.624   6.323
 9362WAT     H228329   7.783   7.744   6.338
 9363WAT      O28330   9.418   4.035   5.575
 9363WAT     H128331   9.331   4.002   5.539
 9363WAT     H228332   9.433   3.998   5.666
 9364WAT      O28333   0.247   1.377   6.958
 9364WAT     H128334   0.240   1.471   6.993
 9364WAT     H228335   0.171   1.323   6.992
 9365WAT      O28336   3.600   5.949   1.003
 9365WAT     H128337   3.550   5.865   1.023
 9365WAT     H228338   3.564   6.024   1.059
 9366WAT      O28339   0.906   2.999   7.467
 9366WAT     H128340   0.912   3.098   7.477
 9366WAT     H228341   0.870   2.959   7.551
 9367WAT      O28342   8.870   5.452   1.970
 9367WAT     H128343   8.823   5.455   1.881
 9367WAT     H228344   8.821   5.508   2.036
 9368WAT      O28345   7.819   3.269   8.527
 9368WAT     H128346   7.791   3.269   8.623
 9368WAT     H228347   7.908   3.314   8.518
 9369WAT      O28348   9.774   7.168   2.543
 9369WAT     H128349   9.710   7.130   2.610
 9369WAT     H228350   9.823   7.094   2.497
 9370WAT      O28351   4.711   2.582   4.016
 9370WAT     H128352   4.673   2.527   4.091
 9370WAT     H228353   4.665   2.670   4.013
 9371WAT      O28354   7.877   7.598   4.659
 9371WAT     H128355   7.819   7.640   4.728
 9371WAT     H228356   7.957   7.656   4.643
 9372WAT      O28357   5.503   2.492   2.556
 9372WAT     H128358   5.594   2.534   2.564
 9372WAT     H228359   5.513   2.394   2.543
 9373WAT      O28360   9.307   9.180   0.423
 9373WAT     H128361   9.267   9.088   0.425
 9373WAT     H228362   9.312   9.212   0.328
 9374WAT      O28363   4.352   0.378   4.388
 9374WAT     H128364   4.416   0.454   4.395
 9374WAT     H228365   4.401   0.291   4.399
 9375WAT      O28366   1.678   3.448   4.635
 9375WAT     H128367   1.621   3.455   4.717
 9375WAT     H228368   1.744   3.374   4.647
 9376WAT      O28369   7.344   6.254   2.714
 9376WAT     H128370   7.402   6.184   2.755
 9376WAT     H228371   7.251   6.244   2.750
 9377WAT      O28372   0.918   9.816   7.962
 9377WAT     H128373   0.854   9.880   8.005
 9377WAT     H228374   1.009   9.828   8.002
 9378WAT      O28375   6.901   5.112   0.196
 9378WAT     H128376   6.882   5.170   0.117
 9378WAT     H228377   6.953   5.163   0.264
 9379WAT      O28378   0.728   6.474   5.603
 9379WAT     H128379   0.750   6.379   5.581
 9379WAT     H228380   0.629   6.485   5.613
 9380WAT      O28381   5.634   9.095   8.107
 9380WAT     H128382   5.646   9.086   8.008
 9380WAT     H228383   5.538   9.113   8.127
 9381WAT      O28384   6.684   3.137   7.161
 9381WAT     H128385   6.606   3.149   7.100
 9381WAT     H228386   6.746   3.215   7.153
 9382WAT      O28387   8.819   7.651   3.185
 9382WAT     H128388   8.872   7.570   3.162
 9382WAT     H228389   8.830   7.671   3.283
 9383WAT      O28390   8.156   4.445   6.448
 9383WAT     H128391   8.125   4.521   6.505
 9383WAT     H228392   8.094   4.367   6.461
 9384WAT      O28393   9.624   1.496   4.712
 9384WAT     H128394   9.600   1.591   4.691
 9384WAT     H228395   9.650   1.449   4.628
 9385WAT      O28396   7.785   6.607   5.778
 9385WAT     H128397   7.763   6.645   5.688
 9385WAT     H228398   7.852   6.534   5.768
 9386WAT      O28399   7.790   0.202   5.429
 9386WAT     H128400   7.771   0.296   5.400
 9386WAT     H228401   7.783   0.141   5.350
 9387WAT      O28402   9.786   4.250   9.538
 9387WAT     H128403   9.737   4.247   9.625
 9387WAT     H228404   9.884   4.238   9.555
 9388WAT      O28405   8.820   5.189   5.720
 9388WAT     H128406   8.810   5.181   5.620
 9388WAT     H228407   8.780   5.109   5.764
 9389WAT      O28408   9.583   2.808   2.527
 9389WAT     H128409   9.645   2.816   2.604
 9389WAT     H228410   9.488   2.809   2.560
 9390WAT      O28411   1.798   1.335   0.301
 9390WAT     H128412   1.821   1.338   0.203
 9390WAT     H228413   1.863   1.391   0.352
 9391WAT      O28414   2.450   0.150   6.319
 9391WAT     H128415   2.450   0.234   6.265
 9391WAT     H228416   2.504   0.080   6.273
 9392WAT      O28417   8.097   4.631   1.327
 9392WAT     H128418   8.178   4.667   1.279
 9392WAT     H228419   8.081   4.685   1.409
 9393WAT      O28420   3.623   7.163   9.232
 9393WAT     H128421   3.620   7.098   9.308
 9393WAT     H228422   3.625   7.256   9.269
 9394WAT      O28423   6.539   7.185   7.163
 9394WAT     H128424   6.549   7.255   7.092
 9394WAT     H228425   6.629   7.150   7.188
 9395WAT      O28426   7.974   5.271   1.205
 9395WAT     H128427   8.055   5.213   1.215
 9395WAT     H228428   7.969   5.306   1.111
 9396WAT      O28429   1.209   4.729   7.512
 9396WAT     H128430   1.141   4.757   7.444
 9396WAT     H228431   1.301   4.748   7.477
 9397WAT      O28432   8.950   7.115   2.432
 9397WAT     H128433   8.942   7.023   2.472
 9397WAT     H228434   9.017   7.168   2.483
 9398WAT      O28435   3.489   2.651   6.337
 9398WAT     H128436   3.404   2.704   6.335
 9398WAT     H228437   3.472   2.561   6.297
 9399WAT      O28438   3.681   4.687   7.604
 9399WAT     H128439   3.628   4.770   7.584
 9399WAT     H228440   3.709   4.687   7.700
 9400WAT      O28441   6.435   8.489   9.840
 9400WAT     H128442   6.369   8.511   9.912
 9400WAT     H228443   6.401   8.412   9.786
 9401WAT      O28444   3.522   9.668   5.200
 9401WAT     H128445   3.527   9.740   5.269
 9401WAT     H228446   3.436   9.675   5.151
 9402WAT      O28447   7.350   5.287   8.352
 9402WAT     H128448   7.416   5.259   8.422
 9402WAT     H228449   7.284   5.350   8.392
 9403WAT      O28450   2.431   0.245   9.849
 9403WAT     H128451   2.424   0.328   9.904
 9403WAT     H228452   2.527   0.221   9.838
 9404WAT      O28453   2.006   5.853   0.301
 9404WAT     H128454   2.074   5.925   0.312
 9404WAT     H228455   2.050   5.768   0.274
 9405WAT      O28456   1.354   4.188   3.249
 9405WAT     H128457   1.431   4.243   3.282
 9405WAT     H228458   1.389   4.109   3.199
 9406WAT      O28459   2.664   3.671   8.072
 9406WAT     H128460   2.571   3.667   8.107
 9406WAT     H228461   2.676   3.755   8.019
 9407WAT      O28462   2.562   0.881   0.708
 9407WAT     H128463   2.491   0.947   0.682
 9407WAT     H228464   2.520   0.796   0.736
 9408WAT      O28465   4.316   6.054   6.679
 9408WAT     H128466   4.336   6.122   6.608
 9408WAT     H228467   4.354   5.966   6.653
 9409WAT      O28468   9.686   1.588   9.111
 9409WAT     H128469   9.654   1.494   9.126
 9409WAT     H228470   9.641   1.626   9.031
 9410WAT      O28471   4.629   0.869   3.517
 9410WAT     H128472   4.664   0.960   3.495
 9410WAT     H228473   4.648   0.848   3.613
 9411WAT      O28474   1.674   5.533   7.883
 9411WAT     H128475   1.613   5.467   7.928
 9411WAT     H228476   1.754   5.547   7.940
 9412WAT      O28477   1.799   3.197   2.397
 9412WAT     H128478   1.862   3.122   2.417
 9412WAT     H228479   1.754   3.182   2.309
 9413WAT      O28480   2.655   7.960   9.888
 9413WAT     H128481   2.731   7.895   9.893
 9413WAT     H228482   2.615   7.957   9.797
 9414WAT      O28483   3.162   2.178   3.875
 9414WAT     H128484   3.125   2.270   3.883
 9414WAT     H228485   3.209   2.168   3.787
 9415WAT      O28486   3.024   0.405   2.669
 9415WAT     H128487   3.058   0.441   2.583
 9415WAT     H228488   2.924   0.415   2.672
 9416WAT      O28489   6.078   8.642   3.954
 9416WAT     H128490   6.032   8.677   3.872
 9416WAT     H228491   6.167   8.687   3.964
 9417WAT      O28492   3.264   7.125   8.793
 9417WAT     H128493   3.186   7.079   8.834
 9417WAT     H228494   3.327   7.156   8.864
 9418WAT      O28495   7.010   7.136   9.222
 9418WAT     H128496   6.912   7.147   9.208
 9418WAT     H228497   7.057   7.141   9.133
 9419WAT      O28498   7.011   0.654   6.790
 9419WAT     H128499   6.997   0.751   6.808
 9419WAT     H228500   7.104   0.640   6.755
 9420WAT      O28501   0.901   8.563   9.850
 9420WAT     H128502   0.984   8.545   9.903
 9420WAT     H228503   0.920   8.632   9.781
 9421WAT      O28504   4.541   6.597   2.203
 9421WAT     H128505   4.583   6.557   2.122
 9421WAT     H228506   4.612   6.621   2.269
 9422WAT      O28507   9.502   1.618   8.691
 9422WAT     H128508   9.491   1.523   8.717
 9422WAT     H228509   9.483   1.629   8.593
 9423WAT      O28510   7.372   1.047   1.549
 9423WAT     H128511   7.311   1.062   1.626
 9423WAT     H228512   7.327   0.991   1.480
 9424WAT      O28513   3.152   1.265   0.307
 9424WAT     H128514   3.091   1.282   0.230
 9424WAT     H228515   3.101   1.277   0.393
 9425WAT      O28516   9.607   1.105   1.658
 9425WAT     H128517   9.527   1.058   1.622
 9425WAT     H228518   9.577   1.178   1.720
 9426WAT      O28519   5.982   6.615   9.132
 9426WAT     H128520   6.056   6.606   9.199
 9426WAT     H228521   5.965   6.712   9.114
 9427WAT      O28522   6.755   1.956   3.057
 9427WAT     H128523   6.729   2.035   3.001
 9427WAT     H228524   6.673   1.908   3.087
 9428WAT      O28525   2.773   4.301   9.073
 9428WAT     H128526   2.766   4.230   9.003
 9428WAT     H228527   2.804   4.386   9.031
 9429WAT      O28528   6.593   1.238   1.042
 9429WAT     H128529   6.619   1.330   1.072
 9429WAT     H228530   6.675   1.184   1.022
 9430WAT      O28531   0.033   9.034   0.718
 9430WAT     H128532  -0.001   8.982   0.640
 9430WAT     H228533  -0.044   9.078   0.764
 9431WAT      O28534   4.668   0.858   2.991
 9431WAT     H128535   4.729   0.823   3.062
 9431WAT     H228536   4.641   0.784   2.930
 9432WAT      O28537   0.750   3.500   4.096
 9432WAT     H128538   0.833   3.446   4.081
 9432WAT     H228539   0.670   3.443   4.079
 9433WAT      O28540   9.470   4.708   3.080
 9433WAT     H128541   9.539   4.728   3.010
 9433WAT     H228542   9.445   4.611   3.076
 9434WAT      O28543   0.186   5.929   6.705
 9434WAT     H128544   0.256   5.889   6.645
 9434WAT     H228545   0.172   5.870   6.784
 9435WAT      O28546   5.795   6.147   7.051
 9435WAT     H128547   5.697   6.128   7.054
 9435WAT     H228548   5.816   6.202   6.971
 9436WAT      O28549   2.763   8.444   0.644
 9436WAT     H128550   2.845   8.391   0.667
 9436WAT     H228551   2.683   8.384   0.645
 9437WAT      O28552   0.199   1.720   9.706
 9437WAT     H128553   0.217   1.734   9.608
 9437WAT     H228554   0.268   1.769   9.759
 9438WAT      O28555   2.976   1.882   2.301
 9438WAT     H128556   3.057   1.834   2.268
 9438WAT     H228557   2.940   1.835   2.382
 9439WAT      O28558   3.829   8.222   6.663
 9439WAT     H128559   3.816   8.254   6.756
 9439WAT     H228560   3.911   8.166   6.658
 9440WAT      O28561   8.178   2.201   1.706
 9440WAT     H128562   8.221   2.265   1.643
 9440WAT     H228563   8.249   2.145   1.749
 9441WAT      O28564   3.367   5.247   2.499
 9441WAT     H128565   3.391   5.152   2.522
 9441WAT     H228566   3.394   5.267   2.405
 9442WAT      O28567   1.795   2.509   5.912
 9442WAT     H128568   1.894   2.520   5.911
 9442WAT     H228569   1.771   2.431   5.970
 9443WAT      O28570   7.037   9.130   6.094
 9443WAT     H128571   6.995   9.160   6.009
 9443WAT     H228572   7.028   9.202   6.163
 9444WAT      O28573   4.833   6.362   7.874
 9444WAT     H128574   4.777   6.281   7.853
 9444WAT     H228575   4.830   6.380   7.972
 9445WAT      O28576   1.746   4.079   0.344
 9445WAT     H128577   1.674   4.068   0.275
 9445WAT     H228578   1.728   4.018   0.421
 9446WAT      O28579   2.232   4.743   2.710
 9446WAT     H128580   2.189   4.834   2.703
 9446WAT     H228581   2.215   4.692   2.626
 9447WAT      O28582   1.797   9.745   7.152
 9447WAT     H128583   1.703   9.756   7.182
 9447WAT     H228584   1.829   9.653   7.174
 9448WAT      O28585   2.779   9.291   4.645
 9448WAT     H128586   2.828   9.366   4.691
 9448WAT     H228587   2.838   9.210   4.642
 9449WAT      O28588   4.597   4.445   3.435
 9449WAT     H128589   4.672   4.390   3.398
 9449WAT     H228590   4.633   4.531   3.469
 9450WAT      O28591   5.598   0.669   3.109
 9450WAT     H128592   5.511   0.645   3.067
 9450WAT     H228593   5.645   0.586   3.139
 9451WAT      O28594   0.172   6.464   5.566
 9451WAT     H128595   0.105   6.390   5.575
 9451WAT     H228596   0.157   6.531   5.639
 9452WAT      O28597   0.518   6.363   4.468
 9452WAT     H128598   0.430   6.396   4.503
 9452WAT     H228599   0.572   6.440   4.436
 9453WAT      O28600   1.202   6.867   4.351
 9453WAT     H128601   1.230   6.916   4.433
 9453WAT     H228602   1.134   6.921   4.301
 9454WAT      O28603   7.828   8.104   2.646
 9454WAT     H128604   7.879   8.189   2.638
 9454WAT     H228605   7.779   8.103   2.734
 9455WAT      O28606   8.224   9.636   9.468
 9455WAT     H128607   8.227   9.543   9.431
 9455WAT     H228608   8.159   9.639   9.543
 9456WAT      O28609   4.984   5.900   9.463
 9456WAT     H128610   5.056   5.902   9.394
 9456WAT     H228611   4.985   5.811   9.510
 9457WAT      O28612   9.811   5.800   4.142
 9457WAT     H128613   9.725   5.752   4.129
 9457WAT     H228614   9.873   5.780   4.066
 9458WAT      O28615   2.706   9.703   3.850
 9458WAT     H128616   2.745   9.731   3.763
 9458WAT     H228617   2.639   9.771   3.881
 9459WAT      O28618   0.475   4.898   9.205
 9459WAT     H128619   0.387   4.945   9.192
 9459WAT     H228620   0.549   4.965   9.201
 9460WAT      O28621   7.881   0.394   3.455
 9460WAT     H128622   7.803   0.365   3.400
 9460WAT     H228623   7.851   0.460   3.524
 9461WAT      O28624   3.923   9.218   3.746
 9461WAT     H128625   3.928   9.237   3.843
 9461WAT     H228626   3.828   9.197   3.720
 9462WAT      O28627   1.578   0.680   7.375
 9462WAT     H128628   1.573   0.700   7.473
 9462WAT     H228629   1.660   0.626   7.356
 9463WAT      O28630   1.615   1.207   7.084
 9463WAT     H128631   1.644   1.153   7.163
 9463WAT     H228632   1.516   1.198   7.072
 9464WAT      O28633   8.001   6.517   4.722
 9464WAT     H128634   8.101   6.519   4.731
 9464WAT     H228635   7.960   6.562   4.801
 9465WAT      O28636   9.132   6.234   5.219
 9465WAT     H128637   9.183   6.283   5.290
 9465WAT     H228638   9.041   6.211   5.254
 9466WAT      O28639   5.480   6.437   8.103
 9466WAT     H128640   5.456   6.389   8.020
 9466WAT     H228641   5.580   6.441   8.112
 9467WAT      O28642   2.464   3.286   3.158
 9467WAT     H128643   2.369   3.318   3.154
 9467WAT     H228644   2.477   3.213   3.091
 9468WAT      O28645   9.341   9.243   1.369
 9468WAT     H128646   9.271   9.179   1.401
 9468WAT     H228647   9.303   9.336   1.369
 9469WAT      O28648   3.934   7.890   4.997
 9469WAT     H128649   3.993   7.930   4.928
 9469WAT     H228650   3.936   7.790   4.989
 9470WAT      O28651   0.911   3.475   3.282
 9470WAT     H128652   0.996   3.432   3.311
 9470WAT     H228653   0.857   3.499   3.363
 9471WAT      O28654   3.385   7.874   7.323
 9471WAT     H128655   3.313   7.943   7.335
 9471WAT     H228656   3.349   7.784   7.344
 9472WAT      O28657   1.839   2.693   0.700
 9472WAT     H128658   1.911   2.731   0.642
 9472WAT     H228659   1.766   2.654   0.643
 9473WAT      O28660   7.601   4.375   0.235
 9473WAT     H128661   7.546   4.298   0.202
 9473WAT     H228662   7.696   4.344   0.248
 9474WAT      O28663   4.779   0.674   2.533
 9474WAT     H128664   4.714   0.744   2.504
 9474WAT     H228665   4.773   0.595   2.472
 9475WAT      O28666   4.921   8.625   7.697
 9475WAT     H128667   4.829   8.662   7.697
 9475WAT     H228668   4.956   8.621   7.604
 9476WAT      O28669   2.375   4.432   2.381
 9476WAT     H128670   2.447   4.499   2.361
 9476WAT     H228671   2.406   4.341   2.353
 9477WAT      O28672   5.832   2.568   5.313
 9477WAT     H128673   5.784   2.485   5.343
 9477WAT     H228674   5.913   2.542   5.260
 9478WAT      O28675   4.932   4.033   3.491
 9478WAT     H128676   5.013   4.046   3.434
 9478WAT     H228677   4.941   4.086   3.575
 9479WAT      O28678   9.339   8.147   0.049
 9479WAT     H128679   9.371   8.212   0.118
 9479WAT     H228680   9.397   8.066   0.051
 9480WAT      O28681   4.151   3.778   9.215
 9480WAT     H128682   4.186   3.735   9.132
 9480WAT     H228683   4.061   3.740   9.237
 9481WAT      O28684   3.180   7.523   4.348
 9481WAT     H128685   3.118   7.448   4.371
 9481WAT     H228686   3.189   7.584   4.427
 9482WAT      O28687   9.290   9.108   7.502
 9482WAT     H128688   9.384   9.135   7.484
 9482WAT     H228689   9.263   9.138   7.593
 9483WAT      O28690   2.649   5.274   0.860
 9483WAT     H128691   2.653   5.354   0.799
 9483WAT     H228692   2.565   5.223   0.841
 9484WAT      O28693   5.597   6.515   6.030
 9484WAT     H128694   5.545   6.600   6.026
 9484WAT     H228695   5.649   6.511   6.116
 9485WAT      O28696   3.986   0.934   6.242
 9485WAT     H128697   4.078   0.974   6.243
 9485WAT     H228698   3.981   0.859   6.308
 9486WAT      O28699   1.124   1.772   2.544
 9486WAT     H128700   1.058   1.844   2.565
 9486WAT     H228701   1.074   1.690   2.513
 9487WAT      O28702   0.746   1.059   3.320
 9487WAT     H128703   0.747   1.051   3.420
 9487WAT     H228704   0.746   1.155   3.294
 9488WAT      O28705   6.616   4.510   6.508
 9488WAT     H128706   6.610   4.428   6.566
 9488WAT     H228707   6.524   4.538   6.481
 9489WAT      O28708   1.046   0.363   6.469
 9489WAT     H128709   1.041   0.419   6.387
 9489WAT     H228710   1.142   0.341   6.489
 9490WAT      O28711   7.434   0.231   2.053
 9490WAT     H128712   7.413   0.136   2.029
 9490WAT     H228713   7.528   0.252   2.027
 9491WAT      O28714   5.314   2.921   1.614
 9491WAT     H128715   5.384   2.977   1.659
 9491WAT     H228716   5.326   2.928   1.514
 9492WAT      O28717   3.301   9.324   6.282
 9492WAT     H128718   3.372   9.320   6.353
 9492WAT     H228719   3.252   9.411   6.289
 9493WAT      O28720   2.967   2.439   1.751
 9493WAT     H128721   3.046   2.462   1.809
 9493WAT     H228722   2.991   2.361   1.692
 9494WAT      O28723   8.230   6.476   0.770
 9494WAT     H128724   8.157   6.443   0.830
 9494WAT     H228725   8.318   6.443   0.803
 9495WAT      O28726   1.931   4.037   8.777
 9495WAT     H128727   2.024   4.008   8.800
 9495WAT     H228728   1.933   4.092   8.693
 9496WAT      O28729   0.448   0.396   4.029
 9496WAT     H128730   0.524   0.331   4.033
 9496WAT     H228731   0.366   0.354   4.069
 9497WAT      O28732   4.155   1.280   7.235
 9497WAT     H128733   4.213   1.224   7.294
 9497WAT     H228734   4.211   1.350   7.189
 9498WAT      O28735   9.069   2.555   4.857
 9498WAT     H128736   9.147   2.538   4.798
 9498WAT     H228737   8.994   2.494   4.831
 9499WAT      O28738   2.807   3.848   0.044
 9499WAT     H128739   2.725   3.896   0.011
 9499WAT     H228740   2.835   3.887   0.132
 9500WAT      O28741   3.078   3.825   6.785
 9500WAT     H128742   3.090   3.862   6.693
 9500WAT     H228743   3.155   3.767   6.809
 9501WAT      O28744   7.177   0.731   0.237
 9501WAT     H128745   7.195   0.669   0.312
 9501WAT     H228746   7.085   0.769   0.245
 9502WAT      O28747   7.514   0.740   8.843
 9502WAT     H128748   7.536   0.794   8.925
 9502WAT     H228749   7.496   0.645   8.870
 9503WAT      O28750   5.397   9.743   1.023
 9503WAT     H128751   5.405   9.842   1.014
 9503WAT     H228752   5.456   9.698   0.955
 9504WAT      O28753   5.821   9.628   2.047
 9504WAT     H128754   5.738   9.597   2.094
 9504WAT     H228755   5.841   9.723   2.074
 9505WAT      O28756   0.786   2.549   8.878
 9505WAT     H128757   0.857   2.572   8.945
 9505WAT     H228758   0.824   2.488   8.809
 9506WAT      O28759   7.391   4.843   7.997
 9506WAT     H128760   7.406   4.857   7.899
 9506WAT     H228761   7.474   4.804   8.037
 9507WAT      O28762   2.367   5.267   4.598
 9507WAT     H128763   2.362   5.187   4.656
 9507WAT     H228764   2.453   5.316   4.615
 9508WAT      O28765   4.279   1.616   3.666
 9508WAT     H128766   4.333   1.700   3.656
 9508WAT     H228767   4.198   1.635   3.723
 9509WAT      O28768   8.818   3.662   4.123
 9509WAT     H128769   8.908   3.621   4.111
 9509WAT     H228770   8.803   3.684   4.219
 9510WAT      O28771   7.395   5.097   6.580
 9510WAT     H128772   7.384   5.116   6.483
 9510WAT     H228773   7.318   5.137   6.631
 9511WAT      O28774   2.209   7.135   8.162
 9511WAT     H128775   2.111   7.145   8.149
 9511WAT     H228776   2.257   7.212   8.120
 9512WAT      O28777   7.042   4.344   6.875
 9512WAT     H128778   7.007   4.327   6.967
 9512WAT     H228779   6.984   4.298   6.808
 9513WAT      O28780   7.068   9.530   3.897
 9513WAT     H128781   7.073   9.488   3.987
 9513WAT     H228782   7.071   9.459   3.826
 9514WAT      O28783   5.919   7.194   7.094
 9514WAT     H128784   5.925   7.282   7.141
 9514WAT     H228785   5.836   7.192   7.038
 9515WAT      O28786   1.075   0.761   0.673
 9515WAT     H128787   1.153   0.720   0.720
 9515WAT     H228788   0.997   0.698   0.677
 9516WAT      O28789   0.812   2.090   4.533
 9516WAT     H128790   0.782   2.165   4.591
 9516WAT     H228791   0.774   2.004   4.567
 9517WAT      O28792   4.577   5.926   3.240
 9517WAT     H128793   4.635   5.991   3.190
 9517WAT     H228794   4.539   5.860   3.176
 9518WAT      O28795   5.374   4.526   1.676
 9518WAT     H128796   5.455   4.507   1.621
 9518WAT     H228797   5.299   4.467   1.646
 9519WAT      O28798   6.486   3.932   6.234
 9519WAT     H128799   6.490   3.921   6.135
 9519WAT     H228800   6.401   3.978   6.260
 9520WAT      O28801   7.021   4.259   3.363
 9520WAT     H128802   7.066   4.240   3.450
 9520WAT     H228803   6.969   4.178   3.334
 9521WAT      O28804   8.724   6.111   8.919
 9521WAT     H128805   8.801   6.156   8.875
 9521WAT     H228806   8.700   6.159   9.003
 9522WAT      O28807   7.870   4.388   3.094
 9522WAT     H128808   7.879   4.478   3.138
 9522WAT     H228809   7.775   4.356   3.103
 9523WAT      O28810   4.493   0.686   4.998
 9523WAT     H128811   4.570   0.693   5.062
 9523WAT     H228812   4.447   0.599   5.010
 9524WAT      O28813   7.102   0.419   2.661
 9524WAT     H128814   7.144   0.510   2.661
 9524WAT     H228815   7.084   0.390   2.755
 9525WAT      O28816   7.835   1.373   3.348
 9525WAT     H128817   7.784   1.402   3.429
 9525WAT     H228818   7.923   1.419   3.346
 9526WAT      O28819   5.347   1.293   1.931
 9526WAT     H128820   5.254   1.312   1.901
 9526WAT     H228821   5.353   1.198   1.962
 9527WAT      O28822   5.188   9.039   0.244
 9527WAT     H128823   5.129   9.050   0.324
 9527WAT     H228824   5.239   8.953   0.252
 9528WAT      O28825   6.607   7.600   3.426
 9528WAT     H128826   6.554   7.683   3.446
 9528WAT     H228827   6.679   7.621   3.361
 9529WAT      O28828   5.249   3.650   2.485
 9529WAT     H128829   5.251   3.584   2.410
 9529WAT     H228830   5.202   3.610   2.563
 9530WAT      O28831   9.854   4.263   8.743
 9530WAT     H128832   9.848   4.360   8.765
 9530WAT     H228833   9.766   4.232   8.706
 9531WAT      O28834   6.032   9.700   7.440
 9531WAT     H128835   5.977   9.640   7.498
 9531WAT     H228836   6.103   9.646   7.393
 9532WAT      O28837   8.489   2.435   6.699
 9532WAT     H128838   8.422   2.372   6.739
 9532WAT     H228839   8.518   2.501   6.768
 9533WAT      O28840   2.927   0.251   8.303
 9533WAT     H128841   2.881   0.165   8.322
 9533WAT     H228842   2.915   0.313   8.381
 9534WAT      O28843   6.944   5.283   4.502
 9534WAT     H128844   6.970   5.193   4.538
 9534WAT     H228845   7.027   5.337   4.486
 9535WAT      O28846   2.208   6.340   2.705
 9535WAT     H128847   2.302   6.322   2.675
 9535WAT     H228848   2.145   6.283   2.653
 9536WAT      O28849   1.360   5.187   2.314
 9536WAT     H128850   1.297   5.110   2.323
 9536WAT     H228851   1.336   5.258   2.381
 9537WAT      O28852   6.537   9.414   3.442
 9537WAT     H128853   6.549   9.487   3.375
 9537WAT     H228854   6.583   9.438   3.527
 9538WAT      O28855   5.479   3.213   7.543
 9538WAT     H128856   5.460   3.309   7.522
 9538WAT     H228857   5.393   3.162   7.544
 9539WAT      O28858   6.212   8.934   2.863
 9539WAT     H128859   6.221   8.850   2.810
 9539WAT     H228860   6.272   8.929   2.943
 9540WAT      O28861   4.819   4.535   3.160
 9540WAT     H128862   4.803   4.504   3.067
 9540WAT     H228863   4.822   4.457   3.222
 9541WAT      O28864   5.713   3.423   9.525
 9541WAT     H128865   5.665   3.434   9.438
 9541WAT     H228866   5.807   3.393   9.508
 9542WAT      O28867   6.852   6.390   0.489
 9542WAT     H128868   6.769   6.335   0.492
 9542WAT     H228869   6.932   6.330   0.490
 9543WAT      O28870   2.068   5.535   5.540
 9543WAT     H128871   2.011   5.596   5.594
 9543WAT     H228872   2.165   5.551   5.563
 9544WAT      O28873   6.649   9.474   9.462
 9544WAT     H128874   6.683   9.517   9.545
 9544WAT     H228875   6.587   9.537   9.415
 9545WAT      O28876   2.794   4.207   3.310
 9545WAT     H128877   2.740   4.137   3.261
 9545WAT     H228878   2.873   4.163   3.352
 9546WAT      O28879   6.403   3.480   3.060
 9546WAT     H128880   6.348   3.404   3.094
 9546WAT     H228881   6.433   3.536   3.137
 9547WAT      O28882   3.666   1.841   3.333
 9547WAT     H128883   3.628   1.774   3.270
 9547WAT     H228884   3.757   1.869   3.301
 9548WAT      O28885   9.026   4.677   9.836
 9548WAT     H128886   8.974   4.663   9.751
 9548WAT     H228887   9.107   4.732   9.816
 9549WAT      O28888   7.308   6.520   1.030
 9549WAT     H128889   7.300   6.619   1.045
 9549WAT     H228890   7.405   6.494   1.029
 9550WAT      O28891   0.640   1.096   5.244
 9550WAT     H128892   0.697   1.178   5.245
 9550WAT     H228893   0.569   1.106   5.174
 9551WAT      O28894   9.780   0.333   4.046
 9551WAT     H128895   9.792   0.423   4.003
 9551WAT     H228896   9.731   0.272   3.983
 9552WAT      O28897   3.841   3.472   4.636
 9552WAT     H128898   3.821   3.558   4.589
 9552WAT     H228899   3.930   3.438   4.606
 9553WAT      O28900   2.359   9.010   5.824
 9553WAT     H128901   2.403   8.976   5.741
 9553WAT     H228902   2.267   9.044   5.802
 9554WAT      O28903   3.659   6.501   4.846
 9554WAT     H128904   3.578   6.494   4.905
 9554WAT     H228905   3.710   6.415   4.849
 9555WAT      O28906   8.113   0.720   2.726
 9555WAT     H128907   8.169   0.800   2.703
 9555WAT     H228908   8.062   0.738   2.810
 9556WAT      O28909   6.125   2.690   8.846
 9556WAT     H128910   6.191   2.765   8.847
 9556WAT     H228911   6.139   2.636   8.763
 9557WAT      O28912   0.514   1.208   6.695
 9557WAT     H128913   0.548   1.271   6.765
 9557WAT     H228914   0.566   1.123   6.699
 9558WAT      O28915   9.531   5.802   2.377
 9558WAT     H128916   9.500   5.878   2.434
 9558WAT     H228917   9.538   5.832   2.282
 9559WAT      O28918   0.361   3.113   2.861
 9559WAT     H128919   0.398   3.204   2.840
 9559WAT     H228920   0.381   3.091   2.956
 9560WAT      O28921   3.232   0.595   7.152
 9560WAT     H128922   3.194   0.669   7.208
 9560WAT     H228923   3.260   0.520   7.211
 9561WAT      O28924   4.515   6.453   9.252
 9561WAT     H128925   4.576   6.447   9.332
 9561WAT     H228926   4.420   6.449   9.282
 9562WAT      O28927   8.365   9.844   8.702
 9562WAT     H128928   8.446   9.900   8.715
 9562WAT     H228929   8.391   9.755   8.664
 9563WAT      O28930   8.606   4.167   7.689
 9563WAT     H128931   8.664   4.245   7.715
 9563WAT     H228932   8.593   4.166   7.590
 9564WAT      O28933   6.729   6.324   5.731
 9564WAT     H128934   6.697   6.339   5.637
 9564WAT     H228935   6.675   6.250   5.772
 9565WAT      O28936   5.016   8.936   9.095
 9565WAT     H128937   5.004   9.034   9.085
 9565WAT     H228938   4.933   8.889   9.066
 9566WAT      O28939   8.678   0.440   9.317
 9566WAT     H128940   8.764   0.455   9.367
 9566WAT     H228941   8.692   0.369   9.249
 9567WAT      O28942   8.377   8.651   5.065
 9567WAT     H128943   8.288   8.672   5.023
 9567WAT     H228944   8.424   8.581   5.011
 9568WAT      O28945   9.251   9.194   3.457
 9568WAT     H128946   9.201   9.204   3.372
 9568WAT     H228947   9.196   9.140   3.522
 9569WAT      O28948   4.480   8.650   4.039
 9569WAT     H128949   4.574   8.675   4.018
 9569WAT     H228950   4.426   8.734   4.054
 9570WAT      O28951   0.755   7.580   0.682
 9570WAT     H128952   0.808   7.653   0.725
 9570WAT     H228953   0.691   7.542   0.748
 9571WAT      O28954   8.743   7.764   0.945
 9571WAT     H128955   8.699   7.830   1.005
 9571WAT     H228956   8.821   7.722   0.992
 9572WAT      O28957   5.338   7.867   2.585
 9572WAT     H128958   5.366   7.963   2.584
 9572WAT     H228959   5.253   7.858   2.638
 9573WAT      O28960   4.864   6.547   2.580
 9573WAT     H128961   4.856   6.451   2.604
 9573WAT     H228962   4.813   6.565   2.496
 9574WAT      O28963   7.658   7.732   4.839
 9574WAT     H128964   7.694   7.822   4.814
 9574WAT     H228965   7.609   7.738   4.926
 9575WAT      O28966   9.165   3.876   1.992
 9575WAT     H128967   9.130   3.931   1.916
 9575WAT     H228968   9.229   3.808   1.957
 9576WAT      O28969   4.807   7.545   9.552
 9576WAT     H128970   4.777   7.468   9.495
 9576WAT     H228971   4.727   7.597   9.581
 9577WAT      O28972   6.041   5.875   6.479
 9577WAT     H128973   5.960   5.824   6.509
 9577WAT     H228974   6.122   5.817   6.488
 9578WAT      O28975   8.398   4.492   4.902
 9578WAT     H128976   8.433   4.577   4.942
 9578WAT     H228977   8.379   4.507   4.805
 9579WAT      O28978   9.461   6.132   5.735
 9579WAT     H128979   9.432   6.162   5.826
 9579WAT     H228980   9.516   6.049   5.744
 9580WAT      O28981   2.751   6.181   4.241
 9580WAT     H128982   2.840   6.143   4.218
 9580WAT     H228983   2.753   6.281   4.228
 9581WAT      O28984   6.252   0.199   5.244
 9581WAT     H128985   6.182   0.261   5.279
 9581WAT     H228986   6.207   0.123   5.196
 9582WAT      O28987   3.921   8.789   0.909
 9582WAT     H128988   3.878   8.708   0.867
 9582WAT     H228989   3.872   8.813   0.992
 9583WAT      O28990   7.611   5.177   9.749
 9583WAT     H128991   7.659   5.202   9.833
 9583WAT     H228992   7.672   5.188   9.671
 9584WAT      O28993   4.466   1.750   2.669
 9584WAT     H128994   4.498   1.826   2.612
 9584WAT     H228995   4.449   1.782   2.762
 9585WAT      O28996   8.525   6.011   9.810
 9585WAT     H128997   8.541   5.918   9.776
 9585WAT     H228998   8.527   6.009   9.910
 9586WAT      O28999   2.227   5.057   6.998
 9586WAT     H129000   2.206   4.959   6.999
 9586WAT     H229001   2.325   5.070   7.015
 9587WAT      O29002   1.620   2.841   2.428
 9587WAT     H129003   1.715   2.842   2.397
 9587WAT     H229004   1.559   2.849   2.350
 9588WAT      O29005   0.302   9.653   1.258
 9588WAT     H129006   0.401   9.655   1.244
 9588WAT     H229007   0.258   9.714   1.191
 9589WAT      O29008   2.732   4.045   7.216
 9589WAT     H129009   2.668   4.091   7.155
 9589WAT     H229010   2.681   3.990   7.283
 9590WAT      O29011   6.423   3.815   7.843
 9590WAT     H129012   6.438   3.734   7.900
 9590WAT     H229013   6.508   3.840   7.798
 9591WAT      O29014   5.119   7.070   8.332
 9591WAT     H129015   5.115   7.166   8.359
 9591WAT     H229016   5.119   7.013   8.414
 9592WAT      O29017   6.356   4.407   7.102
 9592WAT     H129018   6.317   4.315   7.099
 9592WAT     H229019   6.413   4.416   7.183
 9593WAT      O29020   6.974   5.741   4.814
 9593WAT     H129021   7.018   5.802   4.879
 9593WAT     H229022   7.035   5.724   4.737
 9594WAT      O29023   2.706   2.284   7.462
 9594WAT     H129024   2.661   2.202   7.425
 9594WAT     H229025   2.699   2.358   7.396
 9595WAT      O29026   0.057   9.589   9.529
 9595WAT     H129027   0.025   9.512   9.584
 9595WAT     H229028   0.145   9.622   9.564
 9596WAT      O29029   3.035   3.673   8.475
 9596WAT     H129030   3.124   3.692   8.434
 9596WAT     H229031   2.962   3.712   8.418
 9597WAT      O29032   7.653   2.882   5.484
 9597WAT     H129033   7.732   2.894   5.423
 9597WAT     H229034   7.679   2.822   5.560
 9598WAT      O29035   8.512   6.360   9.169
 9598WAT     H129036   8.436   6.306   9.204
 9598WAT     H229037   8.490   6.394   9.077
 9599WAT      O29038   3.774   3.110   7.068
 9599WAT     H129039   3.848   3.141   7.008
 9599WAT     H229040   3.741   3.186   7.124
 9600WAT      O29041   9.197   8.132   2.510
 9600WAT     H129042   9.114   8.161   2.557
 9600WAT     H229043   9.254   8.078   2.572
 9601WAT      O29044   9.280   6.584   2.160
 9601WAT     H129045   9.214   6.531   2.212
 9601WAT     H229046   9.257   6.681   2.166
 9602WAT      O29047   4.686   0.199   1.920
 9602WAT     H129048   4.710   0.102   1.915
 9602WAT     H229049   4.615   0.219   1.852
 9603WAT      O29050   2.852   8.908   5.722
 9603WAT     H129051   2.799   8.935   5.803
 9603WAT     H229052   2.793   8.912   5.641
 9604WAT      O29053   9.568   9.364   9.547
 9604WAT     H129054   9.646   9.308   9.519
 9604WAT     H229055   9.494   9.352   9.482
 9605WAT      O29056   8.067   7.230   1.747
 9605WAT     H129057   8.026   7.191   1.830
 9605WAT     H229058   8.032   7.181   1.667
 9606WAT      O29059   4.746   9.295   7.635
 9606WAT     H129060   4.752   9.387   7.674
 9606WAT     H229061   4.826   9.242   7.663
 9607WAT      O29062   2.284   9.264   3.546
 9607WAT     H129063   2.332   9.218   3.621
 9607WAT     H229064   2.236   9.197   3.491
 9608WAT      O29065   2.034   1.521   6.800
 9608WAT     H129066   2.099   1.467   6.747
 9608WAT     H229067   1.967   1.562   6.738
 9609WAT      O29068   5.391   1.913   9.459
 9609WAT     H129069   5.457   1.973   9.504
 9609WAT     H229070   5.344   1.963   9.387
 9610WAT      O29071   9.876   7.888   6.448
 9610WAT     H129072   9.847   7.810   6.503
 9610WAT     H229073   9.883   7.860   6.352
 9611WAT      O29074   2.447   0.229   2.993
 9611WAT     H129075   2.517   0.218   3.064
 9611WAT     H229076   2.381   0.154   2.998
 9612WAT      O29077   6.888   8.179   5.284
 9612WAT     H129078   6.796   8.157   5.315
 9612WAT     H229079   6.916   8.116   5.212
 9613WAT      O29080   1.021   2.278   8.183
 9613WAT     H129081   0.955   2.254   8.111
 9613WAT     H229082   0.987   2.357   8.234
 9614WAT      O29083   0.195   0.062   8.341
 9614WAT     H129084   0.204   0.091   8.246
 9614WAT     H229085   0.189   0.142   8.400
 9615WAT      O29086   3.859   1.526   5.988
 9615WAT     H129087   3.871   1.563   5.896
 9615WAT     H229088   3.781   1.569   6.032
 9616WAT      O29089   1.104   3.894   9.752
 9616WAT     H129090   1.186   3.838   9.760
 9616WAT     H229091   1.031   3.842   9.709
 9617WAT      O29092   3.116   4.294   5.445
 9617WAT     H129093   3.161   4.377   5.479
 9617WAT     H229094   3.061   4.318   5.365
 9618WAT      O29095   5.711   6.117   9.743
 9618WAT     H129096   5.710   6.162   9.653
 9618WAT     H229097   5.660   6.174   9.808
 9619WAT      O29098   0.856   4.915   0.779
 9619WAT     H129099   0.795   4.847   0.820
 9619WAT     H229100   0.854   4.999   0.834
 9620WAT      O29101   5.566   3.803   9.633
 9620WAT     H129102   5.654   3.770   9.669
 9620WAT     H229103   5.501   3.813   9.708
 9621WAT      O29104   8.045   4.675   5.845
 9621WAT     H129105   7.961   4.730   5.840
 9621WAT     H229106   8.054   4.619   5.763
 9622WAT      O29107   0.758   5.323   0.024
 9622WAT     H129108   0.808   5.272   0.094
 9622WAT     H229109   0.786   5.419   0.025
 9623WAT      O29110   3.638   6.707   9.570
 9623WAT     H129111   3.734   6.734   9.580
 9623WAT     H229112   3.629   6.642   9.495
 9624WAT      O29113   7.292   5.364   2.962
 9624WAT     H129114   7.216   5.376   2.899
 9624WAT     H229115   7.341   5.279   2.939
 9625WAT      O29116   4.352   4.346   6.634
 9625WAT     H129117   4.373   4.423   6.695
 9625WAT     H229118   4.253   4.335   6.628
 9626WAT      O29119   0.938   7.636   7.425
 9626WAT     H129120   0.852   7.657   7.471
 9626WAT     H229121   0.925   7.557   7.365
 9627WAT      O29122   9.088   9.244   7.043
 9627WAT     H129123   9.002   9.211   7.003
 9627WAT     H229124   9.161   9.179   7.022
 9628WAT      O29125   5.260   0.999   1.079
 9628WAT     H129126   5.345   0.956   1.111
 9628WAT     H229127   5.190   0.929   1.065
 9629WAT      O29128   5.599   4.892   0.761
 9629WAT     H129129   5.511   4.939   0.759
 9629WAT     H229130   5.631   4.879   0.667
 9630WAT      O29131   0.643   1.697   0.624
 9630WAT     H129132   0.730   1.740   0.647
 9630WAT     H229133   0.622   1.713   0.527
 9631WAT      O29134   6.700   3.706   9.039
 9631WAT     H129135   6.757   3.626   9.055
 9631WAT     H229136   6.686   3.755   9.126
 9632WAT      O29137   7.192   0.167   7.178
 9632WAT     H129138   7.166   0.084   7.129
 9632WAT     H229139   7.112   0.203   7.227
 9633WAT      O29140   4.676   4.086   1.250
 9633WAT     H129141   4.770   4.121   1.250
 9633WAT     H229142   4.647   4.069   1.156
 9634WAT      O29143   1.667   5.367   3.894
 9634WAT     H129144   1.759   5.329   3.883
 9634WAT     H229145   1.648   5.380   3.991
 9635WAT      O29146   0.287   1.879   1.261
 9635WAT     H129147   0.226   1.922   1.194
 9635WAT     H229148   0.233   1.830   1.329
 9636WAT      O29149   2.048   9.673   0.595
 9636WAT     H129150   2.008   9.746   0.650
 9636WAT     H229151   1.983   9.597   0.590
 9637WAT      O29152   1.381   3.365   7.716
 9637WAT     H129153   1.417   3.323   7.633
 9637WAT     H229154   1.430   3.330   7.795
 9638WAT      O29155   9.215   8.952   4.085
 9638WAT     H129156   9.152   8.875   4.081
 9638WAT     H229157   9.285   8.935   4.155
 9639WAT      O29158   0.401   6.050   4.170
 9639WAT     H129159   0.374   5.955   4.188
 9639WAT     H229160   0.462   6.082   4.242
 9640WAT      O29161   9.529   2.684   2.143
 9640WAT     H129162   9.480   2.642   2.220
 9640WAT     H229163   9.609   2.732   2.178
 9641WAT      O29164   6.226   1.531   1.902
 9641WAT     H129165   6.252   1.486   1.987
 9641WAT     H229166   6.156   1.600   1.920
 9642WAT      O29167   0.507   5.633   7.250
 9642WAT     H129168   0.591   5.634   7.196
 9642WAT     H229169   0.478   5.538   7.263
 9643WAT      O29170   1.672   2.017   3.915
 9643WAT     H129171   1.741   2.089   3.922
 9643WAT     H229172   1.717   1.928   3.909
 9644WAT      O29173   2.745   4.614   8.552
 9644WAT     H129174   2.789   4.674   8.618
 9644WAT     H229175   2.790   4.525   8.551
 9645WAT      O29176   4.752   5.799   0.100
 9645WAT     H129177   4.801   5.711   0.099
 9645WAT     H229178   4.726   5.823   0.006
 9646WAT      O29179   3.612   5.374   4.210
 9646WAT     H129180   3.560   5.352   4.292
 9646WAT     H229181   3.550   5.400   4.137
 9647WAT      O29182   6.380   7.478   0.020
 9647WAT     H129183   6.344   7.386   0.034
 9647WAT     H229184   6.307   7.538  -0.012
 9648WAT      O29185   5.662   7.142   7.011
 9648WAT     H129186   5.590   7.165   6.946
 9648WAT     H229187   5.622   7.125   7.101
 9649WAT      O29188   3.357   6.872   7.165
 9649WAT     H129189   3.350   6.843   7.070
 9649WAT     H229190   3.325   6.966   7.174
 9650WAT      O29191   4.593   3.109   3.031
 9650WAT     H129192   4.561   3.198   3.064
 9650WAT     H229193   4.691   3.100   3.049
 9651WAT      O29194   4.977   8.757   1.627
 9651WAT     H129195   5.074   8.741   1.609
 9651WAT     H229196   4.924   8.683   1.586
 9652WAT      O29197   0.512   1.154   7.339
 9652WAT     H129198   0.521   1.060   7.304
 9652WAT     H229199   0.439   1.201   7.290
 9653WAT      O29200   5.258   7.541   2.658
 9653WAT     H129201   5.193   7.479   2.614
 9653WAT     H229202   5.301   7.599   2.590
 9654WAT      O29203   1.273   4.559   0.545
 9654WAT     H129204   1.184   4.546   0.589
 9654WAT     H229205   1.260   4.574   0.447
 9655WAT      O29206   2.557   6.947   3.013
 9655WAT     H129207   2.516   6.864   3.051
 9655WAT     H229208   2.611   6.993   3.084
 9656WAT      O29209   9.569   1.286   0.555
 9656WAT     H129210   9.592   1.239   0.640
 9656WAT     H229211   9.654   1.315   0.509
 9657WAT      O29212   2.551   2.179   4.893
 9657WAT     H129213   2.456   2.153   4.911
 9657WAT     H229214   2.595   2.206   4.979
 9658WAT      O29215   0.046   4.507   0.062
 9658WAT     H129216  -0.039   4.498   0.010
 9658WAT     H229217   0.124   4.499   0.001
 9659WAT      O29218   7.432   4.717   0.014
 9659WAT     H129219   7.500   4.643   0.015
 9659WAT     H229220   7.465   4.791  -0.044
 9660WAT      O29221   5.604   0.032   0.719
 9660WAT     H129222   5.632   0.095   0.791
 9660WAT     H229223   5.666  -0.047   0.717
 9661WAT      O29224   9.118   5.606   5.096
 9661WAT     H129225   9.210   5.643   5.107
 9661WAT     H229226   9.120   5.507   5.111
 9662WAT      O29227   8.846   5.120   9.063
 9662WAT     H129228   8.747   5.113   9.055
 9662WAT     H229229   8.887   5.029   9.057
 9663WAT      O29230   2.397   6.997   3.650
 9663WAT     H129231   2.479   7.040   3.613
 9663WAT     H229232   2.391   7.017   3.748
 9664WAT      O29233   9.226   9.512   5.332
 9664WAT     H129234   9.149   9.458   5.364
 9664WAT     H229235   9.236   9.500   5.233
 9665WAT      O29236   8.326   5.990   4.151
 9665WAT     H129237   8.232   5.972   4.181
 9665WAT     H229238   8.375   5.903   4.145
 9666WAT      O29239   6.273   3.301   8.981
 9666WAT     H129240   6.237   3.230   8.921
 9666WAT     H229241   6.197   3.352   9.022
 9667WAT      O29242   2.769   8.290   2.758
 9667WAT     H129243   2.836   8.271   2.687
 9667WAT     H229244   2.703   8.215   2.763
 9668WAT      O29245   6.170   6.689   7.972
 9668WAT     H129246   6.239   6.650   7.912
 9668WAT     H229247   6.107   6.746   7.919
 9669WAT      O29248   6.154   3.138   0.656
 9669WAT     H129249   6.183   3.071   0.587
 9669WAT     H229250   6.143   3.092   0.744
 9670WAT      O29251   0.949   8.643   6.869
 9670WAT     H129252   0.921   8.709   6.801
 9670WAT     H229253   0.980   8.559   6.824
 9671WAT      O29254   7.539   0.652   3.995
 9671WAT     H129255   7.542   0.639   4.094
 9671WAT     H229256   7.458   0.607   3.958
 9672WAT      O29257   8.228   3.180   7.685
 9672WAT     H129258   8.151   3.228   7.642
 9672WAT     H229259   8.292   3.247   7.723
 9673WAT      O29260   8.155   9.504   3.032
 9673WAT     H129261   8.231   9.540   3.086
 9673WAT     H229262   8.117   9.577   2.976
 9674WAT      O29263   8.940   9.286   2.283
 9674WAT     H129264   8.970   9.381   2.274
 9674WAT     H229265   8.925   9.247   2.192
 9675WAT      O29266   2.249   2.435   5.499
 9675WAT     H129267   2.281   2.409   5.590
 9675WAT     H229268   2.182   2.368   5.467
 9676WAT      O29269   6.067   6.484   1.259
 9676WAT     H129270   6.135   6.544   1.216
 9676WAT     H229271   6.111   6.397   1.283
 9677WAT      O29272   0.455   2.068   3.838
 9677WAT     H129273   0.382   2.056   3.771
 9677WAT     H229274   0.445   2.001   3.911
 9678WAT      O29275   0.504   7.602   8.259
 9678WAT     H129276   0.498   7.698   8.230
 9678WAT     H229277   0.548   7.549   8.186
 9679WAT      O29278   1.391   6.303   0.190
 9679WAT     H129279   1.329   6.241   0.237
 9679WAT     H229280   1.469   6.252   0.153
 9680WAT      O29281   5.422   1.616   8.083
 9680WAT     H129282   5.340   1.651   8.036
 9680WAT     H229283   5.473   1.692   8.123
 9681WAT      O29284   6.741   4.321   2.081
 9681WAT     H129285   6.792   4.295   2.163
 9681WAT     H229286   6.754   4.419   2.064
 9682WAT      O29287   4.649   5.860   8.533
 9682WAT     H129288   4.554   5.867   8.566
 9682WAT     H229289   4.657   5.783   8.470
 9683WAT      O29290   2.759   7.406   5.644
 9683WAT     H129291   2.750   7.475   5.573
 9683WAT     H229292   2.737   7.316   5.606
 9684WAT      O29293   0.454   5.562   5.713
 9684WAT     H129294   0.361   5.526   5.721
 9684WAT     H229295   0.464   5.643   5.771
 9685WAT      O29296   7.787   3.804   0.834
 9685WAT     H129297   7.876   3.824   0.791
 9685WAT     H229298   7.777   3.705   0.843
 9686WAT      O29299   3.896   7.872   9.694
 9686WAT     H129300   3.970   7.856   9.629
 9686WAT     H229301   3.808   7.868   9.647
 9687WAT      O29302   1.935   6.932   6.768
 9687WAT     H129303   1.982   6.860   6.818
 9687WAT     H229304   1.846   6.950   6.811
 9688WAT      O29305   3.154   4.226   5.998
 9688WAT     H129306   3.173   4.182   6.086
 9688WAT     H229307   3.240   4.256   5.957
 9689WAT      O29308   9.201   6.806   0.474
 9689WAT     H129309   9.227   6.898   0.504
 9689WAT     H229310   9.105   6.807   0.445
 9690WAT      O29311   8.750   0.583   0.368
 9690WAT     H129312   8.671   0.643   0.353
 9690WAT     H229313   8.726   0.489   0.341
 9691WAT      O29314   4.005   5.944   3.290
 9691WAT     H129315   4.091   5.908   3.252
 9691WAT     H229316   3.946   5.975   3.216
 9692WAT      O29317   2.777   3.298   9.369
 9692WAT     H129318   2.742   3.237   9.299
 9692WAT     H229319   2.734   3.388   9.361
 9693WAT      O29320   3.458   6.523   9.423
 9693WAT     H129321   3.402   6.455   9.470
 9693WAT     H229322   3.472   6.495   9.328
 9694WAT      O29323   8.001   8.598   3.611
 9694WAT     H129324   8.053   8.582   3.695
 9694WAT     H229325   8.018   8.690   3.577
 9695WAT      O29326   7.095   8.374   1.408
 9695WAT     H129327   7.031   8.420   1.347
 9695WAT     H229328   7.171   8.435   1.430
 9696WAT      O29329   8.723   6.675   2.018
 9696WAT     H129330   8.639   6.621   2.023
 9696WAT     H229331   8.802   6.615   2.034
 9697WAT      O29332   9.203   9.176   7.766
 9697WAT     H129333   9.244   9.229   7.840
 9697WAT     H229334   9.234   9.081   7.771
 9698WAT      O29335   6.363   7.489   0.863
 9698WAT     H129336   6.389   7.409   0.808
 9698WAT     H229337   6.288   7.537   0.817
 9699WAT      O29338   4.086   6.235   3.526
 9699WAT     H129339   4.138   6.266   3.446
 9699WAT     H229340   4.142   6.172   3.580
 9700WAT      O29341   5.095   1.352   3.547
 9700WAT     H129342   5.002   1.390   3.539
 9700WAT     H229343   5.105   1.276   3.484
 9701WAT      O29344   8.749   4.565   8.751
 9701WAT     H129345   8.807   4.567   8.669
 9701WAT     H229346   8.724   4.659   8.775
 9702WAT      O29347   2.179   8.634   5.448
 9702WAT     H129348   2.261   8.659   5.397
 9702WAT     H229349   2.107   8.606   5.384
 9703WAT      O29350   6.497   2.938   3.235
 9703WAT     H129351   6.459   2.849   3.211
 9703WAT     H229352   6.520   2.940   3.332
 9704WAT      O29353   9.222   9.496   1.561
 9704WAT     H129354   9.259   9.584   1.591
 9704WAT     H229355   9.160   9.461   1.631
 9705WAT      O29356   6.362   3.465   6.212
 9705WAT     H129357   6.391   3.489   6.304
 9705WAT     H229358   6.325   3.546   6.166
 9706WAT      O29359   7.103   5.214   9.054
 9706WAT     H129360   7.152   5.240   9.138
 9706WAT     H229361   7.136   5.125   9.023
 9707WAT      O29362   2.030   2.294   3.034
 9707WAT     H129363   2.057   2.354   2.958
 9707WAT     H229364   2.009   2.350   3.114
 9708WAT      O29365   7.038   7.227   7.958
 9708WAT     H129366   6.948   7.257   7.990
 9708WAT     H229367   7.092   7.307   7.929
 9709WAT      O29368   9.015   7.435   0.614
 9709WAT     H129369   8.931   7.408   0.568
 9709WAT     H229370   9.000   7.519   0.665
 9710WAT      O29371   2.717   8.164   9.303
 9710WAT     H129372   2.707   8.084   9.362
 9710WAT     H229373   2.772   8.233   9.350
 9711WAT      O29374   1.270   5.249   7.068
 9711WAT     H129375   1.274   5.192   7.150
 9711WAT     H229376   1.304   5.198   6.989
 9712WAT      O29377   3.964   7.517   9.736
 9712WAT     H129378   3.898   7.545   9.667
 9712WAT     H229379   4.036   7.463   9.694
 9713WAT      O29380   1.775   6.136   3.951
 9713WAT     H129381   1.769   6.158   3.854
 9713WAT     H229382   1.722   6.204   4.004
 9714WAT      O29383   7.567   8.996   1.125
 9714WAT     H129384   7.538   8.977   1.219
 9714WAT     H229385   7.497   9.049   1.078
 9715WAT      O29386   3.887   7.880   0.689
 9715WAT     H129387   3.806   7.826   0.668
 9715WAT     H229388   3.963   7.851   0.631
 9716WAT      O29389   1.926   3.641   2.348
 9716WAT     H129390   1.917   3.588   2.432
 9716WAT     H229391   1.861   3.716   2.348
 9717WAT      O29392   8.413   7.727   7.794
 9717WAT     H129393   8.334   7.734   7.855
 9717WAT     H229394   8.383   7.700   7.703
 9718WAT      O29395   7.732   3.078   7.853
 9718WAT     H129396   7.647   3.025   7.853
 9718WAT     H229397   7.710   3.176   7.850
 9719WAT      O29398   3.510   4.229   6.482
 9719WAT     H129399   3.578   4.166   6.443
 9719WAT     H229400   3.547   4.272   6.563
 9720WAT      O29401   6.630   9.422   4.590
 9720WAT     H129402   6.543   9.395   4.630
 9720WAT     H229403   6.668   9.499   4.642
 9721WAT      O29404   7.191   3.235   5.233
 9721WAT     H129405   7.262   3.189   5.181
 9721WAT     H229406   7.120   3.267   5.170
 9722WAT      O29407   8.162   2.502   9.890
 9722WAT     H129408   8.125   2.523   9.799
 9722WAT     H229409   8.198   2.586   9.931
 9723WAT      O29410   2.495   1.528   6.667
 9723WAT     H129411   2.435   1.451   6.690
 9723WAT     H229412   2.479   1.603   6.731
 9724WAT      O29413   2.778   1.969   8.631
 9724WAT     H129414   2.742   1.970   8.724
 9724WAT     H229415   2.856   1.907   8.626
 9725WAT      O29416   2.265   7.736   9.322
 9725WAT     H129417   2.182   7.790   9.330
 9725WAT     H229418   2.319   7.769   9.244
 9726WAT      O29419   3.142   4.806   7.571
 9726WAT     H129420   3.068   4.752   7.611
 9726WAT     H229421   3.225   4.795   7.626
 9727WAT      O29422   8.634   5.389   7.546
 9727WAT     H129423   8.714   5.354   7.496
 9727WAT     H229424   8.571   5.313   7.565
 9728WAT      O29425   4.932   3.735   5.712
 9728WAT     H129426   4.914   3.663   5.779
 9728WAT     H229427   4.936   3.695   5.620
 9729WAT      O29428   8.766   9.828   8.571
 9729WAT     H129429   8.858   9.859   8.547
 9729WAT     H229430   8.705   9.839   8.493
 9730WAT      O29431   6.471   8.960   6.657
 9730WAT     H129432   6.408   9.037   6.652
 9730WAT     H229433   6.540   8.967   6.585
 9731WAT      O29434   5.070   6.761   9.038
 9731WAT     H129435   5.003   6.791   8.971
 9731WAT     H229436   5.162   6.771   9.000
 9732WAT      O29437   1.805   3.752   6.390
 9732WAT     H129438   1.859   3.835   6.401
 9732WAT     H229439   1.866   3.673   6.379
 9733WAT      O29440   4.785   6.452   2.905
 9733WAT     H129441   4.872   6.476   2.947
 9733WAT     H229442   4.736   6.535   2.879
 9734WAT      O29443   8.558   2.753   6.673
 9734WAT     H129444   8.509   2.822   6.726
 9734WAT     H229445   8.493   2.683   6.643
 9735WAT      O29446   1.645   6.839   1.930
 9735WAT     H129447   1.662   6.758   1.986
 9735WAT     H229448   1.568   6.890   1.968
 9736WAT      O29449   8.646   9.312   8.912
 9736WAT     H129450   8.670   9.249   8.986
 9736WAT     H229451   8.671   9.270   8.824
 9737WAT      O29452   5.083   9.553   8.243
 9737WAT     H129453   4.989   9.586   8.255
 9737WAT     H229454   5.132   9.613   8.180
 9738WAT      O29455   1.562   9.292   7.802
 9738WAT     H129456   1.523   9.208   7.764
 9738WAT     H229457   1.531   9.303   7.896
 9739WAT      O29458   1.705   3.274   2.139
 9739WAT     H129459   1.770   3.287   2.064
 9739WAT     H229460   1.674   3.363   2.172
 9740WAT      O29461   2.130   3.907   3.093
 9740WAT     H129462   2.219   3.927   3.052
 9740WAT     H229463   2.085   3.992   3.119
 9741WAT      O29464   7.750   8.789   8.988
 9741WAT     H129465   7.710   8.867   9.037
 9741WAT     H229466   7.684   8.752   8.923
 9742WAT      O29467   2.847   3.472   3.908
 9742WAT     H129468   2.759   3.439   3.941
 9742WAT     H229469   2.835   3.559   3.861
 9743WAT      O29470   2.060   2.911   4.422
 9743WAT     H129471   2.010   2.829   4.394
 9743WAT     H229472   2.157   2.901   4.399
 9744WAT      O29473   0.056   4.114   7.425
 9744WAT     H129474   0.032   4.202   7.383
 9744WAT     H229475  -0.019   4.083   7.483
 9745WAT      O29476   7.974   1.396   2.869
 9745WAT     H129477   7.883   1.394   2.909
 9745WAT     H229478   7.969   1.365   2.773
 9746WAT      O29479   7.155   4.118   1.232
 9746WAT     H129480   7.153   4.146   1.136
 9746WAT     H229481   7.133   4.020   1.238
 9747WAT      O29482   9.844   9.734   6.166
 9747WAT     H129483   9.898   9.773   6.091
 9747WAT     H229484   9.904   9.695   6.235
 9748WAT      O29485   3.588   9.738   2.829
 9748WAT     H129486   3.585   9.804   2.754
 9748WAT     H229487   3.501   9.738   2.877
 9749WAT      O29488   8.684   3.454   2.304
 9749WAT     H129489   8.652   3.380   2.363
 9749WAT     H229490   8.680   3.425   2.209
 9750WAT      O29491   2.260   5.923   7.112
 9750WAT     H129492   2.277   5.980   7.192
 9750WAT     H229493   2.228   5.980   7.036
 9751WAT      O29494   4.033   0.746   7.071
 9751WAT     H129495   3.994   0.763   6.980
 9751WAT     H229496   4.130   0.769   7.070
 9752WAT      O29497   8.362   2.190   3.782
 9752WAT     H129498   8.341   2.146   3.695
 9752WAT     H229499   8.280   2.195   3.838
 9753WAT      O29500   1.151   3.163   6.393
 9753WAT     H129501   1.138   3.188   6.297
 9753WAT     H229502   1.203   3.078   6.399
 9754WAT      O29503   0.470   7.622   1.566
 9754WAT     H129504   0.414   7.557   1.514
 9754WAT     H229505   0.421   7.649   1.649
 9755WAT      O29506   1.327   1.681   3.398
 9755WAT     H129507   1.355   1.778   3.396
 9755WAT     H229508   1.385   1.629   3.336
 9756WAT      O29509   6.859   2.869   3.898
 9756WAT     H129510   6.789   2.940   3.911
 9756WAT     H229511   6.847   2.798   3.967
 9757WAT      O29512   3.564   2.315   7.385
 9757WAT     H129513   3.625   2.368   7.445
 9757WAT     H229514   3.551   2.224   7.424
 9758WAT      O29515   3.780   3.427   1.066
 9758WAT     H129516   3.706   3.374   1.026
 9758WAT     H229517   3.790   3.514   1.017
 9759WAT      O29518   0.318   4.996   2.144
 9759WAT     H129519   0.309   5.013   2.045
 9759WAT     H229520   0.248   4.931   2.173
 9760WAT      O29521   2.008   9.326   5.911
 9760WAT     H129522   2.073   9.312   5.986
 9760WAT     H229523   2.033   9.265   5.835
 9761WAT      O29524   6.160   6.579   1.877
 9761WAT     H129525   6.171   6.645   1.952
 9761WAT     H229526   6.226   6.505   1.889
 9762WAT      O29527   7.450   6.377   4.512
 9762WAT     H129528   7.437   6.476   4.511
 9762WAT     H229529   7.384   6.334   4.451
 9763WAT      O29530   4.305   5.279   6.951
 9763WAT     H129531   4.347   5.214   6.887
 9763WAT     H229532   4.228   5.235   6.997
 9764WAT      O29533   4.962   8.989   5.910
 9764WAT     H129534   4.906   9.023   5.835
 9764WAT     H229535   4.991   9.065   5.968
 9765WAT      O29536   6.764   6.126   2.278
 9765WAT     H129537   6.680   6.145   2.229
 9765WAT     H229538   6.770   6.185   2.359
 9766WAT      O29539   0.115   9.218   2.083
 9766WAT     H129540   0.131   9.174   1.994
 9766WAT     H229541   0.076   9.308   2.069
 9767WAT      O29542   7.254   8.153   8.992
 9767WAT     H129543   7.333   8.105   8.952
 9767WAT     H229544   7.235   8.236   8.939
 9768WAT      O29545   3.092   8.042   5.867
 9768WAT     H129546   3.090   8.022   5.769
 9768WAT     H229547   3.080   7.958   5.919
 9769WAT      O29548   1.911   1.339   2.584
 9769WAT     H129549   1.944   1.329   2.490
 9769WAT     H229550   1.813   1.317   2.587
 9770WAT      O29551   4.983   3.062   3.760
 9770WAT     H129552   4.960   3.051   3.663
 9770WAT     H229553   4.904   3.100   3.808
 9771WAT      O29554   5.829   1.239   5.166
 9771WAT     H129555   5.751   1.232   5.104
 9771WAT     H229556   5.803   1.291   5.248
 9772WAT      O29557   4.306   5.394   7.848
 9772WAT     H129558   4.295   5.399   7.749
 9772WAT     H229559   4.372   5.322   7.870
 9773WAT      O29560   0.162   6.872   2.833
 9773WAT     H129561   0.069   6.895   2.803
 9773WAT     H229562   0.219   6.954   2.829
 9774WAT      O29563   4.263   4.651   0.920
 9774WAT     H129564   4.257   4.606   1.008
 9774WAT     H229565   4.175   4.647   0.874
 9775WAT      O29566   4.881   9.563   7.104
 9775WAT     H129567   4.918   9.505   7.177
 9775WAT     H229568   4.886   9.514   7.017
 9776WAT      O29569   6.077   8.921   8.167
 9776WAT     H129570   6.075   8.862   8.086
 9776WAT     H229571   6.031   8.875   8.243
 9777WAT      O29572   0.007   4.909   2.111
 9777WAT     H129573   0.023   4.972   2.035
 9777WAT     H229574   0.005   4.815   2.076
 9778WAT      O29575   2.632   7.692   2.425
 9778WAT     H129576   2.674   7.715   2.337
 9778WAT     H229577   2.666   7.603   2.456
 9779WAT      O29578   0.541   7.441   8.709
 9779WAT     H129579   0.511   7.366   8.651
 9779WAT     H229580   0.590   7.509   8.654
 9780WAT      O29581   8.592   5.948   2.380
 9780WAT     H129582   8.562   5.971   2.473
 9780WAT     H229583   8.536   5.998   2.314
 9781WAT      O29584   7.078   0.177   1.949
 9781WAT     H129585   6.980   0.166   1.968
 9781WAT     H229586   7.131   0.119   2.011
 9782WAT      O29587   5.832   2.602   0.782
 9782WAT     H129588   5.857   2.571   0.874
 9782WAT     H229589   5.915   2.625   0.731
 9783WAT      O29590   8.096   4.872   9.409
 9783WAT     H129591   8.115   4.941   9.479
 9783WAT     H229592   8.151   4.790   9.428
 9784WAT      O29593   7.223   9.235   0.413
 9784WAT     H129594   7.285   9.158   0.398
 9784WAT     H229595   7.275   9.312   0.450
 9785WAT      O29596   2.763   0.000   0.111
 9785WAT     H129597   2.815  -0.045   0.184
 9785WAT     H229598   2.724   0.085   0.147
 9786WAT      O29599   1.978   2.150   0.519
 9786WAT     H129600   1.928   2.168   0.604
 9786WAT     H229601   1.929   2.080   0.466
 9787WAT      O29602   8.564   5.873   8.432
 9787WAT     H129603   8.648   5.821   8.449
 9787WAT     H229604   8.580   5.969   8.453
 9788WAT      O29605   5.203   8.783   6.848
 9788WAT     H129606   5.231   8.707   6.907
 9788WAT     H229607   5.279   8.807   6.787
 9789WAT      O29608   3.480   9.189   7.542
 9789WAT     H129609   3.518   9.134   7.617
 9789WAT     H229610   3.380   9.180   7.541
 9790WAT      O29611   2.457   3.813   1.804
 9790WAT     H129612   2.370   3.775   1.838
 9790WAT     H229613   2.533   3.773   1.855
 9791WAT      O29614   3.373   2.310   9.483
 9791WAT     H129615   3.365   2.391   9.424
 9791WAT     H229616   3.434   2.331   9.559
 9792WAT      O29617   7.170   3.192   8.719
 9792WAT     H129618   7.124   3.227   8.637
 9792WAT     H229619   7.207   3.101   8.700
 9793WAT      O29620   0.689   7.837   8.007
 9793WAT     H129621   0.680   7.759   7.945
 9793WAT     H229622   0.651   7.918   7.963
 9794WAT      O29623   7.624   3.590   3.346
 9794WAT     H129624   7.544   3.560   3.295
 9794WAT     H229625   7.707   3.568   3.296
 9795WAT      O29626   6.200   1.498   8.773
 9795WAT     H129627   6.133   1.492   8.699
 9795WAT     H229628   6.261   1.419   8.769
 9796WAT      O29629   7.195   4.953   3.466
 9796WAT     H129630   7.095   4.952   3.472
 9796WAT     H229631   7.226   4.865   3.430
 9797WAT      O29632   3.028   0.551   7.651
 9797WAT     H129633   3.105   0.514   7.598
 9797WAT     H229634   3.024   0.507   7.740
 9798WAT      O29635   2.757   4.334   7.631
 9798WAT     H129636   2.849   4.352   7.595
 9798WAT     H229637   2.693   4.319   7.556
 9799WAT      O29638   1.166   0.012   7.248
 9799WAT     H129639   1.188  -0.025   7.338
 9799WAT     H229640   1.240   0.072   7.218
 9800WAT      O29641   7.558   6.288   5.533
 9800WAT     H129642   7.558   6.195   5.496
 9800WAT     H229643   7.528   6.286   5.628
 9801WAT      O29644   8.878   6.468   4.922
 9801WAT     H129645   8.808   6.414   4.876
 9801WAT     H229646   8.968   6.428   4.905
 9802WAT      O29647   5.259   4.731   9.378
 9802WAT     H129648   5.336   4.795   9.384
 9802WAT     H229649   5.244   4.705   9.282
 9803WAT      O29650   3.236   6.063   3.091
 9803WAT     H129651   3.275   6.018   3.172
 9803WAT     H229652   3.136   6.069   3.102
 9804WAT      O29653   0.908   2.230   3.905
 9804WAT     H129654   0.937   2.325   3.897
 9804WAT     H229655   0.817   2.226   3.945
 9805WAT      O29656   1.773   0.750   4.442
 9805WAT     H129657   1.783   0.768   4.539
 9805WAT     H229658   1.703   0.810   4.404
 9806WAT      O29659   7.365   7.587   4.468
 9806WAT     H129660   7.422   7.596   4.387
 9806WAT     H229661   7.312   7.502   4.463
 9807WAT      O29662   5.234   6.729   9.754
 9807WAT     H129663   5.310   6.710   9.816
 9807WAT     H229664   5.222   6.650   9.692
 9808WAT      O29665   7.979   6.020   1.115
 9808WAT     H129666   7.940   6.052   1.201
 9808WAT     H229667   8.013   6.098   1.063
 9809WAT      O29668   9.094   1.264   7.692
 9809WAT     H129669   9.157   1.333   7.656
 9809WAT     H229670   9.127   1.173   7.666
 9810WAT      O29671   4.639   8.729   0.820
 9810WAT     H129672   4.650   8.637   0.858
 9810WAT     H229673   4.549   8.737   0.776
 9811WAT      O29674   9.187   8.322   9.000
 9811WAT     H129675   9.221   8.312   9.093
 9811WAT     H229676   9.222   8.246   8.944
 9812WAT      O29677   9.808   7.178   9.610
 9812WAT     H129678   9.715   7.194   9.576
 9812WAT     H229679   9.867   7.150   9.534
 9813WAT      O29680   6.006   2.419   4.514
 9813WAT     H129681   6.049   2.500   4.475
 9813WAT     H229682   6.026   2.413   4.612
 9814WAT      O29683   0.397   2.205   0.579
 9814WAT     H129684   0.361   2.160   0.661
 9814WAT     H229685   0.492   2.232   0.595
 9815WAT      O29686   3.633   8.773   3.025
 9815WAT     H129687   3.576   8.816   2.955
 9815WAT     H229688   3.694   8.706   2.982
 9816WAT      O29689   3.866   0.008   3.845
 9816WAT     H129690   3.960   0.002   3.879
 9816WAT     H229691   3.817   0.078   3.896
 9817WAT      O29692   0.078   0.484   3.191
 9817WAT     H129693   0.077   0.394   3.233
 9817WAT     H229694   0.115   0.551   3.256
 9818WAT      O29695   0.438   4.324   9.385
 9818WAT     H129696   0.377   4.297   9.459
 9818WAT     H229697   0.388   4.321   9.298
 9819WAT      O29698   9.562   5.450   8.694
 9819WAT     H129699   9.591   5.544   8.672
 9819WAT     H229700   9.622   5.385   8.647
 9820WAT      O29701   7.442   3.200   9.202
 9820WAT     H129702   7.507   3.168   9.134
 9820WAT     H229703   7.372   3.257   9.157
 9821WAT      O29704   6.666   1.552   0.760
 9821WAT     H129705   6.631   1.642   0.788
 9821WAT     H229706   6.765   1.555   0.755
 9822WAT      O29707   5.503   6.787   4.965
 9822WAT     H129708   5.473   6.867   5.016
 9822WAT     H229709   5.576   6.741   5.015
 9823WAT      O29710   9.528   8.858   8.607
 9823WAT     H129711   9.597   8.872   8.536
 9823WAT     H229712   9.572   8.819   8.688
 9824WAT      O29713   1.418   2.318   7.213
 9824WAT     H129714   1.508   2.317   7.256
 9824WAT     H229715   1.403   2.233   7.163
 9825WAT      O29716   2.743   5.326   3.757
 9825WAT     H129717   2.791   5.321   3.845
 9825WAT     H229718   2.793   5.272   3.690
 9826WAT      O29719   5.347   0.737   6.451
 9826WAT     H129720   5.353   0.836   6.435
 9826WAT     H229721   5.400   0.713   6.533
 9827WAT      O29722   0.328   0.510   8.721
 9827WAT     H129723   0.390   0.569   8.772
 9827WAT     H229724   0.376   0.472   8.642
 9828WAT      O29725   3.467   5.082   8.703
 9828WAT     H129726   3.533   5.075   8.778
 9828WAT     H229727   3.474   5.001   8.645
 9829WAT      O29728   2.372   4.716   5.900
 9829WAT     H129729   2.446   4.692   5.962
 9829WAT     H229730   2.330   4.633   5.864
 9830WAT      O29731   5.835   6.778   3.528
 9830WAT     H129732   5.816   6.693   3.576
 9830WAT     H229733   5.751   6.811   3.484
 9831WAT      O29734   2.901   5.927   1.863
 9831WAT     H129735   2.832   5.933   1.791
 9831WAT     H229736   2.859   5.944   1.952
 9832WAT      O29737   1.544   7.134   5.726
 9832WAT     H129738   1.585   7.051   5.764
 9832WAT     H229739   1.580   7.148   5.633
 9833WAT      O29740   2.540   2.442   7.014
 9833WAT     H129741   2.595   2.480   6.939
 9833WAT     H229742   2.515   2.348   6.993
 9834WAT      O29743   9.486   8.452   1.731
 9834WAT     H129744   9.579   8.420   1.713
 9834WAT     H229745   9.442   8.475   1.644
 9835WAT      O29746   4.889   9.174   9.870
 9835WAT     H129747   4.908   9.090   9.921
 9835WAT     H229748   4.930   9.167   9.779
 9836WAT      O29749   2.463   3.901   9.614
 9836WAT     H129750   2.387   3.967   9.614
 9836WAT     H229751   2.476   3.865   9.521
 9837WAT      O29752   5.037   3.985   6.713
 9837WAT     H129753   5.034   4.082   6.688
 9837WAT     H229754   4.974   3.934   6.655
 9838WAT      O29755   1.688   5.072   7.786
 9838WAT     H129756   1.615   5.004   7.787
 9838WAT     H229757   1.748   5.058   7.864
 9839WAT      O29758   7.147   2.261   6.863
 9839WAT     H129759   7.229   2.207   6.878
 9839WAT     H229760   7.138   2.329   6.936
 9840WAT      O29761   2.737   0.571   9.115
 9840WAT     H129762   2.796   0.492   9.134
 9840WAT     H229763   2.758   0.645   9.178
 9841WAT      O29764   5.845   6.217   1.414
 9841WAT     H129765   5.885   6.130   1.443
 9841WAT     H229766   5.906   6.292   1.444
 9842WAT      O29767   4.040   9.609   3.959
 9842WAT     H129768   4.026   9.511   3.946
 9842WAT     H229769   4.122   9.637   3.909
 9843WAT      O29770   8.968   1.031   5.070
 9843WAT     H129771   9.010   0.951   5.027
 9843WAT     H229772   8.880   1.049   5.026
 9844WAT      O29773   3.102   4.727   4.107
 9844WAT     H129774   3.197   4.753   4.092
 9844WAT     H229775   3.091   4.629   4.092
 9845WAT      O29776   0.645   1.752   9.092
 9845WAT     H129777   0.645   1.670   9.034
 9845WAT     H229778   0.691   1.827   9.044
 9846WAT      O29779   7.998   2.297   4.819
 9846WAT     H129780   7.982   2.338   4.729
 9846WAT     H229781   8.067   2.351   4.867
 9847WAT      O29782   1.390   6.097   3.927
 9847WAT     H129783   1.462   6.053   3.979
 9847WAT     H229784   1.304   6.091   3.977
 9848WAT      O29785   8.842   3.775   8.805
 9848WAT     H129786   8.934   3.738   8.816
 9848WAT     H229787   8.787   3.752   8.885
 9849WAT      O29788   4.782   3.610   1.434
 9849WAT     H129789   4.688   3.619   1.467
 9849WAT     H229790   4.846   3.631   1.508
 9850WAT      O29791   7.025   7.250   0.629
 9850WAT     H129792   7.062   7.343   0.624
 9850WAT     H229793   7.012   7.214   0.536
 9851WAT      O29794   7.142   7.351   2.607
 9851WAT     H129795   7.140   7.272   2.668
 9851WAT     H229796   7.073   7.340   2.536
 9852WAT      O29797   4.142   8.669   5.261
 9852WAT     H129798   4.094   8.589   5.223
 9852WAT     H229799   4.229   8.680   5.214
 9853WAT      O29800   0.679   3.702   1.230
 9853WAT     H129801   0.737   3.774   1.191
 9853WAT     H229802   0.728   3.616   1.231
 9854WAT      O29803   1.522   8.387   8.204
 9854WAT     H129804   1.428   8.386   8.237
 9854WAT     H229805   1.535   8.314   8.137
 9855WAT      O29806   1.218   0.008   3.615
 9855WAT     H129807   1.268   0.071   3.556
 9855WAT     H229808   1.273  -0.073   3.632
 9856WAT      O29809   5.956   1.713   5.181
 9856WAT     H129810   5.952   1.685   5.085
 9856WAT     H229811   5.975   1.634   5.239
 9857WAT      O29812   0.089   7.171   0.870
 9857WAT     H129813   0.084   7.082   0.825
 9857WAT     H229814   0.095   7.159   0.969
 9858WAT      O29815   2.870   3.590   0.003
 9858WAT     H129816   2.843   3.684   0.023
 9858WAT     H229817   2.796   3.528   0.030
 9859WAT      O29818   2.705   7.863   5.418
 9859WAT     H129819   2.605   7.859   5.410
 9859WAT     H229820   2.739   7.777   5.456
 9860WAT      O29821   7.477   5.120   1.866
 9860WAT     H129822   7.498   5.034   1.818
 9860WAT     H229823   7.515   5.115   1.959
 9861WAT      O29824   0.591   2.668   4.007
 9861WAT     H129825   0.590   2.616   4.092
 9861WAT     H229826   0.653   2.746   4.017
 9862WAT      O29827   6.135   6.773   1.673
 9862WAT     H129828   6.089   6.762   1.585
 9862WAT     H229829   6.168   6.685   1.705
 9863WAT      O29830   8.932   3.746   6.981
 9863WAT     H129831   8.947   3.705   6.891
 9863WAT     H229832   8.853   3.703   7.025
 9864WAT      O29833   0.557   2.331   5.005
 9864WAT     H129834   0.522   2.244   4.970
 9864WAT     H229835   0.642   2.316   5.055
 9865WAT      O29836   0.534   6.752   8.954
 9865WAT     H129837   0.455   6.691   8.961
 9865WAT     H229838   0.505   6.846   8.972
 9866WAT      O29839   2.289   9.704   1.477
 9866WAT     H129840   2.326   9.617   1.443
 9866WAT     H229841   2.347   9.779   1.445
 9867WAT      O29842   0.295   4.923   3.341
 9867WAT     H129843   0.310   4.999   3.278
 9867WAT     H229844   0.318   4.952   3.434
 9868WAT      O29845   1.621   8.648   1.774
 9868WAT     H129846   1.570   8.563   1.791
 9868WAT     H229847   1.708   8.644   1.823
 9869WAT      O29848   4.842   8.097   6.674
 9869WAT     H129849   4.851   8.035   6.595
 9869WAT     H229850   4.796   8.181   6.645
 9870WAT      O29851   6.147   6.988   3.178
 9870WAT     H129852   6.198   6.947   3.103
 9870WAT     H229853   6.079   6.924   3.212
 9871WAT      O29854   1.201   3.418   5.183
 9871WAT     H129855   1.255   3.478   5.242
 9871WAT     H229856   1.151   3.351   5.239
 9872WAT      O29857   3.224   8.949   8.042
 9872WAT     H129858   3.147   8.954   7.979
 9872WAT     H229859   3.309   8.964   7.992
 9873WAT      O29860   2.092   8.722   1.929
 9873WAT     H129861   2.107   8.720   1.830
 9873WAT     H229862   2.158   8.783   1.972
 9874WAT      O29863   8.826   9.567   8.659
 9874WAT     H129864   8.789   9.569   8.752
 9874WAT     H229865   8.798   9.650   8.610
 9875WAT      O29866   6.316   6.331   2.297
 9875WAT     H129867   6.286   6.273   2.222
 9875WAT     H229868   6.273   6.421   2.289
 9876WAT      O29869   4.820   4.554   7.441
 9876WAT     H129870   4.832   4.477   7.504
 9876WAT     H229871   4.729   4.549   7.399
 9877WAT      O29872   4.058   5.449   7.985
 9877WAT     H129873   4.081   5.470   8.080
 9877WAT     H229874   4.142   5.438   7.932
 9878WAT      O29875   9.466   1.321   1.736
 9878WAT     H129876   9.380   1.335   1.785
 9878WAT     H229877   9.510   1.410   1.722
 9879WAT      O29878   0.368   1.092   2.567
 9879WAT     H129879   0.423   1.144   2.633
 9879WAT     H229880   0.429   1.043   2.505
 9880WAT      O29881   9.356   1.248   9.096
 9880WAT     H129882   9.346   1.149   9.100
 9880WAT     H229883   9.322   1.288   9.181
 9881WAT      O29884   4.033   8.360   9.431
 9881WAT     H129885   4.038   8.373   9.530
 9881WAT     H229886   3.967   8.425   9.392
 9882WAT      O29887   0.169   5.215   9.835
 9882WAT     H129888   0.212   5.263   9.911
 9882WAT     H229889   0.173   5.272   9.753
 9883WAT      O29890   0.484   8.166   5.489
 9883WAT     H129891   0.397   8.185   5.534
 9883WAT     H229892   0.511   8.243   5.431
 9884WAT      O29893   6.674   3.164   9.723
 9884WAT     H129894   6.588   3.207   9.696
 9884WAT     H229895   6.688   3.081   9.669
 9885WAT      O29896   2.576   6.757   6.203
 9885WAT     H129897   2.571   6.705   6.118
 9885WAT     H229898   2.483   6.782   6.232
 9886WAT      O29899   0.391   7.725   0.741
 9886WAT     H129900   0.300   7.749   0.773
 9886WAT     H229901   0.384   7.669   0.658
 9887WAT      O29902   9.782   3.756   9.381
 9887WAT     H129903   9.862   3.802   9.343
 9887WAT     H229904   9.716   3.824   9.412
 9888WAT      O29905   2.287   8.510   2.938
 9888WAT     H129906   2.192   8.503   2.969
 9888WAT     H229907   2.298   8.458   2.854
 9889WAT      O29908   5.669   0.163   7.559
 9889WAT     H129909   5.764   0.167   7.587
 9889WAT     H229910   5.637   0.254   7.534
 9890WAT      O29911   0.756   5.718   6.733
 9890WAT     H129912   0.826   5.650   6.751
 9890WAT     H229913   0.793   5.810   6.748
 9891WAT      O29914   1.287   1.173   7.898
 9891WAT     H129915   1.243   1.232   7.966
 9891WAT     H229916   1.304   1.225   7.814
 9892WAT      O29917   1.257   6.003   4.489
 9892WAT     H129918   1.210   6.091   4.482
 9892WAT     H229919   1.300   5.995   4.578
 9893WAT      O29920   2.941   6.693   6.130
 9893WAT     H129921   2.861   6.752   6.135
 9893WAT     H229922   2.991   6.698   6.216
 9894WAT      O29923   5.969   6.460   7.142
 9894WAT     H129924   6.019   6.406   7.210
 9894WAT     H229925   5.917   6.532   7.188
 9895WAT      O29926   6.082   5.051   9.215
 9895WAT     H129927   6.161   5.080   9.269
 9895WAT     H229928   6.113   4.994   9.139
 9896WAT      O29929   0.012   6.036   7.794
 9896WAT     H129930  -0.038   6.020   7.879
 9896WAT     H229931  -0.005   5.960   7.731
 9897WAT      O29932   3.455   2.078   4.271
 9897WAT     H129933   3.474   2.013   4.198
 9897WAT     H229934   3.387   2.144   4.241
 9898WAT      O29935   7.318   1.201   2.966
 9898WAT     H129936   7.280   1.147   3.040
 9898WAT     H229937   7.336   1.294   2.998
 9899WAT      O29938   4.508   5.076   6.460
 9899WAT     H129939   4.554   5.156   6.420
 9899WAT     H229940   4.417   5.103   6.492
 9900WAT      O29941   9.135   6.017   7.526
 9900WAT     H129942   9.077   6.020   7.608
 9900WAT     H229943   9.096   6.075   7.455
 9901WAT      O29944   2.794   0.949   5.096
 9901WAT     H129945   2.856   0.878   5.061
 9901WAT     H229946   2.700   0.914   5.095
 9902WAT      O29947   5.985   9.067   3.001
 9902WAT     H129948   5.972   9.035   3.095
 9902WAT     H229949   6.071   9.031   2.965
 9903WAT      O29950   2.223   4.116   9.696
 9903WAT     H129951   2.260   4.160   9.779
 9903WAT     H229952   2.196   4.187   9.631
 9904WAT      O29953   8.140   6.253   0.375
 9904WAT     H129954   8.162   6.292   0.285
 9904WAT     H229955   8.043   6.269   0.395
 9905WAT      O29956   6.974   5.056   2.846
 9905WAT     H129957   7.069   5.056   2.877
 9905WAT     H229958   6.928   5.139   2.879
 9906WAT      O29959   4.953   7.584   8.932
 9906WAT     H129960   4.959   7.541   9.022
 9906WAT     H229961   5.045   7.605   8.898
 9907WAT      O29962   9.307   2.409   2.086
 9907WAT     H129963   9.400   2.443   2.073
 9907WAT     H229964   9.308   2.309   2.092
 9908WAT      O29965   6.254   0.093   5.732
 9908WAT     H129966   6.338   0.079   5.784
 9908WAT     H229967   6.200   0.165   5.775
 9909WAT      O29968   3.101   4.906   7.123
 9909WAT     H129969   3.127   4.949   7.210
 9909WAT     H229970   3.002   4.913   7.111
 9910WAT      O29971   4.885   0.872   9.424
 9910WAT     H129972   4.808   0.898   9.482
 9910WAT     H229973   4.859   0.795   9.365
 9911WAT      O29974   8.773   6.454   9.705
 9911WAT     H129975   8.830   6.529   9.672
 9911WAT     H229976   8.678   6.484   9.710
 9912WAT      O29977   0.528   6.069   3.657
 9912WAT     H129978   0.449   6.070   3.718
 9912WAT     H229979   0.583   6.151   3.673
 9913WAT      O29980   7.670   9.808   5.996
 9913WAT     H129981   7.698   9.782   5.904
 9913WAT     H229982   7.686   9.906   6.010
 9914WAT      O29983   0.153   7.898   3.722
 9914WAT     H129984   0.162   7.995   3.700
 9914WAT     H229985   0.109   7.888   3.812
 9915WAT      O29986   4.599   7.348   6.848
 9915WAT     H129987   4.610   7.411   6.772
 9915WAT     H229988   4.502   7.326   6.860
 9916WAT      O29989   8.173   3.702   1.538
 9916WAT     H129990   8.209   3.794   1.529
 9916WAT     H229991   8.156   3.682   1.634
 9917WAT      O29992   3.421   7.456   4.649
 9917WAT     H129993   3.467   7.392   4.711
 9917WAT     H229994   3.490   7.502   4.593
 9918WAT      O29995   8.408   5.358   6.449
 9918WAT     H129996   8.385   5.439   6.396
 9918WAT     H229997   8.414   5.279   6.388
 9919WAT      O29998   2.178   5.960   2.434
 9919WAT     H129999   2.176   5.894   2.359
 9919WAT     H230000   2.112   5.932   2.504
 9920WAT      O30001   8.965   1.963   1.140
 9920WAT     H130002   8.940   1.930   1.049
 9920WAT     H230003   8.917   2.048   1.159
 9921WAT      O30004   2.743   1.211   2.975
 9921WAT     H130005   2.838   1.239   2.962
 9921WAT     H230006   2.740   1.119   3.012
 9922WAT      O30007   3.018   3.423   0.642
 9922WAT     H130008   3.049   3.421   0.547
 9922WAT     H230009   3.036   3.335   0.685
 9923WAT      O30010   9.590   8.267   2.752
 9923WAT     H130011   9.636   8.355   2.766
 9923WAT     H230012   9.560   8.231   2.840
 9924WAT      O30013   8.596   4.896   4.777
 9924WAT     H130014   8.508   4.935   4.748
 9924WAT     H230015   8.583   4.841   4.859
 9925WAT      O30016   2.787   2.158   6.414
 9925WAT     H130017   2.688   2.169   6.407
 9925WAT     H230018   2.827   2.243   6.448
 9926WAT      O30019   1.170   2.039   8.224
 9926WAT     H130020   1.225   2.068   8.303
 9926WAT     H230021   1.115   2.116   8.192
 9927WAT      O30022   9.742   0.273   8.690
 9927WAT     H130023   9.752   0.354   8.632
 9927WAT     H230024   9.747   0.299   8.786
 9928WAT      O30025   4.112   0.798   1.000
 9928WAT     H130026   4.170   0.721   0.973
 9928WAT     H230027   4.158   0.851   1.071
 9929WAT      O30028   8.918   7.801   4.066
 9929WAT     H130029   8.889   7.709   4.092
 9929WAT     H230030   8.999   7.796   4.008
 9930WAT      O30031   4.627   1.462   9.266
 9930WAT     H130032   4.651   1.518   9.187
 9930WAT     H230033   4.554   1.506   9.318
 9931WAT      O30034   0.780   1.564   6.717
 9931WAT     H130035   0.733   1.652   6.728
 9931WAT     H230036   0.746   1.517   6.635
 9932WAT      O30037   2.815   1.001   0.309
 9932WAT     H130038   2.914   1.003   0.323
 9932WAT     H230039   2.774   0.936   0.373
 9933WAT      O30040   1.051   1.057   8.705
 9933WAT     H130041   1.141   1.028   8.674
 9933WAT     H230042   1.057   1.150   8.742
 9934WAT      O30043   8.216   5.163   0.571
 9934WAT     H130044   8.215   5.263   0.575
 9934WAT     H230045   8.150   5.126   0.636
 9935WAT      O30046   4.166   8.797   1.781
 9935WAT     H130047   4.168   8.840   1.871
 9935WAT     H230048   4.223   8.849   1.717
 9936WAT      O30049   6.230   1.645   3.352
 9936WAT     H130050   6.234   1.737   3.389
 9936WAT     H230051   6.134   1.618   3.340
 9937WAT      O30052   3.073   2.809   9.105
 9937WAT     H130053   3.011   2.794   9.028
 9937WAT     H230054   3.090   2.722   9.151
 9938WAT      O30055   5.133   0.261   4.342
 9938WAT     H130056   5.220   0.274   4.295
 9938WAT     H230057   5.120   0.164   4.362
 9939WAT      O30058   2.805   2.676   3.296
 9939WAT     H130059   2.785   2.729   3.378
 9939WAT     H230060   2.904   2.665   3.287
 9940WAT      O30061   7.656   6.005   9.069
 9940WAT     H130062   7.593   5.959   9.132
 9940WAT     H230063   7.683   5.941   8.997
 9941WAT      O30064   3.855   1.546   1.731
 9941WAT     H130065   3.863   1.616   1.801
 9941WAT     H230066   3.883   1.583   1.642
 9942WAT      O30067   8.257   6.268   9.258
 9942WAT     H130068   8.266   6.185   9.313
 9942WAT     H230069   8.166   6.307   9.271
 9943WAT      O30070   2.777   9.817   8.816
 9943WAT     H130071   2.834   9.737   8.797
 9943WAT     H230072   2.703   9.791   8.879
 9944WAT      O30073   9.725   4.067   5.777
 9944WAT     H130074   9.736   4.069   5.876
 9944WAT     H230075   9.786   4.135   5.735
 9945WAT      O30076   8.089   4.668   3.297
 9945WAT     H130077   8.157   4.662   3.224
 9945WAT     H230078   7.998   4.650   3.260
 9946WAT      O30079   6.706   0.867   9.270
 9946WAT     H130080   6.634   0.908   9.326
 9946WAT     H230081   6.669   0.792   9.217
 9947WAT      O30082   5.128   9.537   6.768
 9947WAT     H130083   5.093   9.530   6.674
 9947WAT     H230084   5.213   9.484   6.776
 9948WAT      O30085   0.633   1.534   8.956
 9948WAT     H130086   0.690   1.462   8.995
 9948WAT     H230087   0.650   1.540   8.857
 9949WAT      O30088   3.165   3.455   9.626
 9949WAT     H130089   3.226   3.465   9.548
 9949WAT     H230090   3.198   3.511   9.702
 9950WAT      O30091   2.412   3.354   6.421
 9950WAT     H130092   2.480   3.428   6.416
 9950WAT     H230093   2.389   3.324   6.328
 9951WAT      O30094   2.428   2.221   3.984
 9951WAT     H130095   2.472   2.156   4.046
 9951WAT     H230096   2.423   2.183   3.892
 9952WAT      O30097   0.879   4.440   7.915
 9952WAT     H130098   0.935   4.501   7.972
 9952WAT     H230099   0.824   4.381   7.975
 9953WAT      O30100   9.636   7.874   0.688
 9953WAT     H130101   9.648   7.931   0.770
 9953WAT     H230102   9.694   7.793   0.695
 9954WAT      O30103   0.816   8.903   4.513
 9954WAT     H130104   0.721   8.871   4.523
 9954WAT     H230105   0.855   8.922   4.602
 9955WAT      O30106   6.671   7.485   9.088
 9955WAT     H130107   6.612   7.497   9.008
 9955WAT     H230108   6.754   7.437   9.062
 9956WAT      O30109   5.175   9.184   5.712
 9956WAT     H130110   5.249   9.251   5.699
 9956WAT     H230111   5.087   9.232   5.716
 9957WAT      O30112   6.573   6.528   7.662
 9957WAT     H130113   6.603   6.624   7.663
 9957WAT     H230114   6.581   6.491   7.570
 9958WAT      O30115   0.521   8.065   3.075
 9958WAT     H130116   0.472   8.091   2.992
 9958WAT     H230117   0.456   8.040   3.146
 9959WAT      O30118   9.744   9.791   9.121
 9959WAT     H130119   9.666   9.789   9.058
 9959WAT     H230120   9.721   9.737   9.203
 9960WAT      O30121   7.430   1.695   4.942
 9960WAT     H130122   7.384   1.706   4.854
 9960WAT     H230123   7.498   1.768   4.953
 9961WAT      O30124   9.763   2.997   5.049
 9961WAT     H130125   9.754   3.076   5.109
 9961WAT     H230126   9.689   2.933   5.068
 9962WAT      O30127   7.015   1.123   6.115
 9962WAT     H130128   7.053   1.166   6.033
 9962WAT     H230129   7.022   1.187   6.192
 9963WAT      O30130   1.393   9.820   2.263
 9963WAT     H130131   1.337   9.738   2.264
 9963WAT     H230132   1.417   9.844   2.169
 9964WAT      O30133   6.235   8.171   2.395
 9964WAT     H130134   6.308   8.125   2.446
 9964WAT     H230135   6.212   8.257   2.441
 9965WAT      O30136   5.348   7.947   6.512
 9965WAT     H130137   5.304   7.857   6.508
 9965WAT     H230138   5.447   7.936   6.503
 9966WAT      O30139   4.049   4.421   4.849
 9966WAT     H130140   4.144   4.434   4.880
 9966WAT     H230141   4.044   4.337   4.794
 9967WAT      O30142   8.464   5.142   2.427
 9967WAT     H130143   8.414   5.084   2.491
 9967WAT     H230144   8.545   5.180   2.472
 9968WAT      O30145   3.116   7.295   9.036
 9968WAT     H130146   3.045   7.341   9.089
 9968WAT     H230147   3.203   7.344   9.046
 9969WAT      O30148   3.503   0.500   2.059
 9969WAT     H130149   3.489   0.417   2.005
 9969WAT     H230150   3.568   0.482   2.132
 9970WAT      O30151   3.057   8.465   6.871
 9970WAT     H130152   2.965   8.492   6.900
 9970WAT     H230153   3.055   8.371   6.838
 9971WAT      O30154   9.561   3.364   3.925
 9971WAT     H130155   9.545   3.455   3.962
 9971WAT     H230156   9.605   3.372   3.835
 9972WAT      O30157   6.571   3.674   8.810
 9972WAT     H130158   6.610   3.691   8.900
 9972WAT     H230159   6.513   3.592   8.814
 9973WAT      O30160   7.226   6.317   9.242
 9973WAT     H130161   7.238   6.221   9.265
 9973WAT     H230162   7.173   6.325   9.158
 9974WAT      O30163   0.669   5.875   0.192
 9974WAT     H130164   0.759   5.835   0.178
 9974WAT     H230165   0.609   5.808   0.235
 9975WAT      O30166   9.518   5.061   7.897
 9975WAT     H130167   9.502   5.102   7.987
 9975WAT     H230168   9.445   4.995   7.877
 9976WAT      O30169   5.560   6.705   3.851
 9976WAT     H130170   5.616   6.628   3.820
 9976WAT     H230171   5.596   6.790   3.813
 9977WAT      O30172   7.227   9.079   1.427
 9977WAT     H130173   7.243   9.106   1.332
 9977WAT     H230174   7.285   9.001   1.449
 9978WAT      O30175   8.569   3.601   5.429
 9978WAT     H130176   8.552   3.655   5.347
 9978WAT     H230177   8.576   3.661   5.509
 9979WAT      O30178   5.227   7.444   3.784
 9979WAT     H130179   5.142   7.432   3.733
 9979WAT     H230180   5.206   7.473   3.878
 9980WAT      O30181   9.817   5.258   9.256
 9980WAT     H130182   9.888   5.316   9.297
 9980WAT     H230183   9.853   5.212   9.176
 9981WAT      O30184   7.394   2.452   8.967
 9981WAT     H130185   7.458   2.509   9.019
 9981WAT     H230186   7.414   2.356   8.985
 9982WAT      O30187   4.804   8.590   6.522
 9982WAT     H130188   4.823   8.614   6.427
 9982WAT     H230189   4.789   8.673   6.576
 9983WAT      O30190   2.794   3.074   0.794
 9983WAT     H130191   2.790   3.145   0.864
 9983WAT     H230192   2.884   3.031   0.794
 9984WAT      O30193   5.261   3.472   1.963
 9984WAT     H130194   5.318   3.420   2.026
 9984WAT     H230195   5.285   3.569   1.969
 9985WAT      O30196   8.147   9.454   6.147
 9985WAT     H130197   8.068   9.514   6.138
 9985WAT     H230198   8.129   9.367   6.101
 9986WAT      O30199   7.245   8.142   6.292
 9986WAT     H130200   7.168   8.120   6.231
 9986WAT     H230201   7.331   8.133   6.242
 9987WAT      O30202   5.368   6.470   9.460
 9987WAT     H130203   5.435   6.543   9.473
 9987WAT     H230204   5.277   6.504   9.483
 9988WAT      O30205   2.123   7.108   1.226
 9988WAT     H130206   2.121   7.159   1.313
 9988WAT     H230207   2.196   7.145   1.168
 9989WAT      O30208   6.477   7.092   6.131
 9989WAT     H130209   6.385   7.062   6.108
 9989WAT     H230210   6.478   7.130   6.223
 9990WAT      O30211   2.020   7.233   3.511
 9990WAT     H130212   1.936   7.231   3.456
 9990WAT     H230213   2.046   7.329   3.528
 9991WAT      O30214   9.053   4.724   3.999
 9991WAT     H130215   9.103   4.647   4.040
 9991WAT     H230216   9.020   4.698   3.909
 9992WAT      O30217   8.905   2.641   9.700
 9992WAT     H130218   8.825   2.681   9.657
 9992WAT     H230219   8.941   2.568   9.642
 9993WAT      O30220   1.084   6.626   0.183
 9993WAT     H130221   1.100   6.626   0.084
 9993WAT     H230222   1.115   6.713   0.222
 9994WAT      O30223   5.986   3.017   1.247
 9994WAT     H130224   5.994   2.924   1.210
 9994WAT     H230225   5.890   3.046   1.242
 9995WAT      O30226   9.233   2.092   4.728
 9995WAT     H130227   9.213   2.001   4.765
 9995WAT     H230228   9.167   2.114   4.656
 9996WAT      O30229   0.648   8.544   9.853
 9996WAT     H130230   0.748   8.544   9.857
 9996WAT     H230231   0.616   8.636   9.831
 9997WAT      O30232   0.717   1.731   1.370
 9997WAT     H130233   0.701   1.732   1.469
 9997WAT     H230234   0.777   1.655   1.347
 9998WAT      O30235   3.323   2.060   7.064
 9998WAT     H130236   3.416   2.029   7.044
 9998WAT     H230237   3.307   2.149   7.022
 9999WAT      O30238   5.122   6.077   7.031
 9999WAT     H130239   5.208   6.027   7.038
 9999WAT     H230240   5.073   6.073   7.118
10000WAT      O30241   4.617   0.501   6.021
10000WAT     H130242   4.677   0.579   6.039
10000WAT     H230243   4.647   0.456   5.937
10001WAT      O30244   6.854   3.863   5.866
10001WAT     H130245   6.767   3.842   5.822
10001WAT     H230246   6.888   3.951   5.834
10002WAT      O30247   0.849   4.901   4.140
10002WAT     H130248   0.772   4.955   4.174
10002WAT     H230249   0.926   4.961   4.120
10003WAT      O30250   5.338   0.152   0.961
10003WAT     H130251   5.349   0.252   0.963
10003WAT     H230252   5.257   0.127   1.014
10004WAT      O30253   4.816   7.505   1.973
10004WAT     H130254   4.897   7.476   1.922
10004WAT     H230255   4.745   7.435   1.963
10005WAT      O30256   0.041   6.164   5.123
10005WAT     H130257   0.031   6.208   5.034
10005WAT     H230258   0.039   6.233   5.196
10006WAT      O30259   1.598   4.395   4.051
10006WAT     H130260   1.609   4.353   4.141
10006WAT     H230261   1.598   4.324   3.981
10007WAT      O30262   8.694   5.915   1.592
10007WAT     H130263   8.779   5.868   1.569
10007WAT     H230264   8.651   5.950   1.509
10008WAT      O30265   6.244   8.607   0.092
10008WAT     H130266   6.184   8.530   0.115
10008WAT     H230267   6.235   8.678   0.162
10009WAT      O30268   8.538   4.798   8.878
10009WAT     H130269   8.462   4.816   8.941
10009WAT     H230270   8.506   4.741   8.803
10010WAT      O30271   1.201   5.146   6.650
10010WAT     H130272   1.117   5.110   6.692
10010WAT     H230273   1.202   5.246   6.658
10011WAT      O30274   5.235   7.029   7.898
10011WAT     H130275   5.219   7.123   7.866
10011WAT     H230276   5.178   7.012   7.978
10012WAT      O30277   2.674   3.558   9.421
10012WAT     H130278   2.661   3.507   9.506
10012WAT     H230279   2.613   3.637   9.419
10013WAT      O30280   1.879   0.831   2.707
10013WAT     H130281   1.899   0.743   2.663
10013WAT     H230282   1.780   0.847   2.706
10014WAT      O30283   5.323   0.997   5.642
10014WAT     H130284   5.333   1.069   5.573
10014WAT     H230285   5.259   1.027   5.713
10015WAT      O30286   4.855   1.735   4.212
10015WAT     H130287   4.767   1.693   4.235
10015WAT     H230288   4.841   1.803   4.140
10016WAT      O30289   8.933   2.421   7.583
10016WAT     H130290   8.977   2.369   7.510
10016WAT     H230291   9.000   2.442   7.654
10017WAT      O30292   9.818   0.939   1.614
10017WAT     H130293   9.887   0.940   1.688
10017WAT     H230294   9.750   1.009   1.632
10018WAT      O30295   6.818   6.922   6.605
10018WAT     H130296   6.757   6.948   6.530
10018WAT     H230297   6.812   6.823   6.620
10019WAT      O30298   3.976   6.734   2.513
10019WAT     H130299   3.880   6.756   2.499
10019WAT     H230300   3.988   6.693   2.603
10020WAT      O30301   4.430   8.581   6.445
10020WAT     H130302   4.492   8.541   6.512
10020WAT     H230303   4.482   8.629   6.375
10021WAT      O30304   6.121   8.644   7.249
10021WAT     H130305   6.218   8.645   7.227
10021WAT     H230306   6.067   8.644   7.165
10022WAT      O30307   2.567   7.590   9.861
10022WAT     H130308   2.648   7.622   9.811
10022WAT     H230309   2.488   7.644   9.835
10023WAT      O30310   8.162   5.279   6.016
10023WAT     H130311   8.257   5.296   5.990
10023WAT     H230312   8.159   5.221   6.097
10024WAT      O30313   5.711   3.636   7.935
10024WAT     H130314   5.692   3.726   7.972
10024WAT     H230315   5.639   3.572   7.964
10025WAT      O30316   7.579   9.180   2.121
10025WAT     H130317   7.527   9.170   2.205
10025WAT     H230318   7.530   9.242   2.059
10026WAT      O30319   8.271   7.159   2.726
10026WAT     H130320   8.287   7.156   2.627
10026WAT     H230321   8.352   7.124   2.774
10027WAT      O30322   1.759   7.203   4.262
10027WAT     H130323   1.775   7.298   4.238
10027WAT     H230324   1.774   7.145   4.182
10028WAT      O30325   8.685   9.084   7.349
10028WAT     H130326   8.650   9.021   7.419
10028WAT     H230327   8.646   9.175   7.364
10029WAT      O30328   3.174   3.227   7.505
10029WAT     H130329   3.180   3.250   7.602
10029WAT     H230330   3.161   3.129   7.495
10030WAT      O30331   0.243   6.337   2.300
10030WAT     H130332   0.243   6.361   2.397
10030WAT     H230333   0.201   6.247   2.288
10031WAT      O30334   7.847   5.027   9.307
10031WAT     H130335   7.871   5.034   9.210
10031WAT     H230336   7.909   4.964   9.353
10032WAT      O30337   6.982   5.359   4.023
10032WAT     H130338   6.956   5.421   4.097
10032WAT     H230339   7.008   5.412   3.942
10033WAT      O30340   1.196   0.785   4.810
10033WAT     H130341   1.149   0.772   4.897
10033WAT     H230342   1.205   0.696   4.764
10034WAT      O30343   2.152   1.429   7.977
10034WAT     H130344   2.133   1.358   8.046
10034WAT     H230345   2.232   1.402   7.923
10035WAT      O30346   7.714   4.904   0.314
10035WAT     H130347   7.704   4.856   0.401
10035WAT     H230348   7.627   4.903   0.266
10036WAT      O30349   5.524   7.536   8.173
10036WAT     H130350   5.548   7.440   8.156
10036WAT     H230351   5.542   7.559   8.268
10037WAT      O30352   6.944   0.812   8.066
10037WAT     H130353   6.899   0.727   8.037
10037WAT     H230354   6.887   0.859   8.133
10038WAT      O30355   3.834   5.461   6.664
10038WAT     H130356   3.771   5.419   6.729
10038WAT     H230357   3.790   5.542   6.622
10039WAT      O30358   6.914   5.257   4.928
10039WAT     H130359   6.853   5.296   4.858
10039WAT     H230360   6.917   5.317   5.007
10040WAT      O30361   8.919   1.369   8.013
10040WAT     H130362   8.878   1.354   8.103
10040WAT     H230363   8.905   1.288   7.957
10041WAT      O30364   1.450   6.201   7.507
10041WAT     H130365   1.453   6.189   7.408
10041WAT     H230366   1.368   6.158   7.543
10042WAT      O30367   4.057   6.147   3.848
10042WAT     H130368   4.054   6.208   3.927
10042WAT     H230369   4.003   6.065   3.868
10043WAT      O30370   3.077   4.385   2.477
10043WAT     H130371   3.119   4.447   2.411
10043WAT     H230372   3.008   4.434   2.529
10044WAT      O30373   6.452   3.263   9.587
10044WAT     H130374   6.386   3.189   9.598
10044WAT     H230375   6.460   3.287   9.490
10045WAT      O30376   8.632   4.750   7.876
10045WAT     H130377   8.710   4.776   7.819
10045WAT     H230378   8.602   4.658   7.851
10046WAT      O30379   8.652   0.808   3.387
10046WAT     H130380   8.604   0.885   3.429
10046WAT     H230381   8.607   0.723   3.414
10047WAT      O30382   1.648   4.327   5.840
10047WAT     H130383   1.632   4.412   5.788
10047WAT     H230384   1.579   4.319   5.912
10048WAT      O30385   2.778   4.020   4.080
10048WAT     H130386   2.763   3.935   4.130
10048WAT     H230387   2.690   4.061   4.056
10049WAT      O30388   2.894   0.689   6.760
10049WAT     H130389   2.942   0.643   6.835
10049WAT     H230390   2.796   0.690   6.778
10050WAT      O30391   8.053   9.514   1.243
10050WAT     H130392   8.130   9.451   1.227
10050WAT     H230393   8.021   9.549   1.155
10051WAT      O30394   8.899   1.237   0.103
10051WAT     H130395   8.922   1.293   0.023
10051WAT     H230396   8.982   1.202   0.144
10052WAT      O30397   2.465   2.344   2.374
10052WAT     H130398   2.482   2.403   2.452
10052WAT     H230399   2.504   2.253   2.391
10053WAT      O30400   7.556   8.436   9.857
10053WAT     H130401   7.524   8.391   9.941
10053WAT     H230402   7.655   8.424   9.849
10054WAT      O30403   2.772   7.211   6.329
10054WAT     H130404   2.678   7.196   6.360
10054WAT     H230405   2.785   7.308   6.309
10055WAT      O30406   8.067   7.027   6.659
10055WAT     H130407   7.968   7.033   6.666
10055WAT     H230408   8.094   6.932   6.644
10056WAT      O30409   6.175   1.039   9.851
10056WAT     H130410   6.172   0.941   9.830
10056WAT     H230411   6.222   1.088   9.778
10057WAT      O30412   1.789   3.636   0.243
10057WAT     H130413   1.859   3.633   0.171
10057WAT     H230414   1.709   3.684   0.209
10058WAT      O30415   9.852   0.219   3.573
10058WAT     H130416   9.827   0.158   3.649
10058WAT     H230417   9.802   0.305   3.582
10059WAT      O30418   7.287   3.115   1.904
10059WAT     H130419   7.275   3.113   1.805
10059WAT     H230420   7.197   3.121   1.948
10060WAT      O30421   6.145   3.696   1.425
10060WAT     H130422   6.129   3.745   1.340
10060WAT     H230423   6.146   3.598   1.407
10061WAT      O30424   4.427   3.851   6.689
10061WAT     H130425   4.371   3.927   6.655
10061WAT     H230426   4.508   3.840   6.631
10062WAT      O30427   9.147   7.864   3.283
10062WAT     H130428   9.240   7.837   3.260
10062WAT     H230429   9.130   7.850   3.380
10063WAT      O30430   3.850   9.211   4.765
10063WAT     H130431   3.768   9.166   4.800
10063WAT     H230432   3.831   9.309   4.753
10064WAT      O30433   6.890   9.597   5.603
10064WAT     H130434   6.912   9.540   5.683
10064WAT     H230435   6.809   9.561   5.558
10065WAT      O30436   6.522   4.644   8.303
10065WAT     H130437   6.579   4.571   8.342
10065WAT     H230438   6.439   4.654   8.358
10066WAT      O30439   4.179   0.086   9.433
10066WAT     H130440   4.138   0.101   9.522
10066WAT     H230441   4.278   0.090   9.440
10067WAT      O30442   1.640   6.575   5.132
10067WAT     H130443   1.649   6.602   5.228
10067WAT     H230444   1.669   6.651   5.073
10068WAT      O30445   9.852   8.431   1.010
10068WAT     H130446   9.807   8.475   0.932
10068WAT     H230447   9.942   8.472   1.024
10069WAT      O30448   7.244   5.481   4.179
10069WAT     H130449   7.339   5.455   4.189
10069WAT     H230450   7.221   5.490   4.082
10070WAT      O30451   7.933   0.426   7.920
10070WAT     H130452   7.882   0.494   7.971
10070WAT     H230453   8.031   0.443   7.929
10071WAT      O30454   7.513   1.103   2.126
10071WAT     H130455   7.426   1.127   2.083
10071WAT     H230456   7.569   1.051   2.062
10072WAT      O30457   9.235   5.145   7.796
10072WAT     H130458   9.274   5.072   7.739
10072WAT     H230459   9.176   5.104   7.866
10073WAT      O30460   1.173   3.536   8.979
10073WAT     H130461   1.097   3.513   8.919
10073WAT     H230462   1.148   3.516   9.074
10074WAT      O30463   9.754   6.046   8.048
10074WAT     H130464   9.688   6.110   8.009
10074WAT     H230465   9.727   6.023   8.142
10075WAT      O30466   2.708   9.845   0.519
10075WAT     H130467   2.690   9.785   0.596
10075WAT     H230468   2.677   9.801   0.434
10076WAT      O30469   7.071   2.201   0.457
10076WAT     H130470   7.089   2.298   0.439
10076WAT     H230471   7.131   2.169   0.530
10077WAT      O30472   3.847   1.142   8.681
10077WAT     H130473   3.766   1.152   8.624
10077WAT     H230474   3.917   1.207   8.652
10078WAT      O30475   4.512   9.796   8.677
10078WAT     H130476   4.414   9.818   8.680
10078WAT     H230477   4.524   9.706   8.635
10079WAT      O30478   6.922   8.573   4.261
10079WAT     H130479   6.847   8.586   4.326
10079WAT     H230480   6.884   8.549   4.171
10080WAT      O30481   3.846   8.332   8.790
10080WAT     H130482   3.788   8.321   8.870
10080WAT     H230483   3.832   8.423   8.751
10081WAT      O30484   2.577   0.870   9.768
10081WAT     H130485   2.644   0.860   9.841
10081WAT     H230486   2.519   0.949   9.787
10082WAT      O30487   2.765   4.554   4.057
10082WAT     H130488   2.728   4.619   4.123
10082WAT     H230489   2.857   4.527   4.085
10083WAT      O30490   9.188   7.191   4.017
10083WAT     H130491   9.170   7.261   3.948
10083WAT     H230492   9.285   7.167   4.016
10084WAT      O30493   5.680   6.353   2.664
10084WAT     H130494   5.739   6.395   2.596
10084WAT     H230495   5.705   6.385   2.756
10085WAT      O30496   7.067   8.458   9.119
10085WAT     H130497   7.133   8.456   9.045
10085WAT     H230498   7.018   8.371   9.123
10086WAT      O30499   5.888   8.187   8.887
10086WAT     H130500   5.796   8.151   8.907
10086WAT     H230501   5.880   8.275   8.841
10087WAT      O30502   8.427   0.548   1.188
10087WAT     H130503   8.440   0.647   1.191
10087WAT     H230504   8.448   0.509   1.278
10088WAT      O30505   9.462   1.314   2.700
10088WAT     H130506   9.485   1.377   2.625
10088WAT     H230507   9.363   1.302   2.705
10089WAT      O30508   2.747   7.199   1.840
10089WAT     H130509   2.704   7.288   1.827
10089WAT     H230510   2.722   7.162   1.930
10090WAT      O30511   2.676   7.877   6.867
10090WAT     H130512   2.701   7.804   6.803
10090WAT     H230513   2.592   7.920   6.835
10091WAT      O30514   4.402   7.654   0.650
10091WAT     H130515   4.476   7.693   0.705
10091WAT     H230516   4.431   7.650   0.554
10092WAT      O30517   3.431   9.114   1.277
10092WAT     H130518   3.515   9.166   1.267
10092WAT     H230519   3.362   9.170   1.324
10093WAT      O30520   6.207   7.962   7.627
10093WAT     H130521   6.243   8.044   7.582
10093WAT     H230522   6.215   7.883   7.566
10094WAT      O30523   6.301   0.480   7.181
10094WAT     H130524   6.220   0.422   7.188
10094WAT     H230525   6.275   0.575   7.197
10095WAT      O30526   5.314   4.866   8.654
10095WAT     H130527   5.345   4.919   8.733
10095WAT     H230528   5.387   4.804   8.624
10096WAT      O30529   2.577   8.263   4.848
10096WAT     H130530   2.534   8.221   4.768
10096WAT     H230531   2.644   8.330   4.819
10097WAT      O30532   8.204   5.828   4.804
10097WAT     H130533   8.114   5.871   4.795
10097WAT     H230534   8.267   5.893   4.846
10098WAT      O30535   2.468   0.437   4.309
10098WAT     H130536   2.537   0.477   4.369
10098WAT     H230537   2.475   0.337   4.311
10099WAT      O30538   3.669   6.082   2.674
10099WAT     H130539   3.749   6.120   2.626
10099WAT     H230540   3.591   6.083   2.612
10100WAT      O30541   6.133   8.720   9.746
10100WAT     H130542   6.176   8.685   9.830
10100WAT     H230543   6.194   8.705   9.669
10101WAT      O30544   0.476   5.825   3.966
10101WAT     H130545   0.477   5.760   3.890
10101WAT     H230546   0.474   5.775   4.053
10102WAT      O30547   8.014   1.569   1.975
10102WAT     H130548   7.963   1.613   2.049
10102WAT     H230549   8.006   1.470   1.983
10103WAT      O30550   9.672   7.547   8.005
10103WAT     H130551   9.763   7.583   7.984
10103WAT     H230552   9.611   7.623   8.029
10104WAT      O30553   5.338   2.000   8.115
10104WAT     H130554   5.310   2.093   8.138
10104WAT     H230555   5.350   1.947   8.200
10105WAT      O30556   3.148   1.095   5.267
10105WAT     H130557   3.167   1.067   5.173
10105WAT     H230558   3.215   1.164   5.296
10106WAT      O30559   8.774   3.252   7.292
10106WAT     H130560   8.680   3.239   7.263
10106WAT     H230561   8.836   3.216   7.223
10107WAT      O30562   6.853   0.609   3.390
10107WAT     H130563   6.915   0.557   3.330
10107WAT     H230564   6.906   0.673   3.445
10108WAT      O30565   4.953   8.477   4.490
10108WAT     H130566   4.969   8.549   4.558
10108WAT     H230567   5.037   8.462   4.438
10109WAT      O30568   0.489   5.168   1.591
10109WAT     H130569   0.431   5.092   1.620
10109WAT     H230570   0.438   5.226   1.528
10110WAT      O30571   1.354   1.276   2.558
10110WAT     H130572   1.388   1.218   2.485
10110WAT     H230573   1.313   1.219   2.630
10111WAT      O30574   9.639   7.933   2.274
10111WAT     H130575   9.550   7.886   2.278
10111WAT     H230576   9.713   7.866   2.282
10112WAT      O30577   8.967   8.216   5.586
10112WAT     H130578   9.011   8.152   5.523
10112WAT     H230579   9.000   8.199   5.679
10113WAT      O30580   4.004   3.355   1.406
10113WAT     H130581   4.052   3.307   1.333
10113WAT     H230582   4.070   3.413   1.456
10114WAT      O30583   7.426   5.871   5.794
10114WAT     H130584   7.451   5.777   5.816
10114WAT     H230585   7.467   5.898   5.707
10115WAT      O30586   8.665   5.293   6.522
10115WAT     H130587   8.571   5.321   6.544
10115WAT     H230588   8.686   5.319   6.428
10116WAT      O30589   1.300   1.679   9.771
10116WAT     H130590   1.295   1.579   9.778
10116WAT     H230591   1.307   1.719   9.862
10117WAT      O30592   5.053   3.187   2.332
10117WAT     H130593   5.049   3.102   2.385
10117WAT     H230594   4.970   3.196   2.277
10118WAT      O30595   8.998   8.304   4.185
10118WAT     H130596   8.942   8.224   4.161
10118WAT     H230597   8.964   8.345   4.269
10119WAT      O30598   3.505   5.708   0.674
10119WAT     H130599   3.437   5.761   0.623
10119WAT     H230600   3.576   5.769   0.708
10120WAT      O30601   9.798   9.227   3.733
10120WAT     H130602   9.770   9.314   3.773
10120WAT     H230603   9.726   9.159   3.749
10121WAT      O30604   8.861   4.685   9.566
10121WAT     H130605   8.914   4.633   9.499
10121WAT     H230606   8.777   4.636   9.587
10122WAT      O30607   7.420   4.769   4.181
10122WAT     H130608   7.481   4.848   4.177
10122WAT     H230609   7.441   4.706   4.107
10123WAT      O30610   5.627   1.325   2.346
10123WAT     H130611   5.666   1.233   2.355
10123WAT     H230612   5.588   1.336   2.255
10124WAT      O30613   1.703   6.148   8.289
10124WAT     H130614   1.686   6.053   8.316
10124WAT     H230615   1.617   6.198   8.289
10125WAT      O30616   4.432   0.865   0.490
10125WAT     H130617   4.403   0.925   0.416
10125WAT     H230618   4.382   0.779   0.485
10126WAT      O30619   9.448   6.861   7.749
10126WAT     H130620   9.462   6.852   7.848
10126WAT     H230621   9.432   6.957   7.727
10127WAT      O30622   2.292   7.987   3.423
10127WAT     H130623   2.299   8.028   3.515
10127WAT     H230624   2.227   7.912   3.426
10128WAT      O30625   9.491   7.095   7.156
10128WAT     H130626   9.431   7.045   7.094
10128WAT     H230627   9.586   7.064   7.144
10129WAT      O30628   7.394   2.893   5.440
10129WAT     H130629   7.493   2.890   5.455
10129WAT     H230630   7.363   2.988   5.442
10130WAT      O30631   5.051   7.227   3.316
10130WAT     H130632   5.055   7.235   3.217
10130WAT     H230633   4.955   7.230   3.345
10131WAT      O30634   2.271   2.254   5.760
10131WAT     H130635   2.335   2.189   5.720
10131WAT     H230636   2.275   2.249   5.860
10132WAT      O30637   5.194   2.766   6.566
10132WAT     H130638   5.255   2.701   6.610
10132WAT     H230639   5.115   2.718   6.529
10133WAT      O30640   3.009   1.081   4.202
10133WAT     H130641   3.017   1.140   4.282
10133WAT     H230642   3.006   0.985   4.231
10134WAT      O30643   3.142   3.954   0.234
10134WAT     H130644   3.104   4.026   0.176
10134WAT     H230645   3.162   3.991   0.325
10135WAT      O30646   6.754   8.114   1.340
10135WAT     H130647   6.718   8.203   1.366
10135WAT     H230648   6.846   8.103   1.378
10136WAT      O30649   4.724   5.359   3.689
10136WAT     H130650   4.671   5.274   3.698
10136WAT     H230651   4.662   5.435   3.669
10137WAT      O30652   9.270   9.658   5.650
10137WAT     H130653   9.337   9.661   5.724
10137WAT     H230654   9.282   9.737   5.590
10138WAT      O30655   3.394   2.078   4.554
10138WAT     H130656   3.368   1.984   4.533
10138WAT     H230657   3.457   2.112   4.484
10139WAT      O30658   2.510   3.437   2.133
10139WAT     H130659   2.561   3.351   2.127
10139WAT     H230660   2.477   3.449   2.227
10140WAT      O30661   6.288   7.192   9.081
10140WAT     H130662   6.365   7.202   9.018
10140WAT     H230663   6.291   7.264   9.150
10141WAT      O30664   5.227   9.789   6.740
10141WAT     H130665   5.190   9.696   6.742
10141WAT     H230666   5.244   9.816   6.645
10142WAT      O30667   5.288   8.462   1.115
10142WAT     H130668   5.218   8.453   1.186
10142WAT     H230669   5.371   8.501   1.155
10143WAT      O30670   9.307   5.191   8.342
10143WAT     H130671   9.273   5.097   8.346
10143WAT     H230672   9.321   5.225   8.435
10144WAT      O30673   5.490   5.146   3.150
10144WAT     H130674   5.448   5.174   3.064
10144WAT     H230675   5.574   5.095   3.131
10145WAT      O30676   5.365   3.743   7.514
10145WAT     H130677   5.433   3.750   7.587
10145WAT     H230678   5.374   3.822   7.453
10146WAT      O30679   2.729   4.188   6.114
10146WAT     H130680   2.751   4.091   6.099
10146WAT     H230681   2.742   4.210   6.211
10147WAT      O30682   7.259   9.006   8.973
10147WAT     H130683   7.336   9.062   9.003
10147WAT     H230684   7.215   9.049   8.894
10148WAT      O30685   2.930   6.938   0.499
10148WAT     H130686   2.918   6.900   0.407
10148WAT     H230687   2.985   6.876   0.554
10149WAT      O30688   9.745   9.788   1.286
10149WAT     H130689   9.708   9.709   1.238
10149WAT     H230690   9.777   9.856   1.220
10150WAT      O30691   5.224   3.585   1.687
10150WAT     H130692   5.209   3.660   1.752
10150WAT     H230693   5.322   3.565   1.681
10151WAT      O30694   1.590   8.413   8.803
10151WAT     H130695   1.655   8.430   8.878
10151WAT     H230696   1.548   8.500   8.776
10152WAT      O30697   6.444   0.353   0.657
10152WAT     H130698   6.513   0.379   0.724
10152WAT     H230699   6.474   0.272   0.607
10153WAT      O30700   0.568   3.211   8.576
10153WAT     H130701   0.482   3.164   8.600
10153WAT     H230702   0.570   3.228   8.478
10154WAT      O30703   9.289   1.072   3.429
10154WAT     H130704   9.297   1.156   3.377
10154WAT     H230705   9.351   1.075   3.508
10155WAT      O30706   8.117   4.329   8.588
10155WAT     H130707   8.195   4.279   8.626
10155WAT     H230708   8.067   4.271   8.524
10156WAT      O30709   5.984   0.064   0.690
10156WAT     H130710   5.964   0.156   0.724
10156WAT     H230711   6.041   0.016   0.756
10157WAT      O30712   3.584   7.009   5.176
10157WAT     H130713   3.587   6.910   5.190
10157WAT     H230714   3.489   7.039   5.171
10158WAT      O30715   2.946   3.450   7.373
10158WAT     H130716   2.908   3.529   7.326
10158WAT     H230717   3.042   3.467   7.396
10159WAT      O30718   5.151   8.524   5.098
10159WAT     H130719   5.220   8.509   5.169
10159WAT     H230720   5.191   8.578   5.023
10160WAT      O30721   7.002   4.219   8.061
10160WAT     H130722   6.976   4.226   8.157
10160WAT     H230723   7.086   4.272   8.045
10161WAT      O30724   5.266   8.134   9.478
10161WAT     H130725   5.308   8.045   9.460
10161WAT     H230726   5.336   8.205   9.479
10162WAT      O30727   0.779   6.201   1.901
10162WAT     H130728   0.731   6.170   1.983
10162WAT     H230729   0.876   6.213   1.921
10163WAT      O30730   2.986   3.859   3.967
10163WAT     H130731   2.910   3.924   3.965
10163WAT     H230732   2.985   3.809   4.053
10164WAT      O30733   6.912   5.460   2.078
10164WAT     H130734   6.959   5.403   2.010
10164WAT     H230735   6.893   5.550   2.040
10165WAT      O30736   2.787   2.184   8.494
10165WAT     H130737   2.792   2.159   8.397
10165WAT     H230738   2.789   2.101   8.549
10166WAT      O30739   8.767   0.560   1.581
10166WAT     H130740   8.805   0.480   1.535
10166WAT     H230741   8.841   0.620   1.613
10167WAT      O30742   4.422   2.923   7.657
10167WAT     H130743   4.431   2.893   7.562
10167WAT     H230744   4.343   2.879   7.699
10168WAT      O30745   4.341   6.057   2.268
10168WAT     H130746   4.417   6.018   2.216
10168WAT     H230747   4.340   6.156   2.254
10169WAT      O30748   4.479   1.848   2.922
10169WAT     H130749   4.516   1.935   2.891
10169WAT     H230750   4.546   1.802   2.981
10170WAT      O30751   6.199   5.005   8.341
10170WAT     H130752   6.250   5.017   8.256
10170WAT     H230753   6.109   5.049   8.332
10171WAT      O30754   1.546   1.322   4.029
10171WAT     H130755   1.614   1.331   3.957
10171WAT     H230756   1.459   1.363   3.998
10172WAT      O30757   5.292   3.955   1.842
10172WAT     H130758   5.303   4.005   1.928
10172WAT     H230759   5.199   3.919   1.836
10173WAT      O30760   5.686   5.402   5.096
10173WAT     H130761   5.719   5.395   5.001
10173WAT     H230762   5.737   5.473   5.144
10174WAT      O30763   3.757   8.849   6.912
10174WAT     H130764   3.755   8.949   6.914
10174WAT     H230765   3.848   8.817   6.937
10175WAT      O30766   3.963   2.084   1.503
10175WAT     H130767   4.053   2.104   1.541
10175WAT     H230768   3.911   2.027   1.567
10176WAT      O30769   1.032   4.035   8.428
10176WAT     H130770   1.002   3.940   8.430
10176WAT     H230771   1.096   4.048   8.352
10177WAT      O30772   4.227   1.436   3.448
10177WAT     H130773   4.254   1.474   3.537
10177WAT     H230774   4.166   1.500   3.402
10178WAT      O30775   7.467   8.239   3.216
10178WAT     H130776   7.368   8.246   3.204
10178WAT     H230777   7.505   8.331   3.227
10179WAT      O30778   0.546   3.592   4.974
10179WAT     H130779   0.632   3.593   5.026
10179WAT     H230780   0.469   3.605   5.037
10180WAT      O30781   8.188   3.134   8.526
10180WAT     H130782   8.169   3.071   8.451
10180WAT     H230783   8.127   3.114   8.602
10181WAT      O30784   5.070   8.584   2.509
10181WAT     H130785   5.033   8.553   2.421
10181WAT     H230786   5.107   8.676   2.499
10182WAT      O30787   4.460   5.862   5.122
10182WAT     H130788   4.508   5.783   5.161
10182WAT     H230789   4.461   5.855   5.023
10183WAT      O30790   7.790   5.762   0.090
10183WAT     H130791   7.738   5.826   0.035
10183WAT     H230792   7.801   5.798   0.183
10184WAT      O30793   2.612   1.287   0.079
10184WAT     H130794   2.616   1.188   0.062
10184WAT     H230795   2.647   1.336  -0.001
10185WAT      O30796   2.685   6.040   9.847
10185WAT     H130797   2.760   6.103   9.827
10185WAT     H230798   2.599   6.078   9.813
10186WAT      O30799   6.725   1.475   1.662
10186WAT     H130800   6.807   1.532   1.661
10186WAT     H230801   6.743   1.390   1.612
10187WAT      O30802   7.036   0.872   3.947
10187WAT     H130803   6.977   0.881   3.866
10187WAT     H230804   7.011   0.789   3.997
10188WAT      O30805   0.055   4.419   6.576
10188WAT     H130806   0.116   4.466   6.514
10188WAT     H230807   0.047   4.323   6.549
10189WAT      O30808   8.260   8.039   4.770
10189WAT     H130809   8.239   8.059   4.865
10189WAT     H230810   8.352   7.999   4.763
10190WAT      O30811   6.855   6.455   3.788
10190WAT     H130812   6.945   6.497   3.776
10190WAT     H230813   6.796   6.516   3.840
10191WAT      O30814   4.561   8.848   1.187
10191WAT     H130815   4.640   8.822   1.243
10191WAT     H230816   4.533   8.771   1.131
10192WAT      O30817   8.820   2.127   5.501
10192WAT     H130818   8.893   2.170   5.554
10192WAT     H230819   8.734   2.133   5.552
10193WAT      O30820   9.826   6.327   9.265
10193WAT     H130821   9.809   6.312   9.168
10193WAT     H230822   9.787   6.414   9.293
10194WAT      O30823   2.476   1.958   1.732
10194WAT     H130824   2.402   1.999   1.784
10194WAT     H230825   2.445   1.873   1.690
10195WAT      O30826   2.504   6.837   1.884
10195WAT     H130827   2.514   6.745   1.921
10195WAT     H230828   2.437   6.835   1.809
10196WAT      O30829   9.767   4.000   9.829
10196WAT     H130830   9.785   3.935   9.755
10196WAT     H230831   9.762   3.951   9.916
10197WAT      O30832   0.988   2.256   1.340
10197WAT     H130833   1.014   2.351   1.329
10197WAT     H230834   0.999   2.229   1.436
10198WAT      O30835   9.081   0.525   0.072
10198WAT     H130836   9.012   0.453   0.077
10198WAT     H230837   9.043   0.603   0.021
10199WAT      O30838   5.854   8.908   3.871
10199WAT     H130839   5.787   8.961   3.819
10199WAT     H230840   5.903   8.846   3.810
10200WAT      O30841   0.689   8.207   2.058
10200WAT     H130842   0.654   8.266   2.131
10200WAT     H230843   0.690   8.112   2.089
10201WAT      O30844   0.817   8.646   5.205
10201WAT     H130845   0.727   8.679   5.180
10201WAT     H230846   0.813   8.604   5.296
10202WAT      O30847   6.503   0.431   4.387
10202WAT     H130848   6.534   0.469   4.474
10202WAT     H230849   6.527   0.334   4.382
10203WAT      O30850   6.976   3.007   9.512
10203WAT     H130851   6.985   3.084   9.574
10203WAT     H230852   6.899   2.950   9.541
10204WAT      O30853   5.250   0.767   2.428
10204WAT     H130854   5.262   0.717   2.514
10204WAT     H230855   5.239   0.864   2.448
10205WAT      O30856   8.422   4.155   7.897
10205WAT     H130857   8.466   4.139   7.809
10205WAT     H230858   8.328   4.121   7.894
10206WAT      O30859   8.508   7.950   6.814
10206WAT     H130860   8.551   7.866   6.848
10206WAT     H230861   8.510   8.019   6.886
10207WAT      O30862   1.166   1.950   8.800
10207WAT     H130863   1.139   1.952   8.896
10207WAT     H230864   1.170   2.043   8.764
10208WAT      O30865   0.074   3.946   8.121
10208WAT     H130866  -0.009   3.911   8.077
10208WAT     H230867   0.053   3.970   8.216
10209WAT      O30868   9.506   6.195   0.369
10209WAT     H130869   9.440   6.248   0.315
10209WAT     H230870   9.461   6.113   0.404
10210WAT      O30871   0.973   4.427   0.203
10210WAT     H130872   1.003   4.437   0.108
10210WAT     H230873   0.931   4.337   0.216
10211WAT      O30874   9.715   5.742   1.305
10211WAT     H130875   9.674   5.779   1.388
10211WAT     H230876   9.737   5.817   1.242
10212WAT      O30877   7.762   7.371   7.429
10212WAT     H130878   7.739   7.468   7.423
10212WAT     H230879   7.703   7.326   7.496
10213WAT      O30880   0.114   6.837   1.575
10213WAT     H130881   0.163   6.752   1.596
10213WAT     H230882   0.035   6.817   1.518
10214WAT      O30883   5.698   7.970   3.202
10214WAT     H130884   5.750   7.954   3.286
10214WAT     H230885   5.611   8.012   3.225
10215WAT      O30886   5.613   0.827   5.126
10215WAT     H130887   5.604   0.755   5.195
10215WAT     H230888   5.674   0.796   5.053
10216WAT      O30889   1.630   0.475   3.498
10216WAT     H130890   1.559   0.494   3.431
10216WAT     H230891   1.604   0.514   3.586
10217WAT      O30892   3.113   2.634   1.877
10217WAT     H130893   3.177   2.634   1.801
10217WAT     H230894   3.148   2.573   1.949
10218WAT      O30895   0.112   6.295   7.264
10218WAT     H130896   0.151   6.382   7.293
10218WAT     H230897   0.073   6.248   7.343
10219WAT      O30898   0.273   3.606   2.268
10219WAT     H130899   0.264   3.535   2.199
10219WAT     H230900   0.211   3.682   2.247
10220WAT      O30901   7.365   0.176   9.036
10220WAT     H130902   7.328   0.164   8.943
10220WAT     H230903   7.464   0.162   9.035
10221WAT      O30904   5.635   4.406   5.605
10221WAT     H130905   5.541   4.413   5.639
10221WAT     H230906   5.679   4.495   5.611
10222WAT      O30907   4.043   4.271   4.533
10222WAT     H130908   4.079   4.352   4.487
10222WAT     H230909   4.083   4.189   4.493
10223WAT      O30910   3.002   7.116   5.853
10223WAT     H130911   2.913   7.085   5.819
10223WAT     H230912   3.065   7.125   5.776
10224WAT      O30913   0.082   4.965   4.365
10224WAT     H130914   0.125   4.884   4.324
10224WAT     H230915  -0.004   4.938   4.408
10225WAT      O30916   7.473   5.577   3.823
10225WAT     H130917   7.471   5.627   3.909
10225WAT     H230918   7.433   5.633   3.751
10226WAT      O30919   7.315   3.000   6.098
10226WAT     H130920   7.293   2.949   6.181
10226WAT     H230921   7.314   3.098   6.117
10227WAT      O30922   4.045   5.895   7.721
10227WAT     H130923   4.085   5.806   7.742
10227WAT     H230924   4.019   5.899   7.624
10228WAT      O30925   1.080   5.077   3.579
10228WAT     H130926   1.156   5.014   3.588
10228WAT     H230927   1.083   5.121   3.488
10229WAT      O30928   8.249   1.746   9.657
10229WAT     H130929   8.203   1.821   9.705
10229WAT     H230930   8.211   1.736   9.565
10230WAT      O30931   5.265   1.237   5.801
10230WAT     H130932   5.166   1.222   5.801
10230WAT     H230933   5.284   1.331   5.831
10231WAT      O30934   3.318   2.656   7.205
10231WAT     H130935   3.224   2.687   7.223
10231WAT     H230936   3.375   2.735   7.182
10232WAT      O30937   4.172   5.714   3.704
10232WAT     H130938   4.236   5.759   3.766
10232WAT     H230939   4.206   5.722   3.610
10233WAT      O30940   1.499   7.604   3.624
10233WAT     H130941   1.480   7.530   3.559
10233WAT     H230942   1.555   7.674   3.580
10234WAT      O30943   5.389   9.749   6.254
10234WAT     H130944   5.344   9.691   6.186
10234WAT     H230945   5.470   9.792   6.212
10235WAT      O30946   3.710   4.904   3.714
10235WAT     H130947   3.623   4.875   3.676
10235WAT     H230948   3.697   4.934   3.809
10236WAT      O30949   4.385   1.940   9.720
10236WAT     H130950   4.358   1.857   9.769
10236WAT     H230951   4.452   1.916   9.650
10237WAT      O30952   9.426   3.798   8.353
10237WAT     H130953   9.333   3.774   8.379
10237WAT     H230954   9.472   3.719   8.314
10238WAT      O30955   5.420   4.321   4.955
10238WAT     H130956   5.355   4.361   4.891
10238WAT     H230957   5.428   4.223   4.936
10239WAT      O30958   6.580   5.404   4.947
10239WAT     H130959   6.628   5.490   4.927
10239WAT     H230960   6.550   5.362   4.862
10240WAT      O30961   2.444   8.018   9.000
10240WAT     H130962   2.359   8.026   8.948
10240WAT     H230963   2.520   8.052   8.946
10241WAT      O30964   1.688   5.264   3.471
10241WAT     H130965   1.679   5.167   3.449
10241WAT     H230966   1.721   5.314   3.391
10242WAT      O30967   8.912   7.621   6.528
10242WAT     H130968   8.884   7.715   6.548
10242WAT     H230969   8.910   7.606   6.429
10243WAT      O30970   4.489   6.906   1.000
10243WAT     H130971   4.410   6.917   1.060
10243WAT     H230972   4.556   6.978   1.018
10244WAT      O30973   6.386   8.547   8.080
10244WAT     H130974   6.317   8.488   8.037
10244WAT     H230975   6.347   8.592   8.160
10245WAT      O30976   2.766   1.957   5.263
10245WAT     H130977   2.778   1.901   5.345
10245WAT     H230978   2.854   1.997   5.237
10246WAT      O30979   2.363   2.152   8.024
10246WAT     H130980   2.450   2.201   8.030
10246WAT     H230981   2.369   2.081   7.954
10247WAT      O30982   5.744   8.035   9.708
10247WAT     H130983   5.763   8.116   9.763
10247WAT     H230984   5.716   7.960   9.767
10248WAT      O30985   0.152   1.372   9.252
10248WAT     H130986   0.193   1.432   9.320
10248WAT     H230987   0.217   1.300   9.227
10249WAT      O30988   4.727   6.721   2.892
10249WAT     H130989   4.698   6.779   2.968
10249WAT     H230990   4.719   6.772   2.806
10250WAT      O30991   8.176   7.787   9.670
10250WAT     H130992   8.083   7.810   9.698
10250WAT     H230993   8.177   7.768   9.571
10251WAT      O30994   6.894   8.448   7.721
10251WAT     H130995   6.987   8.466   7.753
10251WAT     H230996   6.831   8.507   7.772
10252WAT      O30997   1.955   1.956   5.792
10252WAT     H130998   1.879   1.902   5.829
10252WAT     H230999   1.960   2.044   5.840
10253WAT      O31000   4.872   2.945   4.010
10253WAT     H131001   4.864   3.038   3.973
10253WAT     H231002   4.784   2.898   4.002
10254WAT      O31003   7.538   6.102   1.752
10254WAT     H131004   7.565   6.151   1.835
10254WAT     H231005   7.539   6.165   1.675
10255WAT      O31006   9.776   6.686   0.446
10255WAT     H131007   9.697   6.651   0.396
10255WAT     H231008   9.836   6.610   0.472
10256WAT      O31009   2.320   4.140   8.934
10256WAT     H131010   2.306   4.221   8.877
10256WAT     H231011   2.258   4.143   9.013
10257WAT      O31012   4.988   8.274   7.119
10257WAT     H131013   4.915   8.264   7.051
10257WAT     H231014   4.949   8.310   7.204
10258WAT      O31015   0.145   9.513   1.695
10258WAT     H131016   0.213   9.460   1.644
10258WAT     H231017   0.121   9.595   1.643
10259WAT      O31018   5.804   7.178   5.649
10259WAT     H131019   5.901   7.156   5.664
10259WAT     H231020   5.780   7.154   5.555
10260WAT      O31021   3.734   4.945   4.911
10260WAT     H131022   3.701   4.963   5.004
10260WAT     H231023   3.661   4.968   4.846
10261WAT      O31024   5.053   6.755   6.259
10261WAT     H131025   5.099   6.711   6.181
10261WAT     H231026   5.012   6.685   6.317
10262WAT      O31027   6.271   3.455   8.299
10262WAT     H131028   6.228   3.424   8.214
10262WAT     H231029   6.322   3.539   8.282
10263WAT      O31030   8.507   7.957   5.693
10263WAT     H131031   8.451   7.876   5.710
10263WAT     H231032   8.503   8.018   5.772
10264WAT      O31033   6.022   6.350   5.812
10264WAT     H131034   6.106   6.349   5.866
10264WAT     H231035   5.943   6.349   5.873
10265WAT      O31036   6.222   7.485   4.162
10265WAT     H131037   6.141   7.544   4.163
10265WAT     H231038   6.258   7.480   4.069
10266WAT      O31039   1.085   0.990   4.451
10266WAT     H131040   1.076   0.995   4.551
10266WAT     H231041   1.156   1.053   4.420
10267WAT      O31042   7.475   4.864   5.061
10267WAT     H131043   7.401   4.797   5.062
10267WAT     H231044   7.478   4.909   4.971
10268WAT      O31045   9.171   7.221   2.554
10268WAT     H131046   9.181   7.212   2.653
10268WAT     H231047   9.171   7.318   2.529
10269WAT      O31048   6.566   1.184   0.508
10269WAT     H131049   6.525   1.220   0.424
10269WAT     H231050   6.654   1.141   0.486
10270WAT      O31051   1.559   1.621   3.246
10270WAT     H131052   1.613   1.676   3.310
10270WAT     H231053   1.619   1.582   3.177
10271WAT      O31054   4.656   3.174   3.569
10271WAT     H131055   4.672   3.269   3.542
10271WAT     H231056   4.737   3.119   3.547
10272WAT      O31057   7.300   9.288   7.441
10272WAT     H131058   7.349   9.257   7.522
10272WAT     H231059   7.274   9.208   7.386
10273WAT      O31060   1.869   9.082   9.262
10273WAT     H131061   1.884   9.090   9.163
10273WAT     H231062   1.845   9.172   9.300
10274WAT      O31063   0.947   9.825   5.899
10274WAT     H131064   0.883   9.901   5.888
10274WAT     H231065   0.896   9.742   5.919
10275WAT      O31066   0.796   2.741   8.570
10275WAT     H131067   0.766   2.765   8.663
10275WAT     H231068   0.731   2.777   8.504
10276WAT      O31069   2.835   2.531   7.885
10276WAT     H131070   2.845   2.444   7.836
10276WAT     H231071   2.763   2.585   7.843
10277WAT      O31072   3.938   0.423   5.294
10277WAT     H131073   3.992   0.455   5.217
10277WAT     H231074   3.899   0.333   5.272
10278WAT      O31075   0.663   8.473   8.149
10278WAT     H131076   0.574   8.478   8.194
10278WAT     H231077   0.672   8.386   8.101
10279WAT      O31078   0.471   2.013   1.037
10279WAT     H131079   0.430   2.003   1.127
10279WAT     H231080   0.471   1.925   0.990
10280WAT      O31081   5.107   4.137   8.849
10280WAT     H131082   5.050   4.147   8.767
10280WAT     H231083   5.135   4.041   8.859
10281WAT      O31084   4.299   6.224   6.439
10281WAT     H131085   4.294   6.184   6.348
10281WAT     H231086   4.388   6.268   6.451
10282WAT      O31087   7.924   9.560   7.937
10282WAT     H131088   7.978   9.506   7.873
10282WAT     H231089   7.931   9.520   8.029
10283WAT      O31090   1.272   0.021   9.411
10283WAT     H131091   1.261   0.090   9.482
10283WAT     H231092   1.348   0.048   9.351
10284WAT      O31093   0.710   7.084   5.187
10284WAT     H131094   0.781   7.029   5.231
10284WAT     H231095   0.704   7.059   5.090
10285WAT      O31096   4.284   4.625   1.649
10285WAT     H131097   4.233   4.667   1.573
10285WAT     H231098   4.230   4.551   1.688
10286WAT      O31099   0.647   1.440   2.550
10286WAT     H131100   0.622   1.523   2.600
10286WAT     H231101   0.599   1.439   2.462
10287WAT      O31102   8.140   8.133   0.469
10287WAT     H131103   8.197   8.056   0.499
10287WAT     H231104   8.045   8.115   0.493
10288WAT      O31105   1.624   8.632   4.077
10288WAT     H131106   1.704   8.679   4.115
10288WAT     H231107   1.542   8.667   4.122
10289WAT      O31108   9.644   7.877   5.447
10289WAT     H131109   9.699   7.830   5.516
10289WAT     H231110   9.662   7.837   5.357
10290WAT      O31111   2.740   1.724   0.946
10290WAT     H131112   2.824   1.746   0.898
10290WAT     H231113   2.733   1.781   1.028
10291WAT      O31114   3.512   1.103   0.570
10291WAT     H131115   3.538   1.186   0.521
10291WAT     H231116   3.501   1.028   0.504
10292WAT      O31117   3.347   4.381   2.540
10292WAT     H131118   3.251   4.361   2.559
10292WAT     H231119   3.358   4.478   2.521
10293WAT      O31120   6.667   5.897   9.354
10293WAT     H131121   6.672   5.991   9.387
10293WAT     H231122   6.646   5.897   9.256
10294WAT      O31123   5.074   7.809   9.632
10294WAT     H131124   5.084   7.747   9.554
10294WAT     H231125   4.977   7.820   9.653
10295WAT      O31126   5.221   5.859   9.325
10295WAT     H131127   5.315   5.835   9.348
10295WAT     H231128   5.217   5.893   9.231
10296WAT      O31129   1.552   5.694   1.868
10296WAT     H131130   1.585   5.781   1.832
10296WAT     H231131   1.458   5.679   1.838
10297WAT      O31132   3.688   1.781   0.310
10297WAT     H131133   3.647   1.762   0.221
10297WAT     H231134   3.780   1.819   0.297
10298WAT      O31135   2.695   2.963   4.370
10298WAT     H131136   2.635   2.936   4.445
10298WAT     H231137   2.695   2.892   4.300
10299WAT      O31138   2.780   1.928   4.520
10299WAT     H131139   2.681   1.934   4.534
10299WAT     H231140   2.825   1.922   4.609
10300WAT      O31141   7.957   9.117   0.335
10300WAT     H131142   7.873   9.066   0.316
10300WAT     H231143   7.939   9.215   0.329
10301WAT      O31144   5.313   0.468   4.956
10301WAT     H131145   5.221   0.504   4.941
10301WAT     H231146   5.374   0.501   4.883
10302WAT      O31147   8.114   5.568   8.296
10302WAT     H131148   8.047   5.575   8.223
10302WAT     H231149   8.165   5.483   8.288
10303WAT      O31150   2.396   8.712   8.988
10303WAT     H131151   2.378   8.723   9.086
10303WAT     H231152   2.418   8.616   8.968
10304WAT      O31153   4.463   9.377   4.896
10304WAT     H131154   4.500   9.468   4.911
10304WAT     H231155   4.523   9.309   4.938
10305WAT      O31156   5.385   1.090   8.567
10305WAT     H131157   5.331   1.140   8.499
10305WAT     H231158   5.464   1.144   8.594
10306WAT      O31159   1.794   1.464   3.819
10306WAT     H131160   1.878   1.467   3.764
10306WAT     H231161   1.722   1.515   3.772
10307WAT      O31162   0.114   6.888   7.967
10307WAT     H131163   0.074   6.979   7.963
10307WAT     H231164   0.171   6.881   8.049
10308WAT      O31165   8.689   5.647   7.554
10308WAT     H131166   8.677   5.548   7.546
10308WAT     H231167   8.782   5.667   7.585
10309WAT      O31168   4.075   1.452   9.445
10309WAT     H131169   4.082   1.356   9.418
10309WAT     H231170   4.117   1.464   9.535
10310WAT      O31171   4.659   5.053   1.847
10310WAT     H131172   4.731   5.053   1.917
10310WAT     H231173   4.570   5.042   1.891
10311WAT      O31174   5.504   1.068   8.995
10311WAT     H131175   5.580   1.008   8.968
10311WAT     H231176   5.460   1.031   9.077
10312WAT      O31177   5.221   3.357   4.876
10312WAT     H131178   5.233   3.288   4.948
10312WAT     H231179   5.272   3.329   4.795
10313WAT      O31180   6.280   2.243   3.511
10313WAT     H131181   6.341   2.170   3.479
10313WAT     H231182   6.330   2.330   3.510
10314WAT      O31183   2.409   8.406   1.748
10314WAT     H131184   2.475   8.423   1.821
10314WAT     H231185   2.446   8.336   1.686
10315WAT      O31186   0.823   6.648   4.176
10315WAT     H131187   0.820   6.721   4.108
10315WAT     H231188   0.781   6.565   4.139
10316WAT      O31189   5.127   3.651   7.155
10316WAT     H131190   5.098   3.693   7.069
10316WAT     H231191   5.113   3.552   7.149
10317WAT      O31192   5.885   8.032   5.476
10317WAT     H131193   5.802   7.988   5.510
10317WAT     H231194   5.898   8.010   5.379
10318WAT      O31195   8.600   4.919   3.473
10318WAT     H131196   8.679   4.858   3.474
10318WAT     H231197   8.597   4.969   3.386
10319WAT      O31198   8.842   4.457   0.051
10319WAT     H131199   8.791   4.542   0.037
10319WAT     H231200   8.939   4.472   0.029
10320WAT      O31201   6.245   8.898   8.624
10320WAT     H131202   6.189   8.851   8.692
10320WAT     H231203   6.262   8.992   8.654
10321WAT      O31204   0.681   1.478   0.374
10321WAT     H131205   0.648   1.419   0.448
10321WAT     H231206   0.620   1.471   0.296
10322WAT      O31207   9.293   4.600   9.606
10322WAT     H131208   9.262   4.621   9.514
10322WAT     H231209   9.272   4.676   9.667
10323WAT      O31210   7.875   3.212   9.310
10323WAT     H131211   7.825   3.285   9.355
10323WAT     H231212   7.911   3.245   9.222
10324WAT      O31213   8.223   6.334   5.594
10324WAT     H131214   8.201   6.253   5.648
10324WAT     H231215   8.282   6.309   5.517
10325WAT      O31216   3.299   7.666   1.462
10325WAT     H131217   3.363   7.611   1.408
10325WAT     H231218   3.278   7.751   1.414
10326WAT      O31219   3.802   8.458   0.571
10326WAT     H131220   3.774   8.365   0.549
10326WAT     H231221   3.785   8.517   0.492
10327WAT      O31222   1.158   5.823   7.381
10327WAT     H131223   1.113   5.897   7.430
10327WAT     H231224   1.091   5.753   7.355
10328WAT      O31225   6.354   6.822   9.615
10328WAT     H131226   6.444   6.808   9.655
10328WAT     H231227   6.362   6.824   9.515
10329WAT      O31228   1.531   5.586   2.287
10329WAT     H131229   1.448   5.547   2.325
10329WAT     H231230   1.534   5.684   2.307
10330WAT      O31231   2.723   6.435   2.996
10330WAT     H131232   2.768   6.523   2.985
10330WAT     H231233   2.650   6.425   2.928
10331WAT      O31234   4.040   7.174   1.181
10331WAT     H131235   3.989   7.228   1.113
10331WAT     H231236   4.045   7.225   1.266
10332WAT      O31237   4.706   4.017   5.468
10332WAT     H131238   4.695   4.116   5.460
10332WAT     H231239   4.771   3.997   5.542
10333WAT      O31240   6.758   3.298   1.082
10333WAT     H131241   6.671   3.275   1.126
10333WAT     H231242   6.798   3.379   1.126
10334WAT      O31243   3.068   1.228   5.947
10334WAT     H131244   3.126   1.288   5.892
10334WAT     H231245   3.098   1.134   5.936
10335WAT      O31246   1.854   8.808   9.354
10335WAT     H131247   1.857   8.906   9.337
10335WAT     H231248   1.839   8.791   9.451
10336WAT      O31249   1.259   6.804   3.171
10336WAT     H131250   1.186   6.741   3.198
10336WAT     H231251   1.306   6.768   3.090
10337WAT      O31252   7.416   8.974   7.088
10337WAT     H131253   7.369   8.997   7.003
10337WAT     H231254   7.513   8.993   7.079
10338WAT      O31255   3.399   1.170   9.019
10338WAT     H131256   3.404   1.269   9.010
10338WAT     H231257   3.476   1.129   8.970
10339WAT      O31258   6.389   4.348   1.785
10339WAT     H131259   6.295   4.323   1.806
10339WAT     H231260   6.407   4.333   1.688
10340WAT      O31261   2.588   2.648   0.014
10340WAT     H131262   2.661   2.714   0.034
10340WAT     H231263   2.574   2.588   0.092
10341WAT      O31264   2.096   7.925   5.097
10341WAT     H131265   2.087   7.916   4.998
10341WAT     H231266   2.138   7.842   5.134
10342WAT      O31267   2.254   9.642   5.041
10342WAT     H131268   2.205   9.605   4.962
10342WAT     H231269   2.287   9.734   5.019
10343WAT      O31270   5.640   2.218   3.340
10343WAT     H131271   5.579   2.150   3.381
10343WAT     H231272   5.658   2.290   3.407
10344WAT      O31273   2.586   0.109   6.891
10344WAT     H131274   2.618   0.020   6.858
10344WAT     H231275   2.512   0.142   6.832
10345WAT      O31276   3.374   1.952   8.756
10345WAT     H131277   3.326   1.889   8.817
10345WAT     H231278   3.342   1.938   8.662
10346WAT      O31279   9.349   3.455   0.031
10346WAT     H131280   9.310   3.414  -0.051
10346WAT     H231281   9.429   3.403   0.061
10347WAT      O31282   7.901   9.328   6.814
10347WAT     H131283   7.815   9.291   6.779
10347WAT     H231284   7.897   9.335   6.914
10348WAT      O31285   6.817   3.386   4.152
10348WAT     H131286   6.915   3.400   4.164
10348WAT     H231287   6.786   3.434   4.070
10349WAT      O31288   5.670   2.558   5.015
10349WAT     H131289   5.628   2.500   4.945
10349WAT     H231290   5.758   2.519   5.043
10350WAT      O31291   0.986   8.149   7.077
10350WAT     H131292   0.952   8.056   7.089
10350WAT     H231293   0.913   8.215   7.095
10351WAT      O31294   2.955   9.236   5.520
10351WAT     H131295   3.002   9.156   5.560
10351WAT     H231296   2.969   9.315   5.580
10352WAT      O31297   6.581   8.767   9.088
10352WAT     H131298   6.551   8.823   9.010
10352WAT     H231299   6.676   8.739   9.075
10353WAT      O31300   0.818   8.159   9.270
10353WAT     H131301   0.886   8.088   9.251
10353WAT     H231302   0.741   8.119   9.319
10354WAT      O31303   5.764   4.398   6.228
10354WAT     H131304   5.833   4.451   6.278
10354WAT     H231305   5.809   4.338   6.162
10355WAT      O31306   9.248   5.530   6.566
10355WAT     H131307   9.327   5.480   6.530
10355WAT     H231308   9.206   5.584   6.492
10356WAT      O31309   4.435   6.105   8.228
10356WAT     H131310   4.377   6.142   8.155
10356WAT     H231311   4.531   6.120   8.204
10357WAT      O31312   2.028   0.932   4.989
10357WAT     H131313   2.035   1.030   4.969
10357WAT     H231314   1.940   0.913   5.034
10358WAT      O31315   5.104   6.509   4.339
10358WAT     H131316   5.015   6.463   4.351
10358WAT     H231317   5.163   6.452   4.282
10359WAT      O31318   4.570   6.270   2.909
10359WAT     H131319   4.560   6.238   2.814
10359WAT     H231320   4.644   6.337   2.914
10360WAT      O31321   8.393   8.003   7.184
10360WAT     H131322   8.309   8.042   7.146
10360WAT     H231323   8.391   7.904   7.174
10361WAT      O31324   9.465   8.074   4.546
10361WAT     H131325   9.550   8.048   4.501
10361WAT     H231326   9.460   8.174   4.554
10362WAT      O31327   7.613   2.996   2.916
10362WAT     H131328   7.636   2.905   2.949
10362WAT     H231329   7.530   2.991   2.861
10363WAT      O31330   2.064   6.606   8.638
10363WAT     H131331   2.104   6.568   8.721
10363WAT     H231332   2.089   6.549   8.560
10364WAT      O31333   4.790   7.079   1.372
10364WAT     H131334   4.871   7.044   1.418
10364WAT     H231335   4.812   7.099   1.276
10365WAT      O31336   2.164   9.435   7.639
10365WAT     H131337   2.193   9.378   7.716
10365WAT     H231338   2.234   9.502   7.618
10366WAT      O31339   5.903   2.463   2.160
10366WAT     H131340   5.991   2.510   2.154
10366WAT     H231341   5.915   2.374   2.205
10367WAT      O31342   0.707   2.391   6.451
10367WAT     H131343   0.696   2.471   6.391
10367WAT     H231344   0.638   2.394   6.523
10368WAT      O31345   0.826   5.641   9.872
10368WAT     H131346   0.807   5.710   9.802
10368WAT     H231347   0.856   5.687   9.956
10369WAT      O31348   9.141   6.571   8.796
10369WAT     H131349   9.046   6.547   8.780
10369WAT     H231350   9.172   6.529   8.882
10370WAT      O31351   9.700   7.514   3.368
10370WAT     H131352   9.688   7.613   3.375
10370WAT     H231353   9.797   7.493   3.365
10371WAT      O31354   7.047   9.638   9.620
10371WAT     H131355   7.066   9.568   9.551
10371WAT     H231356   6.979   9.604   9.685
10372WAT      O31357   8.762   4.679   8.460
10372WAT     H131358   8.667   4.687   8.428
10372WAT     H231359   8.782   4.754   8.524
10373WAT      O31360   8.201   1.480   0.380
10373WAT     H131361   8.165   1.436   0.297
10373WAT     H231362   8.259   1.557   0.355
10374WAT      O31363   0.269   4.895   5.514
10374WAT     H131364   0.249   4.968   5.448
10374WAT     H231365   0.354   4.916   5.562
10375WAT      O31366   6.658   2.529   4.854
10375WAT     H131367   6.673   2.613   4.906
10375WAT     H231368   6.660   2.550   4.756
10376WAT      O31369   7.985   4.979   7.839
10376WAT     H131370   8.030   5.068   7.830
10376WAT     H231371   7.968   4.941   7.748
10377WAT      O31372   2.211   4.119   2.326
10377WAT     H131373   2.288   4.167   2.283
10377WAT     H231374   2.246   4.037   2.374
10378WAT      O31375   6.381   0.695   8.682
10378WAT     H131376   6.425   0.647   8.607
10378WAT     H231377   6.292   0.730   8.652
10379WAT      O31378   2.255   6.046   0.404
10379WAT     H131379   2.245   5.990   0.486
10379WAT     H231380   2.319   6.003   0.341
10380WAT      O31381   7.290   0.709   6.685
10380WAT     H131382   7.274   0.735   6.590
10380WAT     H231383   7.366   0.762   6.722
10381WAT      O31384   5.835   7.612   3.775
10381WAT     H131385   5.904   7.542   3.759
10381WAT     H231386   5.773   7.617   3.696
10382WAT      O31387   6.884   9.486   7.734
10382WAT     H131388   6.975   9.525   7.745
10382WAT     H231389   6.856   9.444   7.820
10383WAT      O31390   5.810   6.997   8.253
10383WAT     H131391   5.841   6.910   8.291
10383WAT     H231392   5.723   7.022   8.294
10384WAT      O31393   3.844   9.707   6.393
10384WAT     H131394   3.813   9.612   6.400
10384WAT     H231395   3.819   9.744   6.304
10385WAT      O31396   8.238   4.633   7.917
10385WAT     H131397   8.235   4.542   7.959
10385WAT     H231398   8.263   4.701   7.986
10386WAT      O31399   0.932   2.990   7.139
10386WAT     H131400   1.029   3.016   7.139
10386WAT     H231401   0.898   2.990   7.233
10387WAT      O31402   3.816   5.093   5.453
10387WAT     H131403   3.760   5.010   5.461
10387WAT     H231404   3.832   5.130   5.544
10388WAT      O31405   5.925   1.175   3.875
10388WAT     H131406   5.922   1.261   3.925
10388WAT     H231407   5.914   1.099   3.939
10389WAT      O31408   9.346   1.797   3.284
10389WAT     H131409   9.368   1.824   3.190
10389WAT     H231410   9.396   1.713   3.307
10390WAT      O31411   6.846   4.181   2.296
10390WAT     H131412   6.764   4.189   2.354
10390WAT     H231413   6.864   4.084   2.279
10391WAT      O31414   2.283   6.383   8.282
10391WAT     H131415   2.296   6.415   8.376
10391WAT     H231416   2.231   6.298   8.282
10392WAT      O31417   7.703   2.143   6.666
10392WAT     H131418   7.766   2.066   6.657
10392WAT     H231419   7.656   2.138   6.754
10393WAT      O31420   4.353   5.795   8.416
10393WAT     H131421   4.256   5.767   8.416
10393WAT     H231422   4.382   5.813   8.510
10394WAT      O31423   7.967   1.898   5.143
10394WAT     H131424   7.999   1.804   5.149
10394WAT     H231425   7.996   1.938   5.056
10395WAT      O31426   7.793   4.965   1.397
10395WAT     H131427   7.738   4.904   1.454
10395WAT     H231428   7.823   4.916   1.315
10396WAT      O31429   1.464   4.103   1.711
10396WAT     H131430   1.373   4.063   1.703
10396WAT     H231431   1.463   4.176   1.779
10397WAT      O31432   0.370   6.234   5.687
10397WAT     H131433   0.310   6.169   5.639
10397WAT     H231434   0.427   6.184   5.752
10398WAT      O31435   6.613   3.169   1.584
10398WAT     H131436   6.636   3.235   1.657
10398WAT     H231437   6.514   3.166   1.573
10399WAT      O31438   1.666   4.396   0.013
10399WAT     H131439   1.697   4.388   0.108
10399WAT     H231440   1.571   4.365   0.005
10400WAT      O31441   8.531   5.599   2.954
10400WAT     H131442   8.585   5.610   3.037
10400WAT     H231443   8.483   5.511   2.957
10401WAT      O31444   8.600   6.092   8.599
10401WAT     H131445   8.686   6.138   8.577
10401WAT     H231446   8.593   6.081   8.699
10402WAT      O31447   3.098   2.871   1.231
10402WAT     H131448   3.011   2.916   1.214
10402WAT     H231449   3.165   2.937   1.264
10403WAT      O31450   0.970   9.168   4.923
10403WAT     H131451   0.987   9.082   4.875
10403WAT     H231452   0.900   9.220   4.874
10404WAT      O31453   5.769   4.515   1.786
10404WAT     H131454   5.723   4.455   1.720
10404WAT     H231455   5.863   4.483   1.801
10405WAT      O31456   0.022   4.795   1.785
10405WAT     H131457  -0.019   4.808   1.695
10405WAT     H231458  -0.038   4.737   1.841
10406WAT      O31459   2.909   1.559   7.147
10406WAT     H131460   2.833   1.554   7.083
10406WAT     H231461   2.995   1.549   7.097
10407WAT      O31462   9.608   3.429   5.139
10407WAT     H131463   9.656   3.509   5.175
10407WAT     H231464   9.617   3.353   5.202
10408WAT      O31465   9.258   9.595   2.914
10408WAT     H131466   9.277   9.571   3.010
10408WAT     H231467   9.202   9.524   2.873
10409WAT      O31468   7.469   4.061   8.327
10409WAT     H131469   7.552   4.117   8.324
10409WAT     H231470   7.420   4.080   8.412
10410WAT      O31471   3.980   2.813   5.467
10410WAT     H131472   4.058   2.864   5.429
10410WAT     H231473   3.895   2.858   5.441
10411WAT      O31474   5.014   3.338   8.715
10411WAT     H131475   5.020   3.247   8.756
10411WAT     H231476   4.956   3.397   8.771
10412WAT      O31477   7.952   5.472   9.638
10412WAT     H131478   7.909   5.512   9.719
10412WAT     H231479   7.948   5.537   9.562
10413WAT      O31480   5.021   7.356   5.825
10413WAT     H131481   5.027   7.439   5.770
10413WAT     H231482   5.035   7.379   5.921
10414WAT      O31483   5.406   9.510   6.720
10414WAT     H131484   5.430   9.599   6.681
10414WAT     H231485   5.426   9.510   6.818
10415WAT      O31486   5.959   1.890   0.678
10415WAT     H131487   6.057   1.909   0.672
10415WAT     H231488   5.908   1.976   0.669
10416WAT      O31489   7.358   4.780   6.123
10416WAT     H131490   7.368   4.680   6.122
10416WAT     H231491   7.425   4.819   6.186
10417WAT      O31492   8.771   5.166   1.620
10417WAT     H131493   8.743   5.150   1.525
10417WAT     H231494   8.811   5.083   1.658
10418WAT      O31495   5.538   8.820   0.627
10418WAT     H131496   5.605   8.751   0.654
10418WAT     H231497   5.456   8.810   0.683
10419WAT      O31498   5.929   2.774   3.771
10419WAT     H131499   5.947   2.872   3.776
10419WAT     H231500   5.896   2.742   3.860
10420WAT      O31501   1.866   7.123   1.162
10420WAT     H131502   1.966   7.133   1.170
10420WAT     H231503   1.825   7.213   1.147
10421WAT      O31504   2.504   3.975   3.408
10421WAT     H131505   2.444   3.898   3.385
10421WAT     H231506   2.573   3.986   3.337
10422WAT      O31507   3.255   8.247   3.947
10422WAT     H131508   3.351   8.269   3.964
10422WAT     H231509   3.247   8.204   3.857
10423WAT      O31510   6.042   1.336   9.759
10423WAT     H131511   6.094   1.296   9.684
10423WAT     H231512   6.023   1.266   9.828
10424WAT      O31513   7.583   2.161   4.878
10424WAT     H131514   7.614   2.189   4.788
10424WAT     H231515   7.484   2.149   4.878
10425WAT      O31516   6.251   9.407   1.461
10425WAT     H131517   6.320   9.475   1.434
10425WAT     H231518   6.296   9.327   1.500
10426WAT      O31519   1.252   6.910   2.342
10426WAT     H131520   1.186   6.938   2.412
10426WAT     H231521   1.208   6.850   2.276
10427WAT      O31522   4.110   4.316   8.295
10427WAT     H131523   4.089   4.393   8.235
10427WAT     H231524   4.096   4.342   8.390
10428WAT      O31525   0.787   1.879   8.215
10428WAT     H131526   0.869   1.824   8.199
10428WAT     H231527   0.762   1.927   8.131
10429WAT      O31528   8.215   6.500   0.501
10429WAT     H131529   8.201   6.502   0.600
10429WAT     H231530   8.165   6.423   0.462
10430WAT      O31531   1.702   0.676   7.770
10430WAT     H131532   1.704   0.742   7.695
10430WAT     H231533   1.748   0.592   7.741
10431WAT      O31534   9.111   6.425   4.365
10431WAT     H131535   9.207   6.397   4.373
10431WAT     H231536   9.087   6.434   4.269
10432WAT      O31537   9.167   3.716   1.111
10432WAT     H131538   9.166   3.740   1.209
10432WAT     H231539   9.141   3.620   1.100
10433WAT      O31540   8.572   9.804   1.294
10433WAT     H131541   8.623   9.731   1.250
10433WAT     H231542   8.474   9.784   1.291
10434WAT      O31543   1.857   1.576   5.671
10434WAT     H131544   1.945   1.586   5.624
10434WAT     H231545   1.847   1.648   5.740
10435WAT      O31546   3.760   2.542   9.594
10435WAT     H131547   3.758   2.471   9.523
10435WAT     H231548   3.766   2.632   9.550
10436WAT      O31549   9.146   3.977   7.928
10436WAT     H131550   9.217   3.960   7.996
10436WAT     H231551   9.059   3.994   7.975
10437WAT      O31552   6.754   9.608   8.844
10437WAT     H131553   6.821   9.638   8.912
10437WAT     H231554   6.771   9.513   8.820
10438WAT      O31555   4.807   4.372   8.438
10438WAT     H131556   4.840   4.348   8.347
10438WAT     H231557   4.843   4.462   8.463
10439WAT      O31558   3.511   6.420   0.632
10439WAT     H131559   3.537   6.455   0.542
10439WAT     H231560   3.593   6.410   0.689
10440WAT      O31561   2.113   4.845   6.238
10440WAT     H131562   2.016   4.848   6.212
10440WAT     H231563   2.141   4.750   6.248
10441WAT      O31564   4.621   9.635   7.497
10441WAT     H131565   4.584   9.659   7.587
10441WAT     H231566   4.689   9.703   7.471
10442WAT      O31567   0.782   0.599   5.722
10442WAT     H131568   0.830   0.654   5.654
10442WAT     H231569   0.837   0.519   5.745
10443WAT      O31570   2.156   9.076   1.157
10443WAT     H131571   2.183   9.001   1.097
10443WAT     H231572   2.152   9.161   1.104
10444WAT      O31573   0.389   8.071   9.479
10444WAT     H131574   0.476   8.022   9.477
10444WAT     H231575   0.407   8.170   9.483
10445WAT      O31576   1.517   2.417   8.203
10445WAT     H131577   1.511   2.478   8.282
10445WAT     H231578   1.432   2.365   8.194
10446WAT      O31579   1.876   1.293   9.046
10446WAT     H131580   1.902   1.210   9.095
10446WAT     H231581   1.893   1.279   8.948
10447WAT      O31582   3.413   7.487   4.182
10447WAT     H131583   3.324   7.488   4.226
10447WAT     H231584   3.434   7.578   4.146
10448WAT      O31585   0.542   4.051   1.016
10448WAT     H131586   0.447   4.053   1.049
10448WAT     H231587   0.544   4.007   0.926
10449WAT      O31588   3.688   5.607   8.464
10449WAT     H131589   3.714   5.624   8.369
10449WAT     H231590   3.673   5.509   8.477
10450WAT      O31591   8.273   6.074   8.172
10450WAT     H131592   8.237   6.003   8.232
10450WAT     H231593   8.200   6.109   8.113
10451WAT      O31594   5.342   4.135   3.047
10451WAT     H131595   5.249   4.108   3.022
10451WAT     H231596   5.374   4.079   3.123
10452WAT      O31597   6.288   5.906   2.728
10452WAT     H131598   6.312   5.886   2.633
10452WAT     H231599   6.224   5.837   2.762
10453WAT      O31600   1.494   3.794   2.748
10453WAT     H131601   1.577   3.773   2.799
10453WAT     H231602   1.483   3.729   2.673
10454WAT      O31603   1.642   0.884   7.599
10454WAT     H131604   1.626   0.956   7.667
10454WAT     H231605   1.583   0.899   7.520
10455WAT      O31606   9.613   4.099   7.949
10455WAT     H131607   9.692   4.078   7.892
10455WAT     H231608   9.541   4.031   7.933
10456WAT      O31609   1.478   7.084   5.300
10456WAT     H131610   1.508   7.133   5.218
10456WAT     H231611   1.542   7.104   5.375
10457WAT      O31612   5.982   1.607   3.283
10457WAT     H131613   5.939   1.627   3.371
10457WAT     H231614   5.949   1.519   3.249
10458WAT      O31615   2.475   5.613   3.841
10458WAT     H131616   2.557   5.586   3.791
10458WAT     H231617   2.488   5.591   3.938
10459WAT      O31618   6.027   8.748   4.787
10459WAT     H131619   6.024   8.649   4.798
10459WAT     H231620   6.016   8.793   4.875
10460WAT      O31621   3.513   4.347   1.470
10460WAT     H131622   3.599   4.368   1.424
10460WAT     H231623   3.444   4.414   1.443
10461WAT      O31624   2.258   1.928   9.769
10461WAT     H131625   2.207   1.844   9.751
10461WAT     H231626   2.230   1.999   9.704
10462WAT      O31627   9.053   2.956   1.840
10462WAT     H131628   9.101   3.013   1.905
10462WAT     H231629   9.093   2.966   1.749
10463WAT      O31630   0.791   2.630   5.577
10463WAT     H131631   0.820   2.653   5.670
10463WAT     H231632   0.692   2.644   5.569
10464WAT      O31633   4.776   2.224   1.325
10464WAT     H131634   4.705   2.241   1.256
10464WAT     H231635   4.820   2.136   1.307
10465WAT      O31636   4.886   8.515   6.081
10465WAT     H131637   4.816   8.479   6.142
10465WAT     H231638   4.930   8.440   6.031
10466WAT      O31639   3.899   5.297   7.845
10466WAT     H131640   3.955   5.362   7.896
10466WAT     H231641   3.808   5.335   7.830
10467WAT      O31642   7.288   3.499   6.121
10467WAT     H131643   7.313   3.403   6.127
10467WAT     H231644   7.316   3.546   6.205
10468WAT      O31645   9.060   2.018   7.707
10468WAT     H131646   8.982   1.962   7.679
10468WAT     H231647   9.029   2.090   7.769
10469WAT      O31648   8.337   5.900   7.864
10469WAT     H131649   8.398   5.868   7.791
10469WAT     H231650   8.326   5.999   7.857
10470WAT      O31651   2.866   9.274   0.887
10470WAT     H131652   2.934   9.240   0.822
10470WAT     H231653   2.889   9.367   0.914
10471WAT      O31654   5.539   4.138   9.046
10471WAT     H131655   5.517   4.235   9.034
10471WAT     H231656   5.597   4.126   9.126
10472WAT      O31657   7.186   7.731   7.473
10472WAT     H131658   7.115   7.664   7.492
10472WAT     H231659   7.276   7.690   7.487
10473WAT      O31660   0.565   2.557   1.673
10473WAT     H131661   0.569   2.568   1.773
10473WAT     H231662   0.627   2.622   1.630
10474WAT      O31663   4.911   9.579   6.068
10474WAT     H131664   4.993   9.523   6.057
10474WAT     H231665   4.915   9.657   6.006
10475WAT      O31666   1.163   3.134   7.204
10475WAT     H131667   1.241   3.095   7.155
10475WAT     H231668   1.192   3.163   7.295
10476WAT      O31669   7.480   2.501   1.658
10476WAT     H131670   7.445   2.522   1.567
10476WAT     H231671   7.575   2.533   1.665
10477WAT      O31672   8.255   0.562   3.787
10477WAT     H131673   8.211   0.588   3.874
10477WAT     H231674   8.347   0.601   3.783
10478WAT      O31675   6.843   6.100   6.515
10478WAT     H131676   6.832   6.182   6.570
10478WAT     H231677   6.869   6.126   6.421
10479WAT      O31678   8.785   5.117   6.722
10479WAT     H131679   8.708   5.127   6.659
10479WAT     H231680   8.752   5.117   6.816
10480WAT      O31681   0.532   0.299   4.452
10480WAT     H131682   0.559   0.369   4.517
10480WAT     H231683   0.611   0.275   4.394
10481WAT      O31684   5.662   5.182   4.002
10481WAT     H131685   5.615   5.247   3.943
10481WAT     H231686   5.597   5.143   4.067
10482WAT      O31687   4.675   3.508   0.500
10482WAT     H131688   4.618   3.558   0.564
10482WAT     H231689   4.620   3.441   0.451
10483WAT      O31690   5.060   0.707   3.434
10483WAT     H131691   4.979   0.673   3.482
10483WAT     H231692   5.141   0.686   3.489
10484WAT      O31693   9.152   3.080   4.354
10484WAT     H131694   9.059   3.049   4.376
10484WAT     H231695   9.148   3.152   4.286
10485WAT      O31696   2.997   8.059   6.585
10485WAT     H131697   2.904   8.075   6.618
10485WAT     H231698   3.005   7.964   6.555
10486WAT      O31699   7.225   8.843   6.242
10486WAT     H131700   7.237   8.903   6.163
10486WAT     H231701   7.311   8.837   6.292
10487WAT      O31702   6.528   3.322   6.442
10487WAT     H131703   6.488   3.340   6.532
10487WAT     H231704   6.503   3.230   6.412
10488WAT      O31705   3.881   5.928   3.850
10488WAT     H131706   3.851   5.876   3.770
10488WAT     H231707   3.963   5.886   3.888
10489WAT      O31708   6.523   5.445   9.842
10489WAT     H131709   6.449   5.507   9.816
10489WAT     H231710   6.552   5.393   9.761
10490WAT      O31711   8.520   8.518   7.177
10490WAT     H131712   8.494   8.497   7.271
10490WAT     H231713   8.613   8.554   7.176
10491WAT      O31714   2.518   1.014   5.288
10491WAT     H131715   2.428   0.972   5.279
10491WAT     H231716   2.586   0.944   5.309
10492WAT      O31717   0.743   5.339   7.384
10492WAT     H131718   0.675   5.266   7.386
10492WAT     H231719   0.793   5.341   7.471
10493WAT      O31720   4.716   8.428   6.912
10493WAT     H131721   4.745   8.332   6.910
10493WAT     H231722   4.786   8.483   6.958
10494WAT      O31723   2.381   5.839   9.773
10494WAT     H131724   2.462   5.785   9.795
10494WAT     H231725   2.378   5.857   9.674
10495WAT      O31726   3.204   9.413   4.247
10495WAT     H131727   3.202   9.508   4.277
10495WAT     H231728   3.155   9.404   4.160
10496WAT      O31729   9.436   3.441   3.181
10496WAT     H131730   9.523   3.405   3.215
10496WAT     H231731   9.372   3.366   3.166
10497WAT      O31732   7.189   0.824   9.678
10497WAT     H131733   7.109   0.764   9.682
10497WAT     H231734   7.255   0.788   9.612
10498WAT      O31735   1.169   7.852   2.686
10498WAT     H131736   1.216   7.771   2.651
10498WAT     H231737   1.164   7.847   2.786
10499WAT      O31738   5.356   7.649   6.500
10499WAT     H131739   5.424   7.639   6.572
10499WAT     H231740   5.383   7.594   6.421
10500WAT      O31741   6.293   0.940   3.917
10500WAT     H131742   6.243   0.996   3.983
10500WAT     H231743   6.315   0.996   3.836
10501WAT      O31744   0.475   2.304   1.134
10501WAT     H131745   0.526   2.242   1.075
10501WAT     H231746   0.536   2.340   1.205
10502WAT      O31747   6.123   8.776   9.117
10502WAT     H131748   6.166   8.849   9.171
10502WAT     H231749   6.138   8.688   9.163
10503WAT      O31750   7.389   6.538   2.929
10503WAT     H131751   7.310   6.555   2.870
10503WAT     H231752   7.384   6.446   2.967
10504WAT      O31753   6.656   6.644   5.021
10504WAT     H131754   6.644   6.544   5.017
10504WAT     H231755   6.738   6.669   4.971
10505WAT      O31756   5.394   8.838   6.652
10505WAT     H131757   5.416   8.861   6.558
10505WAT     H231758   5.475   8.848   6.709
10506WAT      O31759   5.329   5.814   8.825
10506WAT     H131760   5.428   5.809   8.833
10506WAT     H231761   5.301   5.785   8.734
10507WAT      O31762   9.790   8.669   0.860
10507WAT     H131763   9.762   8.686   0.954
10507WAT     H231764   9.882   8.706   0.845
10508WAT      O31765   2.516   9.555   7.054
10508WAT     H131766   2.572   9.621   7.003
10508WAT     H231767   2.448   9.515   6.993
10509WAT      O31768   0.318   4.485   1.170
10509WAT     H131769   0.414   4.476   1.195
10509WAT     H231770   0.310   4.491   1.071
10510WAT      O31771   3.004   7.625   4.177
10510WAT     H131772   2.943   7.546   4.179
10510WAT     H231773   3.079   7.611   4.242
10511WAT      O31774   9.263   9.311   8.018
10511WAT     H131775   9.241   9.403   7.986
10511WAT     H231776   9.358   9.309   8.050
10512WAT      O31777   1.064   2.237   7.742
10512WAT     H131778   0.986   2.287   7.705
10512WAT     H231779   1.043   2.139   7.742
10513WAT      O31780   0.201   7.198   5.410
10513WAT     H131781   0.225   7.250   5.328
10513WAT     H231782   0.198   7.259   5.489
10514WAT      O31783   0.686   1.010   6.734
10514WAT     H131784   0.770   1.022   6.788
10514WAT     H231785   0.704   0.948   6.658
10515WAT      O31786   4.929   1.489   6.596
10515WAT     H131787   4.871   1.424   6.646
10515WAT     H231788   5.002   1.521   6.657
10516WAT      O31789   6.184   7.247   3.052
10516WAT     H131790   6.198   7.153   3.083
10516WAT     H231791   6.095   7.254   3.006
10517WAT      O31792   3.695   2.198   8.450
10517WAT     H131793   3.608   2.245   8.437
10517WAT     H231794   3.764   2.265   8.479
10518WAT      O31795   3.393   3.468   3.948
10518WAT     H131796   3.371   3.403   3.875
10518WAT     H231797   3.314   3.528   3.963
10519WAT      O31798   6.339   5.814   9.415
10519WAT     H131799   6.411   5.863   9.366
10519WAT     H231800   6.340   5.841   9.511
10520WAT      O31801   0.474   0.285   9.285
10520WAT     H131802   0.558   0.252   9.327
10520WAT     H231803   0.415   0.208   9.260
10521WAT      O31804   1.140   7.830   7.021
10521WAT     H131805   1.102   7.801   7.109
10521WAT     H231806   1.124   7.928   7.009
10522WAT      O31807   6.036   9.592   5.653
10522WAT     H131808   6.069   9.673   5.604
10522WAT     H231809   5.958   9.618   5.711
10523WAT      O31810   8.400   6.378   6.236
10523WAT     H131811   8.472   6.312   6.256
10523WAT     H231812   8.347   6.346   6.157
10524WAT      O31813   2.255   7.737   5.191
10524WAT     H131814   2.274   7.727   5.289
10524WAT     H231815   2.258   7.647   5.148
10525WAT      O31816   8.293   0.234   8.457
10525WAT     H131817   8.343   0.303   8.509
10525WAT     H231818   8.290   0.149   8.509
10526WAT      O31819   8.794   9.122   9.355
10526WAT     H131820   8.780   9.221   9.350
10526WAT     H231821   8.890   9.104   9.378
10527WAT      O31822   6.130   5.564   0.842
10527WAT     H131823   6.041   5.535   0.877
10527WAT     H231824   6.136   5.541   0.744
10528WAT      O31825   1.091   5.539   6.232
10528WAT     H131826   1.146   5.621   6.219
10528WAT     H231827   1.007   5.563   6.280
10529WAT      O31828   6.464   9.390   6.524
10529WAT     H131829   6.374   9.426   6.547
10529WAT     H231830   6.528   9.411   6.598
10530WAT      O31831   6.860   8.534   0.762
10530WAT     H131832   6.926   8.518   0.836
10530WAT     H231833   6.778   8.479   0.778
10531WAT      O31834   2.737   8.273   6.956
10531WAT     H131835   2.757   8.371   6.956
10531WAT     H231836   2.639   8.259   6.946
10532WAT      O31837   4.682   5.705   4.054
10532WAT     H131838   4.764   5.728   4.106
10532WAT     H231839   4.607   5.684   4.118
10533WAT      O31840   8.303   4.767   7.382
10533WAT     H131841   8.395   4.742   7.412
10533WAT     H231842   8.309   4.829   7.304
10534WAT      O31843   1.739   9.311   9.048
10534WAT     H131844   1.663   9.302   9.113
10534WAT     H231845   1.752   9.407   9.025
10535WAT      O31846   6.198   3.778   0.870
10535WAT     H131847   6.238   3.868   0.860
10535WAT     H231848   6.260   3.709   0.833
10536WAT      O31849   3.113   7.803   6.517
10536WAT     H131850   3.132   7.799   6.419
10536WAT     H231851   3.195   7.831   6.566
10537WAT      O31852   9.590   1.248   3.283
10537WAT     H131853   9.607   1.153   3.257
10537WAT     H231854   9.491   1.262   3.294
10538WAT      O31855   0.833   7.017   4.587
10538WAT     H131856   0.855   7.111   4.612
10538WAT     H231857   0.863   6.999   4.494
10539WAT      O31858   5.280   3.773   9.172
10539WAT     H131859   5.250   3.763   9.077
10539WAT     H231860   5.215   3.830   9.222
10540WAT      O31861   2.632   5.346   4.625
10540WAT     H131862   2.688   5.268   4.598
10540WAT     H231863   2.634   5.355   4.725
10541WAT      O31864   4.468   8.094   5.136
10541WAT     H131865   4.568   8.090   5.131
10541WAT     H231866   4.436   8.026   5.202
10542WAT      O31867   8.284   6.225   8.870
10542WAT     H131868   8.203   6.256   8.920
10542WAT     H231869   8.316   6.139   8.908
10543WAT      O31870   0.060   1.563   0.421
10543WAT     H131871   0.055   1.636   0.489
10543WAT     H231872   0.082   1.601   0.332
10544WAT      O31873   1.926   4.599   6.273
10544WAT     H131874   1.917   4.605   6.173
10544WAT     H231875   1.932   4.502   6.299
10545WAT      O31876   1.974   5.407   1.206
10545WAT     H131877   2.017   5.378   1.121
10545WAT     H231878   2.024   5.484   1.245
10546WAT      O31879   1.809   3.635   6.837
10546WAT     H131880   1.888   3.575   6.825
10546WAT     H231881   1.757   3.638   6.751
10547WAT      O31882   8.206   7.506   3.628
10547WAT     H131883   8.284   7.558   3.662
10547WAT     H231884   8.165   7.554   3.551
10548WAT      O31885   8.689   1.193   9.097
10548WAT     H131886   8.641   1.262   9.152
10548WAT     H231887   8.782   1.225   9.077
10549WAT      O31888   6.905   5.042   3.696
10549WAT     H131889   6.967   4.990   3.755
10549WAT     H231890   6.894   4.995   3.609
10550WAT      O31891   5.640   0.857   2.870
10550WAT     H131892   5.692   0.928   2.917
10550WAT     H231893   5.623   0.781   2.933
10551WAT      O31894   6.858   4.630   5.741
10551WAT     H131895   6.918   4.550   5.753
10551WAT     H231896   6.783   4.606   5.679
10552WAT      O31897   6.697   5.103   1.637
10552WAT     H131898   6.740   5.193   1.625
10552WAT     H231899   6.610   5.101   1.587
10553WAT      O31900   3.382   2.237   1.465
10553WAT     H131901   3.447   2.311   1.451
10553WAT     H231902   3.418   2.172   1.532
10554WAT      O31903   9.228   6.805   9.295
10554WAT     H131904   9.182   6.719   9.275
10554WAT     H231905   9.231   6.862   9.212
10555WAT      O31906   4.262   2.946   0.667
10555WAT     H131907   4.180   2.916   0.619
10555WAT     H231908   4.335   2.878   0.653
10556WAT      O31909   3.457   8.159   8.561
10556WAT     H131910   3.539   8.209   8.588
10556WAT     H231911   3.376   8.217   8.574
10557WAT      O31912   1.503   1.970   9.313
10557WAT     H131913   1.570   1.902   9.342
10557WAT     H231914   1.411   1.931   9.318
10558WAT      O31915   1.915   4.508   5.677
10558WAT     H131916   1.981   4.580   5.699
10558WAT     H231917   1.952   4.420   5.706
10559WAT      O31918   4.458   8.345   6.146
10559WAT     H131919   4.439   8.258   6.100
10559WAT     H231920   4.400   8.416   6.107
10560WAT      O31921   8.011   1.508   5.828
10560WAT     H131922   8.008   1.409   5.839
10560WAT     H231923   8.070   1.547   5.898
10561WAT      O31924   7.561   3.873   0.346
10561WAT     H131925   7.567   3.836   0.439
10561WAT     H231926   7.486   3.939   0.341
10562WAT      O31927   8.365   2.158   9.705
10562WAT     H131928   8.434   2.130   9.638
10562WAT     H231929   8.277   2.166   9.659
10563WAT      O31930   2.062   4.197   1.519
10563WAT     H131931   2.000   4.158   1.587
10563WAT     H231932   2.136   4.133   1.501
10564WAT      O31933   7.123   3.488   7.416
10564WAT     H131934   7.162   3.544   7.490
10564WAT     H231935   7.126   3.539   7.331
10565WAT      O31936   6.847   2.896   7.059
10565WAT     H131937   6.914   2.969   7.049
10565WAT     H231938   6.894   2.808   7.061
10566WAT      O31939   9.173   6.228   1.531
10566WAT     H131940   9.219   6.246   1.618
10566WAT     H231941   9.088   6.177   1.548
10567WAT      O31942   4.346   2.681   8.682
10567WAT     H131943   4.396   2.616   8.740
10567WAT     H231944   4.348   2.649   8.587
10568WAT      O31945   5.063   2.958   8.115
10568WAT     H131946   5.071   2.939   8.018
10568WAT     H231947   5.116   3.040   8.138
10569WAT      O31948   6.021   8.140   5.691
10569WAT     H131949   5.959   8.120   5.766
10569WAT     H231950   5.981   8.107   5.605
10570WAT      O31951   1.556   1.414   2.798
10570WAT     H131952   1.550   1.498   2.852
10570WAT     H231953   1.533   1.434   2.703
10571WAT      O31954   5.207   0.362   4.001
10571WAT     H131955   5.162   0.451   4.000
10571WAT     H231956   5.163   0.302   3.935
10572WAT      O31957   0.555   0.517   4.638
10572WAT     H131958   0.602   0.562   4.562
10572WAT     H231959   0.614   0.520   4.719
10573WAT      O31960   5.145   0.251   7.308
10573WAT     H131961   5.051   0.251   7.274
10573WAT     H231962   5.147   0.293   7.399
10574WAT      O31963   7.312   3.508   9.309
10574WAT     H131964   7.383   3.578   9.299
10574WAT     H231965   7.341   3.440   9.376
10575WAT      O31966   3.639   1.164   1.989
10575WAT     H131967   3.575   1.164   1.912
10575WAT     H231968   3.712   1.230   1.971
10576WAT      O31969   2.399   4.737   3.871
10576WAT     H131970   2.442   4.653   3.838
10576WAT     H231971   2.301   4.734   3.853
10577WAT      O31972   8.399   6.876   5.243
10577WAT     H131973   8.376   6.966   5.207
10577WAT     H231974   8.447   6.886   5.330
10578WAT      O31975   8.213   6.419   4.119
10578WAT     H131976   8.222   6.335   4.066
10578WAT     H231977   8.246   6.496   4.065
10579WAT      O31978   8.344   8.414   2.403
10579WAT     H131979   8.292   8.333   2.429
10579WAT     H231980   8.281   8.484   2.368
10580WAT      O31981   7.619   3.953   2.300
10580WAT     H131982   7.573   3.994   2.221
10580WAT     H231983   7.710   3.994   2.311
10581WAT      O31984   3.940   8.928   6.128
10581WAT     H131985   3.952   8.925   6.028
10581WAT     H231986   3.857   8.879   6.153
10582WAT      O31987   6.719   2.885   6.529
10582WAT     H131988   6.725   2.882   6.430
10582WAT     H231989   6.770   2.808   6.568
10583WAT      O31990   7.173   7.481   0.630
10583WAT     H131991   7.270   7.507   0.628
10583WAT     H231992   7.118   7.557   0.664
10584WAT      O31993   6.102   4.764   1.186
10584WAT     H131994   6.153   4.719   1.260
10584WAT     H231995   6.037   4.829   1.225
10585WAT      O31996   0.289   4.194   4.620
10585WAT     H131997   0.365   4.136   4.593
10585WAT     H231998   0.321   4.288   4.633
10586WAT      O31999   3.066   6.983   0.049
10586WAT     H132000   2.968   6.987   0.063
10586WAT     H232001   3.097   6.888   0.056
10587WAT      O32002   0.505   0.737   4.947
10587WAT     H132003   0.458   0.656   4.983
10587WAT     H232004   0.588   0.753   4.999
10588WAT      O32005   9.755   7.815   2.801
10588WAT     H132006   9.831   7.838   2.861
10588WAT     H232007   9.739   7.892   2.738
10589WAT      O32008   7.764   3.362   1.642
10589WAT     H132009   7.679   3.321   1.610
10589WAT     H232010   7.782   3.334   1.736
10590WAT      O32011   3.661   5.891   3.244
10590WAT     H132012   3.710   5.890   3.332
10590WAT     H232013   3.725   5.916   3.171
10591WAT      O32014   4.685   1.534   3.666
10591WAT     H132015   4.645   1.592   3.594
10591WAT     H232016   4.630   1.543   3.749
10592WAT      O32017   2.664   5.444   0.646
10592WAT     H132018   2.566   5.434   0.630
10592WAT     H232019   2.682   5.533   0.687
10593WAT      O32020   2.292   5.185   4.310
10593WAT     H132021   2.338   5.160   4.395
10593WAT     H232022   2.357   5.184   4.235
10594WAT      O32023   8.846   2.234   2.070
10594WAT     H132024   8.915   2.179   2.023
10594WAT     H232025   8.867   2.331   2.058
10595WAT      O32026   1.215   3.991   1.656
10595WAT     H132027   1.172   4.077   1.682
10595WAT     H232028   1.146   3.929   1.618
10596WAT      O32029   4.380   8.767   4.564
10596WAT     H132030   4.331   8.788   4.480
10596WAT     H232031   4.473   8.805   4.559
10597WAT      O32032   0.422   9.527   5.708
10597WAT     H132033   0.343   9.587   5.692
10597WAT     H232034   0.488   9.540   5.634
10598WAT      O32035   7.193   7.501   2.834
10598WAT     H132036   7.105   7.499   2.882
10598WAT     H232037   7.187   7.447   2.751
10599WAT      O32038   3.468   4.114   7.112
10599WAT     H132039   3.392   4.082   7.055
10599WAT     H232040   3.446   4.098   7.208
10600WAT      O32041   9.433   3.618   4.960
10600WAT     H132042   9.364   3.608   4.888
10600WAT     H232043   9.472   3.528   4.981
10601WAT      O32044   9.541   1.275   1.292
10601WAT     H132045   9.616   1.265   1.358
10601WAT     H232046   9.498   1.186   1.278
10602WAT      O32047   5.602   5.927   6.415
10602WAT     H132048   5.611   5.924   6.515
10602WAT     H232049   5.534   5.860   6.386
10603WAT      O32050   2.923   5.195   0.321
10603WAT     H132051   2.890   5.239   0.405
10603WAT     H232052   2.849   5.143   0.280
10604WAT      O32053   7.206   4.724   7.245
10604WAT     H132054   7.247   4.669   7.318
10604WAT     H232055   7.106   4.719   7.251
10605WAT      O32056   9.062   5.240   2.917
10605WAT     H132057   9.010   5.218   2.835
10605WAT     H232058   9.016   5.313   2.967
10606WAT      O32059   8.221   2.102   7.474
10606WAT     H132060   8.265   2.124   7.387
10606WAT     H232061   8.237   2.176   7.539
10607WAT      O32062   8.171   8.812   9.621
10607WAT     H132063   8.145   8.780   9.530
10607WAT     H232064   8.248   8.876   9.613
10608WAT      O32065   7.599   5.479   6.718
10608WAT     H132066   7.598   5.535   6.801
10608WAT     H232067   7.607   5.382   6.743
10609WAT      O32068   2.141   0.879   2.078
10609WAT     H132069   2.185   0.852   1.993
10609WAT     H232070   2.111   0.797   2.127
10610WAT      O32071   0.557   3.372   7.148
10610WAT     H132072   0.493   3.377   7.071
10610WAT     H232073   0.646   3.405   7.120
10611WAT      O32074   9.620   2.010   0.361
10611WAT     H132075   9.526   1.988   0.334
10611WAT     H232076   9.648   2.096   0.319
10612WAT      O32077   2.802   9.133   7.991
10612WAT     H132078   2.804   9.233   7.993
10612WAT     H232079   2.711   9.102   7.963
10613WAT      O32080   8.106   5.309   6.384
10613WAT     H132081   8.101   5.229   6.324
10613WAT     H232082   8.040   5.377   6.354
10614WAT      O32083   2.893   2.205   0.344
10614WAT     H132084   2.929   2.150   0.420
10614WAT     H232085   2.933   2.297   0.348
10615WAT      O32086   1.497   9.085   7.649
10615WAT     H132087   1.414   9.091   7.593
10615WAT     H232088   1.577   9.102   7.591
10616WAT      O32089   5.992   0.808   6.546
10616WAT     H132090   6.047   0.724   6.551
10616WAT     H232091   6.010   0.854   6.459
10617WAT      O32092   6.942   4.082   8.307
10617WAT     H132093   6.870   4.045   8.366
10617WAT     H232094   6.981   4.008   8.252
10618WAT      O32095   0.071   2.946   5.859
10618WAT     H132096   0.040   2.966   5.952
10618WAT     H232097   0.126   3.022   5.824
10619WAT      O32098   2.820   5.092   2.867
10619WAT     H132099   2.909   5.135   2.854
10619WAT     H232100   2.782   5.067   2.778
10620WAT      O32101   9.225   6.091   4.551
10620WAT     H132102   9.251   6.160   4.483
10620WAT     H232103   9.307   6.050   4.590
10621WAT      O32104   5.186   8.592   1.895
10621WAT     H132105   5.087   8.588   1.888
10621WAT     H232106   5.213   8.668   1.955
10622WAT      O32107   4.943   4.203   7.430
10622WAT     H132108   4.895   4.252   7.502
10622WAT     H232109   5.002   4.133   7.471
10623WAT      O32110   3.663   5.550   1.200
10623WAT     H132111   3.588   5.573   1.262
10623WAT     H232112   3.701   5.633   1.161
10624WAT      O32113   5.981   5.515   6.449
10624WAT     H132114   5.892   5.558   6.436
10624WAT     H232115   6.025   5.502   6.360
10625WAT      O32116   1.710   6.320   7.857
10625WAT     H132117   1.628   6.267   7.877
10625WAT     H232118   1.769   6.324   7.938
10626WAT      O32119   7.214   8.541   1.700
10626WAT     H132120   7.127   8.506   1.665
10626WAT     H232121   7.282   8.468   1.699
10627WAT      O32122   5.374   1.334   0.122
10627WAT     H132123   5.431   1.388   0.184
10627WAT     H232124   5.389   1.237   0.141
10628WAT      O32125   4.294   2.235   0.447
10628WAT     H132126   4.319   2.147   0.487
10628WAT     H232127   4.232   2.283   0.509
10629WAT      O32128   5.191   1.804   7.118
10629WAT     H132129   5.249   1.724   7.132
10629WAT     H232130   5.128   1.814   7.195
10630WAT      O32131   3.209   3.699   8.832
10630WAT     H132132   3.295   3.749   8.828
10630WAT     H232133   3.141   3.747   8.776
10631WAT      O32134   0.193   0.187   0.380
10631WAT     H132135   0.249   0.201   0.298
10631WAT     H232136   0.208   0.095   0.415
10632WAT      O32137   0.050   2.860   9.632
10632WAT     H132138   0.137   2.888   9.672
10632WAT     H232139   0.037   2.906   9.544
10633WAT      O32140   9.437   7.812   2.603
10633WAT     H132141   9.396   7.859   2.682
10633WAT     H232142   9.518   7.863   2.573
10634WAT      O32143   9.432   9.021   5.737
10634WAT     H132144   9.530   9.001   5.739
10634WAT     H232145   9.400   9.038   5.830
10635WAT      O32146   7.489   9.634   5.231
10635WAT     H132147   7.440   9.563   5.281
10635WAT     H232148   7.532   9.595   5.150
10636WAT      O32149   5.415   8.416   9.520
10636WAT     H132150   5.433   8.436   9.424
10636WAT     H232151   5.326   8.452   9.546
10637WAT      O32152   9.474   6.033   8.454
10637WAT     H132153   9.414   6.015   8.376
10637WAT     H232154   9.569   6.011   8.429
10638WAT      O32155   2.170   3.879   1.710
10638WAT     H132156   2.103   3.862   1.638
10638WAT     H232157   2.127   3.932   1.783
10639WAT      O32158   7.297   8.374   1.984
10639WAT     H132159   7.368   8.429   1.941
10639WAT     H232160   7.211   8.425   1.986
10640WAT      O32161   0.535   3.169   4.685
10640WAT     H132162   0.512   3.235   4.757
10640WAT     H232163   0.630   3.183   4.656
10641WAT      O32164   5.938   1.106   0.729
10641WAT     H132165   5.988   1.101   0.643
10641WAT     H232166   6.003   1.099   0.805
10642WAT      O32167   1.514   1.215   6.462
10642WAT     H132168   1.491   1.135   6.406
10642WAT     H232169   1.468   1.208   6.550
10643WAT      O32170   9.552   6.596   0.329
10643WAT     H132171   9.595   6.591   0.239
10643WAT     H232172   9.509   6.509   0.350
10644WAT      O32173   1.930   4.627   2.398
10644WAT     H132174   1.943   4.724   2.420
10644WAT     H232175   1.894   4.579   2.478
10645WAT      O32176   7.725   1.774   7.054
10645WAT     H132177   7.775   1.713   7.117
10645WAT     H232178   7.774   1.861   7.046
10646WAT      O32179   2.699   7.576   3.918
10646WAT     H132180   2.697   7.594   3.820
10646WAT     H232181   2.688   7.662   3.968
10647WAT      O32182   2.809   5.015   0.574
10647WAT     H132183   2.720   5.031   0.531
10647WAT     H232184   2.810   5.058   0.664
10648WAT      O32185   9.868   6.604   6.017
10648WAT     H132186   9.774   6.569   6.012
10648WAT     H232187   9.906   6.586   6.108
10649WAT      O32188   2.365   5.689   5.349
10649WAT     H132189   2.287   5.719   5.295
10649WAT     H232190   2.338   5.677   5.445
10650WAT      O32191   0.723   4.098   4.830
10650WAT     H132192   0.680   4.187   4.813
10650WAT     H232193   0.670   4.048   4.898
10651WAT      O32194   7.181   5.971   5.936
10651WAT     H132195   7.239   5.899   5.897
10651WAT     H232196   7.209   5.988   6.030
10652WAT      O32197   2.110   0.910   0.765
10652WAT     H132198   2.161   0.939   0.846
10652WAT     H232199   2.019   0.878   0.794
10653WAT      O32200   8.781   4.564   7.447
10653WAT     H132201   8.755   4.512   7.366
10653WAT     H232202   8.859   4.623   7.426
10654WAT      O32203   4.891   4.516   6.436
10654WAT     H132204   4.936   4.482   6.353
10654WAT     H232205   4.799   4.477   6.442
10655WAT      O32206   0.070   0.315   1.975
10655WAT     H132207   0.127   0.346   1.898
10655WAT     H232208   0.012   0.390   2.005
10656WAT      O32209   9.103   4.389   7.719
10656WAT     H132210   9.031   4.409   7.786
10656WAT     H232211   9.158   4.312   7.751
10657WAT      O32212   8.119   6.665   2.709
10657WAT     H132213   8.198   6.610   2.681
10657WAT     H232214   8.150   6.753   2.744
10658WAT      O32215   7.260   0.613   3.404
10658WAT     H132216   7.351   0.639   3.370
10658WAT     H232217   7.268   0.532   3.462
10659WAT      O32218   8.307   2.449   4.193
10659WAT     H132219   8.381   2.408   4.248
10659WAT     H232220   8.346   2.492   4.112
10660WAT      O32221   1.997   8.299   4.352
10660WAT     H132222   1.969   8.205   4.373
10660WAT     H232223   1.921   8.361   4.370
10661WAT      O32224   4.824   2.022   9.409
10661WAT     H132225   4.748   1.998   9.469
10661WAT     H232226   4.865   1.938   9.373
10662WAT      O32227   6.287   1.476   2.929
10662WAT     H132228   6.252   1.450   3.019
10662WAT     H232229   6.312   1.394   2.878
10663WAT      O32230   9.552   4.109   1.721
10663WAT     H132231   9.474   4.170   1.732
10663WAT     H232232   9.614   4.145   1.650
10664WAT      O32233   5.511   2.644   6.926
10664WAT     H132234   5.568   2.725   6.911
10664WAT     H232235   5.499   2.630   7.024
10665WAT      O32236   0.640   1.533   4.307
10665WAT     H132237   0.647   1.445   4.260
10665WAT     H232238   0.546   1.567   4.299
10666WAT      O32239   5.236   4.781   5.537
10666WAT     H132240   5.313   4.830   5.577
10666WAT     H232241   5.151   4.831   5.556
10667WAT      O32242   8.215   1.243   6.389
10667WAT     H132243   8.250   1.335   6.373
10667WAT     H232244   8.258   1.205   6.471
10668WAT      O32245   6.080   7.983   7.927
10668WAT     H132246   6.149   7.911   7.931
10668WAT     H232247   6.023   7.979   8.009
10669WAT      O32248   3.864   8.063   1.231
10669WAT     H132249   3.856   8.071   1.131
10669WAT     H232250   3.960   8.069   1.258
10670WAT      O32251   5.218   4.966   4.615
10670WAT     H132252   5.132   5.017   4.612
10670WAT     H232253   5.294   5.030   4.628
10671WAT      O32254   9.797   4.469   1.095
10671WAT     H132255   9.815   4.455   0.998
10671WAT     H232256   9.860   4.538   1.131
10672WAT      O32257   7.150   9.746   7.450
10672WAT     H132258   7.192   9.659   7.475
10672WAT     H232259   7.201   9.821   7.493
10673WAT      O32260   6.948   5.586   5.040
10673WAT     H132261   6.931   5.612   4.945
10673WAT     H232262   7.044   5.598   5.062
10674WAT      O32263   4.306   6.045   2.530
10674WAT     H132264   4.329   6.048   2.433
10674WAT     H232265   4.207   6.053   2.541
10675WAT      O32266   0.156   3.692   7.139
10675WAT     H132267   0.179   3.781   7.177
10675WAT     H232268   0.219   3.623   7.175
10676WAT      O32269   3.259   2.680   4.389
10676WAT     H132270   3.335   2.742   4.408
10676WAT     H232271   3.178   2.709   4.440
10677WAT      O32272   0.273   5.158   8.854
10677WAT     H132273   0.319   5.247   8.865
10677WAT     H232274   0.213   5.162   8.774
10678WAT      O32275   6.085   8.110   6.024
10678WAT     H132276   6.130   8.029   6.063
10678WAT     H232277   6.155   8.173   5.990
10679WAT      O32278   4.807   6.579   7.117
10679WAT     H132279   4.820   6.481   7.105
10679WAT     H232280   4.815   6.602   7.214
10680WAT      O32281   2.940   0.799   7.915
10680WAT     H132282   2.871   0.727   7.918
10680WAT     H232283   3.021   0.771   7.967
10681WAT      O32284   8.610   6.477   5.110
10681WAT     H132285   8.601   6.387   5.066
10681WAT     H232286   8.703   6.487   5.146
10682WAT      O32287   7.340   3.163   2.564
10682WAT     H132288   7.271   3.181   2.494
10682WAT     H232289   7.401   3.242   2.573
10683WAT      O32290   7.830   6.838   3.632
10683WAT     H132291   7.746   6.861   3.680
10683WAT     H232292   7.880   6.769   3.685
10684WAT      O32293   5.275   5.407   3.431
10684WAT     H132294   5.330   5.424   3.513
10684WAT     H232295   5.285   5.312   3.403
10685WAT      O32296   4.370   2.897   6.013
10685WAT     H132297   4.388   2.983   6.061
10685WAT     H232298   4.450   2.874   5.956
10686WAT      O32299   1.615   5.158   6.864
10686WAT     H132300   1.523   5.157   6.902
10686WAT     H232301   1.612   5.191   6.769
10687WAT      O32302   0.073   7.353   4.000
10687WAT     H132303  -0.012   7.400   3.974
10687WAT     H232304   0.147   7.382   3.939
10688WAT      O32305   1.501   4.600   6.770
10688WAT     H132306   1.561   4.521   6.781
10688WAT     H232307   1.533   4.656   6.694
10689WAT      O32308   4.525   3.455   2.263
10689WAT     H132309   4.608   3.509   2.247
10689WAT     H232310   4.543   3.389   2.336
10690WAT      O32311   4.554   8.777   1.518
10690WAT     H132312   4.629   8.785   1.453
10690WAT     H232313   4.581   8.817   1.606
10691WAT      O32314   1.169   5.351   4.717
10691WAT     H132315   1.137   5.267   4.672
10691WAT     H232316   1.129   5.357   4.808
10692WAT      O32317   9.747   1.596   1.869
10692WAT     H132318   9.777   1.591   1.774
10692WAT     H232319   9.748   1.505   1.910
10693WAT      O32320   7.396   9.044   0.359
10693WAT     H132321   7.356   9.033   0.268
10693WAT     H232322   7.479   8.989   0.367
10694WAT      O32323   3.797   8.671   5.404
10694WAT     H132324   3.867   8.741   5.389
10694WAT     H232325   3.716   8.693   5.350
10695WAT      O32326   4.978   1.255   3.861
10695WAT     H132327   5.071   1.286   3.880
10695WAT     H232328   4.916   1.290   3.931
10696WAT      O32329   0.884   3.594   8.350
10696WAT     H132330   0.855   3.632   8.261
10696WAT     H232331   0.957   3.528   8.335
10697WAT      O32332   6.787   8.570   8.831
10697WAT     H132333   6.699   8.617   8.827
10697WAT     H232334   6.837   8.586   8.745
10698WAT      O32335   1.711   0.532   4.861
10698WAT     H132336   1.787   0.473   4.833
10698WAT     H232337   1.726   0.564   4.954
10699WAT      O32338   5.798   0.738   1.787
10699WAT     H132339   5.876   0.800   1.782
10699WAT     H232340   5.831   0.645   1.802
10700WAT      O32341   4.012   1.169   6.575
10700WAT     H132342   3.917   1.178   6.606
10700WAT     H232343   4.072   1.218   6.638
10701WAT      O32344   0.600   7.101   2.135
10701WAT     H132345   0.505   7.111   2.165
10701WAT     H232346   0.627   7.182   2.082
10702WAT      O32347   2.389   3.514   2.385
10702WAT     H132348   2.461   3.506   2.455
10702WAT     H232349   2.308   3.463   2.415
10703WAT      O32350   9.514   9.776   0.870
10703WAT     H132351   9.612   9.756   0.868
10703WAT     H232352   9.497   9.863   0.825
10704WAT      O32353   3.060   8.318   5.434
10704WAT     H132354   3.150   8.321   5.392
10704WAT     H232355   3.050   8.233   5.486
10705WAT      O32356   9.649   9.411   9.830
10705WAT     H132357   9.718   9.442   9.765
10705WAT     H232358   9.661   9.460   9.917
10706WAT      O32359   5.403   0.739   9.772
10706WAT     H132360   5.448   0.728   9.861
10706WAT     H232361   5.395   0.836   9.751
10707WAT      O32362   0.886   5.590   6.414
10707WAT     H132363   0.902   5.596   6.512
10707WAT     H232364   0.788   5.578   6.398
10708WAT      O32365   7.311   5.475   5.270
10708WAT     H132366   7.329   5.380   5.246
10708WAT     H232367   7.398   5.520   5.292
10709WAT      O32368   5.011   7.457   3.430
10709WAT     H132369   5.046   7.371   3.392
10709WAT     H232370   4.950   7.436   3.506
10710WAT      O32371   1.032   5.088   1.045
10710WAT     H132372   1.006   5.110   1.139
10710WAT     H232373   0.971   5.135   0.981
10711WAT      O32374   1.668   1.802   6.761
10711WAT     H132375   1.669   1.785   6.860
10711WAT     H232376   1.640   1.719   6.714
10712WAT      O32377   7.360   7.026   5.789
10712WAT     H132378   7.453   6.992   5.805
10712WAT     H232379   7.349   7.114   5.834
10713WAT      O32380   0.222   7.348   4.616
10713WAT     H132381   0.317   7.375   4.606
10713WAT     H232382   0.208   7.259   4.572
10714WAT      O32383   2.145   5.207   4.996
10714WAT     H132384   2.079   5.248   4.933
10714WAT     H232385   2.222   5.270   5.010
10715WAT      O32386   7.790   9.108   2.783
10715WAT     H132387   7.789   9.185   2.847
10715WAT     H232388   7.842   9.033   2.823
10716WAT      O32389   3.380   8.924   0.422
10716WAT     H132390   3.325   8.862   0.365
10716WAT     H232391   3.321   8.994   0.462
10717WAT      O32392   2.231   7.920   7.654
10717WAT     H132393   2.325   7.952   7.649
10717WAT     H232394   2.227   7.836   7.708
10718WAT      O32395   5.662   9.274   1.853
10718WAT     H132396   5.589   9.233   1.798
10718WAT     H232397   5.715   9.336   1.796
10719WAT      O32398   3.477   0.857   7.766
10719WAT     H132399   3.414   0.875   7.690
10719WAT     H232400   3.510   0.763   7.760
10720WAT      O32401   2.276   5.407   6.579
10720WAT     H132402   2.260   5.388   6.676
10720WAT     H232403   2.231   5.493   6.554
10721WAT      O32404   1.830   2.475   3.841
10721WAT     H132405   1.835   2.555   3.782
10721WAT     H232406   1.904   2.412   3.818
10722WAT      O32407   9.441   4.087   0.284
10722WAT     H132408   9.423   4.022   0.211
10722WAT     H232409   9.475   4.038   0.365
10723WAT      O32410   3.509   3.791   2.877
10723WAT     H132411   3.531   3.833   2.965
10723WAT     H232412   3.430   3.731   2.888
10724WAT      O32413   8.231   0.461   9.316
10724WAT     H132414   8.273   0.477   9.227
10724WAT     H232415   8.185   0.371   9.315
10725WAT      O32416   4.939   0.668   0.397
10725WAT     H132417   4.854   0.693   0.444
10725WAT     H232418   4.975   0.747   0.348
10726WAT      O32419   1.530   9.235   9.198
10726WAT     H132420   1.472   9.315   9.184
10726WAT     H232421   1.526   9.207   9.294
10727WAT      O32422   2.777   2.571   4.562
10727WAT     H132423   2.801   2.639   4.630
10727WAT     H232424   2.721   2.499   4.604
10728WAT      O32425   6.317   2.212   6.735
10728WAT     H132426   6.307   2.301   6.690
10728WAT     H232427   6.284   2.141   6.673
10729WAT      O32428   3.219   6.510   3.149
10729WAT     H132429   3.202   6.455   3.231
10729WAT     H232430   3.152   6.584   3.144
10730WAT      O32431   9.311   2.863   4.924
10730WAT     H132432   9.317   2.953   4.967
10730WAT     H232433   9.216   2.832   4.925
10731WAT      O32434   6.380   8.250   8.436
10731WAT     H132435   6.453   8.283   8.497
10731WAT     H232436   6.419   8.188   8.368
10732WAT      O32437   0.525   1.479   3.013
10732WAT     H132438   0.460   1.539   3.059
10732WAT     H232439   0.479   1.397   2.981
10733WAT      O32440   6.468   0.991   0.719
10733WAT     H132441   6.512   1.067   0.671
10733WAT     H232442   6.371   1.011   0.732
10734WAT      O32443   6.930   3.628   1.020
10734WAT     H132444   6.955   3.585   0.934
10734WAT     H232445   6.939   3.561   1.094
10735WAT      O32446   6.597   7.567   9.778
10735WAT     H132447   6.513   7.563   9.833
10735WAT     H232448   6.618   7.476   9.742
10736WAT      O32449   4.945   2.431   9.116
10736WAT     H132450   4.974   2.337   9.095
10736WAT     H232451   4.905   2.434   9.207
10737WAT      O32452   4.971   4.876   5.598
10737WAT     H132453   4.941   4.942   5.529
10737WAT     H232454   4.893   4.821   5.628
10738WAT      O32455   4.398   0.517   1.879
10738WAT     H132456   4.355   0.606   1.890
10738WAT     H232457   4.463   0.519   1.803
10739WAT      O32458   3.805   8.534   2.300
10739WAT     H132459   3.730   8.472   2.324
10739WAT     H232460   3.892   8.485   2.307
10740WAT      O32461   0.207   8.899   5.274
10740WAT     H132462   0.179   8.974   5.214
10740WAT     H232463   0.141   8.889   5.349
10741WAT      O32464   6.776   1.251   2.170
10741WAT     H132465   6.869   1.214   2.159
10741WAT     H232466   6.751   1.304   2.089
10742WAT      O32467   1.111   0.624   2.431
10742WAT     H132468   1.023   0.600   2.471
10742WAT     H232469   1.168   0.542   2.424
10743WAT      O32470   0.613   8.768   8.902
10743WAT     H132471   0.705   8.785   8.937
10743WAT     H232472   0.590   8.671   8.913
10744WAT      O32473   4.710   4.921   8.249
10744WAT     H132474   4.801   4.939   8.211
10744WAT     H232475   4.677   4.833   8.216
10745WAT      O32476   4.597   6.346   1.591
10745WAT     H132477   4.534   6.412   1.548
10745WAT     H232478   4.628   6.281   1.522
10746WAT      O32479   3.440   0.796   9.354
10746WAT     H132480   3.441   0.876   9.414
10746WAT     H232481   3.522   0.741   9.369
10747WAT      O32482   4.947   6.058   2.039
10747WAT     H132483   4.930   6.052   2.138
10747WAT     H232484   5.045   6.067   2.023
10748WAT      O32485   7.446   5.719   2.988
10748WAT     H132486   7.422   5.814   3.008
10748WAT     H232487   7.416   5.660   3.062
10749WAT      O32488   6.559   2.484   3.306
10749WAT     H132489   6.558   2.551   3.232
10749WAT     H232490   6.536   2.394   3.270
10750WAT      O32491   1.867   9.755   6.629
10750WAT     H132492   1.814   9.684   6.581
10750WAT     H232493   1.819   9.781   6.712
10751WAT      O32494   1.685   4.861   6.270
10751WAT     H132495   1.759   4.898   6.214
10751WAT     H232496   1.712   4.771   6.305
10752WAT      O32497   3.158   6.225   4.754
10752WAT     H132498   3.147   6.127   4.771
10752WAT     H232499   3.100   6.252   4.677
10753WAT      O32500   7.644   5.776   4.684
10753WAT     H132501   7.662   5.775   4.586
10753WAT     H232502   7.609   5.866   4.711
10754WAT      O32503   4.400   1.894   2.260
10754WAT     H132504   4.423   1.982   2.217
10754WAT     H232505   4.301   1.881   2.258
10755WAT      O32506   6.376   2.313   0.515
10755WAT     H132507   6.461   2.260   0.516
10755WAT     H232508   6.345   2.325   0.420
10756WAT      O32509   4.339   9.298   9.007
10756WAT     H132510   4.337   9.348   8.920
10756WAT     H232511   4.435   9.284   9.034
10757WAT      O32512   5.519   8.171   6.762
10757WAT     H132513   5.606   8.138   6.799
10757WAT     H232514   5.537   8.248   6.700
10758WAT      O32515   7.200   4.380   0.766
10758WAT     H132516   7.246   4.445   0.827
10758WAT     H232517   7.143   4.318   0.820
10759WAT      O32518   6.078   7.953   2.396
10759WAT     H132519   6.126   8.039   2.380
10759WAT     H232520   6.142   7.885   2.432
10760WAT      O32521   0.406   1.670   1.120
10760WAT     H132522   0.363   1.755   1.150
10760WAT     H232523   0.342   1.618   1.064
10761WAT      O32524   9.622   2.585   0.098
10761WAT     H132525   9.686   2.522   0.054
10761WAT     H232526   9.620   2.672   0.049
10762WAT      O32527   3.468   9.001   1.038
10762WAT     H132528   3.464   9.043   1.129
10762WAT     H232529   3.563   9.000   1.006
10763WAT      O32530   8.396   6.043   2.214
10763WAT     H132531   8.389   6.113   2.285
10763WAT     H232532   8.305   6.015   2.185
10764WAT      O32533   4.764   2.479   6.780
10764WAT     H132534   4.853   2.509   6.747
10764WAT     H232535   4.707   2.559   6.798
10765WAT      O32536   9.793   3.445   4.467
10765WAT     H132537   9.805   3.367   4.528
10765WAT     H232538   9.864   3.513   4.485
10766WAT      O32539   3.850   7.867   5.609
10766WAT     H132540   3.885   7.923   5.533
10766WAT     H232541   3.764   7.824   5.582
10767WAT      O32542   2.213   8.406   7.016
10767WAT     H132543   2.273   8.483   6.991
10767WAT     H232544   2.263   8.343   7.075
10768WAT      O32545   1.937   7.621   7.703
10768WAT     H132546   1.898   7.698   7.755
10768WAT     H232547   2.023   7.593   7.746
10769WAT      O32548   7.211   6.458   4.212
10769WAT     H132549   7.234   6.400   4.290
10769WAT     H232550   7.282   6.450   4.142
10770WAT      O32551   2.815   5.434   1.688
10770WAT     H132552   2.851   5.341   1.700
10770WAT     H232553   2.796   5.474   1.777
10771WAT      O32554   4.346   7.999   1.562
10771WAT     H132555   4.386   8.060   1.630
10771WAT     H232556   4.263   8.040   1.525
10772WAT      O32557   9.662   0.691   1.005
10772WAT     H132558   9.693   0.658   1.094
10772WAT     H232559   9.740   0.699   0.943
10773WAT      O32560   2.554   6.743   5.010
10773WAT     H132561   2.641   6.694   5.003
10773WAT     H232562   2.496   6.698   5.078
10774WAT      O32563   1.963   8.643   7.011
10774WAT     H132564   1.978   8.551   6.973
10774WAT     H232565   1.869   8.671   6.994
10775WAT      O32566   6.278   5.976   4.483
10775WAT     H132567   6.233   6.064   4.470
10775WAT     H232568   6.210   5.903   4.478
10776WAT      O32569   4.686   3.929   5.054
10776WAT     H132570   4.697   3.854   5.118
10776WAT     H232571   4.611   3.988   5.084
10777WAT      O32572   8.522   3.525   6.532
10777WAT     H132573   8.552   3.596   6.595
10777WAT     H232574   8.433   3.490   6.561
10778WAT      O32575   0.210   9.587   4.170
10778WAT     H132576   0.292   9.548   4.128
10778WAT     H232577   0.213   9.687   4.162
10779WAT      O32578   7.763   3.515   0.870
10779WAT     H132579   7.837   3.456   0.902
10779WAT     H232580   7.679   3.493   0.920
10780WAT      O32581   0.692   6.480   0.317
10780WAT     H132582   0.758   6.421   0.363
10780WAT     H232583   0.625   6.424   0.270
10781WAT      O32584   5.842   6.096   4.845
10781WAT     H132585   5.869   6.141   4.760
10781WAT     H232586   5.900   6.016   4.861
10782WAT      O32587   2.848   4.546   2.879
10782WAT     H132588   2.843   4.470   2.943
10782WAT     H232589   2.939   4.588   2.886
10783WAT      O32590   2.003   9.836   2.283
10783WAT     H132591   2.103   9.839   2.296
10783WAT     H232592   1.958   9.844   2.372
10784WAT      O32593   2.105   2.238   7.494
10784WAT     H132594   2.072   2.301   7.424
10784WAT     H232595   2.170   2.286   7.554
10785WAT      O32596   6.834   7.312   8.101
10785WAT     H132597   6.747   7.262   8.099
10785WAT     H232598   6.816   7.409   8.115
10786WAT      O32599   0.539   9.015   1.764
10786WAT     H132600   0.627   8.978   1.734
10786WAT     H232601   0.542   9.032   1.863
10787WAT      O32602   8.594   1.090   3.448
10787WAT     H132603   8.572   1.139   3.364
10787WAT     H232604   8.617   1.156   3.520
10788WAT      O32605   6.951   7.574   6.248
10788WAT     H132606   6.874   7.615   6.199
10788WAT     H232607   6.999   7.511   6.186
10789WAT      O32608   4.924   4.017   1.727
10789WAT     H132609   4.948   3.991   1.633
10789WAT     H232610   4.926   4.116   1.737
10790WAT      O32611   1.377   9.593   1.819
10790WAT     H132612   1.363   9.495   1.832
10790WAT     H232613   1.468   9.609   1.780
10791WAT      O32614   7.136   5.891   6.359
10791WAT     H132615   7.078   5.812   6.380
10791WAT     H232616   7.203   5.902   6.432
10792WAT      O32617   3.515   3.006   1.464
10792WAT     H132618   3.517   2.981   1.561
10792WAT     H232619   3.530   3.104   1.454
10793WAT      O32620   7.503   8.983   6.122
10793WAT     H132621   7.438   9.054   6.094
10793WAT     H232622   7.471   8.939   6.205
10794WAT      O32623   0.893   1.412   9.072
10794WAT     H132624   0.891   1.480   9.146
10794WAT     H232625   0.898   1.458   8.984
10795WAT      O32626   6.139   3.740   8.028
10795WAT     H132627   6.147   3.810   7.957
10795WAT     H232628   6.190   3.769   8.109
10796WAT      O32629   6.596   0.480   2.381
10796WAT     H132630   6.576   0.394   2.334
10796WAT     H232631   6.647   0.462   2.465
10797WAT      O32632   1.035   9.663   2.534
10797WAT     H132633   0.995   9.753   2.550
10797WAT     H232634   0.991   9.595   2.593
10798WAT      O32635   2.746   8.349   5.575
10798WAT     H132636   2.723   8.427   5.634
10798WAT     H232637   2.789   8.278   5.631
10799WAT      O32638   1.131   5.852   9.476
10799WAT     H132639   1.230   5.833   9.477
10799WAT     H232640   1.114   5.935   9.423
10800WAT      O32641   0.203   0.659   3.385
10800WAT     H132642   0.244   0.747   3.360
10800WAT     H232643   0.275   0.596   3.416
10801WAT      O32644   9.405   5.156   3.297
10801WAT     H132645   9.459   5.191   3.221
10801WAT     H232646   9.459   5.160   3.381
10802WAT      O32647   3.330   2.867   8.791
10802WAT     H132648   3.237   2.898   8.767
10802WAT     H232649   3.333   2.768   8.789
10803WAT      O32650   9.134   2.411   0.700
10803WAT     H132651   9.201   2.484   0.692
10803WAT     H232652   9.095   2.391   0.611
10804WAT      O32653   4.227   7.511   7.072
10804WAT     H132654   4.206   7.607   7.089
10804WAT     H232655   4.169   7.477   6.998
10805WAT      O32656   8.370   6.109   1.791
10805WAT     H132657   8.403   6.182   1.850
10805WAT     H232658   8.271   6.116   1.780
10806WAT      O32659   9.520   7.815   7.622
10806WAT     H132660   9.547   7.839   7.716
10806WAT     H232661   9.422   7.793   7.621
10807WAT      O32662   5.948   5.977   8.838
10807WAT     H132663   5.958   5.929   8.751
10807WAT     H232664   5.851   5.998   8.854
10808WAT      O32665   3.078   8.014   9.160
10808WAT     H132666   3.013   7.972   9.223
10808WAT     H232667   3.063   7.977   9.068
10809WAT      O32668   0.454   1.867   6.321
10809WAT     H132669   0.514   1.832   6.249
10809WAT     H232670   0.442   1.966   6.308
10810WAT      O32671   1.070   2.983   0.347
10810WAT     H132672   0.983   3.030   0.359
10810WAT     H232673   1.145   3.046   0.369
10811WAT      O32674   9.751   7.763   4.034
10811WAT     H132675   9.824   7.750   4.101
10811WAT     H232676   9.672   7.804   4.080
10812WAT      O32677   9.142   5.889   7.082
10812WAT     H132678   9.225   5.938   7.109
10812WAT     H232679   9.101   5.846   7.163
10813WAT      O32680   5.620   8.920   6.782
10813WAT     H132681   5.597   8.962   6.870
10813WAT     H232682   5.606   8.987   6.708
10814WAT      O32683   2.123   4.255   5.890
10814WAT     H132684   2.171   4.170   5.913
10814WAT     H232685   2.139   4.277   5.794
10815WAT      O32686   5.778   0.718   7.209
10815WAT     H132687   5.783   0.628   7.252
10815WAT     H232688   5.851   0.776   7.245
10816WAT      O32689   3.005   6.196   0.610
10816WAT     H132690   3.073   6.167   0.678
10816WAT     H232691   2.968   6.285   0.636
10817WAT      O32692   4.583   5.096   2.746
10817WAT     H132693   4.666   5.153   2.749
10817WAT     H232694   4.609   5.001   2.729
10818WAT      O32695   2.472   1.933   6.385
10818WAT     H132696   2.429   1.888   6.306
10818WAT     H232697   2.545   1.874   6.421
10819WAT      O32698   8.280   8.063   9.541
10819WAT     H132699   8.366   8.019   9.567
10819WAT     H232700   8.250   8.030   9.451
10820WAT      O32701   8.497   1.356   6.115
10820WAT     H132702   8.439   1.278   6.091
10820WAT     H232703   8.592   1.332   6.100
10821WAT      O32704   3.240   7.704   5.371
10821WAT     H132705   3.265   7.778   5.433
10821WAT     H232706   3.192   7.742   5.291
10822WAT      O32707   2.098   5.010   8.645
10822WAT     H132708   2.178   4.950   8.642
10822WAT     H232709   2.029   4.970   8.705
10823WAT      O32710   0.095   7.645   7.403
10823WAT     H132711   0.062   7.555   7.375
10823WAT     H232712   0.019   7.710   7.402
10824WAT      O32713   3.023   0.798   4.878
10824WAT     H132714   3.042   0.733   4.951
10824WAT     H232715   2.932   0.781   4.840
10825WAT      O32716   7.749   8.741   4.438
10825WAT     H132717   7.745   8.814   4.505
10825WAT     H232718   7.839   8.698   4.439
10826WAT      O32719   8.911   0.618   0.957
10826WAT     H132720   8.876   0.605   1.050
10826WAT     H232721   8.886   0.709   0.924
10827WAT      O32722   8.562   4.974   1.348
10827WAT     H132723   8.541   5.056   1.294
10827WAT     H232724   8.661   4.964   1.357
10828WAT      O32725   7.850   0.580   4.853
10828WAT     H132726   7.888   0.613   4.766
10828WAT     H232727   7.868   0.482   4.862
10829WAT      O32728   1.610   7.500   5.151
10829WAT     H132729   1.518   7.533   5.130
10829WAT     H232730   1.673   7.577   5.153
10830WAT      O32731   6.984   5.313   9.468
10830WAT     H132732   7.035   5.362   9.538
10830WAT     H232733   6.889   5.346   9.465
10831WAT      O32734   9.867   6.021   4.299
10831WAT     H132735   9.842   5.952   4.232
10831WAT     H232736   9.887   5.977   4.387
10832WAT      O32737   1.552   3.463   5.431
10832WAT     H132738   1.497   3.538   5.395
10832WAT     H232739   1.618   3.434   5.361
10833WAT      O32740   4.796   0.489   3.765
10833WAT     H132741   4.698   0.506   3.782
10833WAT     H232742   4.847   0.501   3.850
10834WAT      O32743   0.066   4.377   5.322
10834WAT     H132744   0.085   4.299   5.381
10834WAT     H232745   0.078   4.350   5.226
10835WAT      O32746   2.137   7.940   0.253
10835WAT     H132747   2.184   8.013   0.302
10835WAT     H232748   2.046   7.927   0.292
10836WAT      O32749   7.418   0.282   2.540
10836WAT     H132750   7.346   0.220   2.573
10836WAT     H232751   7.487   0.229   2.491
10837WAT      O32752   4.436   6.287   0.978
10837WAT     H132753   4.339   6.308   0.972
10837WAT     H232754   4.450   6.189   0.963
10838WAT      O32755   9.050   6.087   6.768
10838WAT     H132756   9.053   6.000   6.719
10838WAT     H232757   9.018   6.159   6.706
10839WAT      O32758   8.390   8.880   1.899
10839WAT     H132759   8.321   8.950   1.911
10839WAT     H232760   8.450   8.904   1.823
10840WAT      O32761   1.360   0.537   4.382
10840WAT     H132762   1.273   0.503   4.346
10840WAT     H232763   1.401   0.469   4.442
10841WAT      O32764   1.931   5.360   6.775
10841WAT     H132765   1.907   5.282   6.717
10841WAT     H232766   2.025   5.351   6.807
10842WAT      O32767   0.931   6.526   1.256
10842WAT     H132768   0.909   6.596   1.189
10842WAT     H232769   0.917   6.562   1.348
10843WAT      O32770   1.770   4.965   0.321
10843WAT     H132771   1.766   4.973   0.420
10843WAT     H232772   1.864   4.977   0.290
10844WAT      O32773   1.762   2.679   3.324
10844WAT     H132774   1.765   2.579   3.325
10844WAT     H232775   1.854   2.715   3.309
10845WAT      O32776   4.080   5.205   7.655
10845WAT     H132777   4.124   5.138   7.715
10845WAT     H232778   4.001   5.245   7.702
10846WAT      O32779   2.947   3.690   4.847
10846WAT     H132780   3.027   3.635   4.872
10846WAT     H232781   2.977   3.782   4.821
10847WAT      O32782   0.419   7.550   1.106
10847WAT     H132783   0.389   7.640   1.074
10847WAT     H232784   0.446   7.495   1.027
10848WAT      O32785   4.608   2.173   8.157
10848WAT     H132786   4.539   2.221   8.212
10848WAT     H232787   4.632   2.087   8.202
10849WAT      O32788   0.250   5.260   1.980
10849WAT     H132789   0.331   5.286   1.926
10849WAT     H232790   0.195   5.195   1.929
10850WAT      O32791   0.393   6.045   7.081
10850WAT     H132792   0.381   5.949   7.107
10850WAT     H232793   0.310   6.078   7.036
10851WAT      O32794   2.631   7.919   0.252
10851WAT     H132795   2.542   7.881   0.277
10851WAT     H232796   2.632   7.941   0.154
10852WAT      O32797   4.626   7.895   2.772
10852WAT     H132798   4.572   7.837   2.833
10852WAT     H232799   4.570   7.973   2.743
10853WAT      O32800   8.205   5.422   9.504
10853WAT     H132801   8.147   5.458   9.577
10853WAT     H232802   8.150   5.367   9.442
10854WAT      O32803   6.502   2.101   3.881
10854WAT     H132804   6.428   2.038   3.860
10854WAT     H232805   6.579   2.082   3.819
10855WAT      O32806   2.171   1.173   1.641
10855WAT     H132807   2.151   1.127   1.554
10855WAT     H232808   2.090   1.224   1.671
10856WAT      O32809   0.266   6.007   6.338
10856WAT     H132810   0.184   5.954   6.358
10856WAT     H232811   0.306   5.975   6.251
10857WAT      O32812   2.848   2.770   4.740
10857WAT     H132813   2.906   2.840   4.782
10857WAT     H232814   2.763   2.761   4.792
10858WAT      O32815   3.580   2.964   8.950
10858WAT     H132816   3.526   2.986   9.031
10858WAT     H232817   3.521   2.965   8.869
10859WAT      O32818   9.760   3.539   9.031
10859WAT     H132819   9.687   3.591   8.987
10859WAT     H232820   9.730   3.507   9.121
10860WAT      O32821   9.875   9.257   1.475
10860WAT     H132822   9.969   9.286   1.456
10860WAT     H232823   9.827   9.241   1.389
10861WAT      O32824   3.492   1.970   8.045
10861WAT     H132825   3.586   1.969   8.078
10861WAT     H232826   3.487   1.923   7.957
10862WAT      O32827   0.361   5.045   0.369
10862WAT     H132828   0.267   5.036   0.337
10862WAT     H232829   0.361   5.049   0.469
10863WAT      O32830   4.815   4.842   3.164
10863WAT     H132831   4.800   4.743   3.165
10863WAT     H232832   4.860   4.868   3.079
10864WAT      O32833   5.102   2.336   6.522
10864WAT     H132834   5.092   2.270   6.448
10864WAT     H232835   5.135   2.423   6.485
10865WAT      O32836   7.705   1.655   8.088
10865WAT     H132837   7.756   1.709   8.155
10865WAT     H232838   7.615   1.697   8.072
10866WAT      O32839   1.428   5.683   4.180
10866WAT     H132840   1.340   5.699   4.225
10866WAT     H232841   1.502   5.719   4.238
10867WAT      O32842   1.618   5.496   1.651
10867WAT     H132843   1.617   5.405   1.693
10867WAT     H232844   1.576   5.562   1.712
10868WAT      O32845   9.238   9.768   1.879
10868WAT     H132846   9.253   9.866   1.895
10868WAT     H232847   9.280   9.742   1.792
10869WAT      O32848   1.184   3.381   6.799
10869WAT     H132849   1.239   3.299   6.784
10869WAT     H232850   1.118   3.391   6.725
10870WAT      O32851   4.805   8.161   6.946
10870WAT     H132852   4.721   8.117   6.979
10870WAT     H232853   4.825   8.128   6.854
10871WAT      O32854   4.431   4.986   8.897
10871WAT     H132855   4.465   5.074   8.862
10871WAT     H232856   4.508   4.923   8.910
10872WAT      O32857   1.868   3.523   2.993
10872WAT     H132858   1.945   3.582   2.970
10872WAT     H232859   1.889   3.429   2.966
10873WAT      O32860   2.168   4.370   7.010
10873WAT     H132861   2.112   4.365   6.927
10873WAT     H232862   2.131   4.307   7.078
10874WAT      O32863   0.291   2.851   9.017
10874WAT     H132864   0.231   2.774   8.993
10874WAT     H232865   0.236   2.926   9.052
10875WAT      O32866   6.575   7.176   0.353
10875WAT     H132867   6.659   7.142   0.395
10875WAT     H232868   6.589   7.188   0.255
10876WAT      O32869   2.278   3.103   1.622
10876WAT     H132870   2.297   3.181   1.681
10876WAT     H232871   2.364   3.060   1.595
10877WAT      O32872   8.875   3.287   6.505
10877WAT     H132873   8.777   3.281   6.484
10877WAT     H232874   8.926   3.228   6.442
10878WAT      O32875   6.582   0.439   8.070
10878WAT     H132876   6.504   0.501   8.056
10878WAT     H232877   6.548   0.345   8.078
10879WAT      O32878   1.076   8.275   1.756
10879WAT     H132879   1.146   8.204   1.767
10879WAT     H232880   1.021   8.281   1.839
10880WAT      O32881   5.403   6.083   3.400
10880WAT     H132882   5.468   6.040   3.463
10880WAT     H232883   5.328   6.019   3.382
10881WAT      O32884   3.585   5.925   5.479
10881WAT     H132885   3.671   5.947   5.525
10881WAT     H232886   3.593   5.836   5.433
10882WAT      O32887   8.658   6.194   3.841
10882WAT     H132888   8.639   6.150   3.929
10882WAT     H232889   8.679   6.290   3.855
10883WAT      O32890   7.378   1.204   7.726
10883WAT     H132891   7.278   1.208   7.716
10883WAT     H232892   7.412   1.295   7.749
10884WAT      O32893   6.418   7.043   5.094
10884WAT     H132894   6.462   6.994   5.020
10884WAT     H232895   6.471   7.032   5.178
10885WAT      O32896   4.240   5.196   4.795
10885WAT     H132897   4.170   5.124   4.797
10885WAT     H232898   4.230   5.248   4.710
10886WAT      O32899   4.518   2.822   0.190
10886WAT     H132900   4.518   2.846   0.287
10886WAT     H232901   4.540   2.725   0.180
10887WAT      O32902   4.448   3.466   3.438
10887WAT     H132903   4.469   3.462   3.340
10887WAT     H232904   4.529   3.444   3.491
10888WAT      O32905   4.052   4.714   9.160
10888WAT     H132906   4.092   4.630   9.196
10888WAT     H232907   3.980   4.691   9.094
10889WAT      O32908   1.400   3.067   7.060
10889WAT     H132909   1.482   3.011   7.061
10889WAT     H232910   1.421   3.158   7.023
10890WAT      O32911   0.616   9.721   8.743
10890WAT     H132912   0.670   9.673   8.674
10890WAT     H232913   0.561   9.791   8.699
10891WAT      O32914   2.547   1.757   0.163
10891WAT     H132915   2.506   1.671   0.194
10891WAT     H232916   2.618   1.738   0.095
10892WAT      O32917   7.884   9.658   6.896
10892WAT     H132918   7.869   9.570   6.943
10892WAT     H232919   7.863   9.733   6.958
10893WAT      O32920   5.789   9.724   2.899
10893WAT     H132921   5.817   9.818   2.881
10893WAT     H232922   5.754   9.683   2.814
10894WAT      O32923   6.603   3.101   0.907
10894WAT     H132924   6.654   3.176   0.950
10894WAT     H232925   6.514   3.092   0.951
10895WAT      O32926   4.296   8.189   4.495
10895WAT     H132927   4.337   8.152   4.579
10895WAT     H232928   4.269   8.284   4.511
10896WAT      O32929   3.406   3.020   2.343
10896WAT     H132930   3.435   3.062   2.257
10896WAT     H232931   3.306   3.025   2.351
10897WAT      O32932   7.470   6.162   6.325
10897WAT     H132933   7.520   6.242   6.292
10897WAT     H232934   7.514   6.126   6.407
10898WAT      O32935   5.672   0.154   4.512
10898WAT     H132936   5.738   0.080   4.527
10898WAT     H232937   5.718   0.232   4.469
10899WAT      O32938   4.244   1.747   6.855
10899WAT     H132939   4.316   1.769   6.920
10899WAT     H232940   4.155   1.756   6.901
10900WAT      O32941   1.878   0.326   9.394
10900WAT     H132942   1.797   0.336   9.451
10900WAT     H232943   1.927   0.413   9.389
10901WAT      O32944   7.031   9.186   2.352
10901WAT     H132945   6.937   9.163   2.378
10901WAT     H232946   7.042   9.285   2.350
10902WAT      O32947   1.328   0.400   8.964
10902WAT     H132948   1.390   0.443   8.898
10902WAT     H232949   1.322   0.458   9.046
10903WAT      O32950   5.206   7.643   8.824
10903WAT     H132951   5.188   7.620   8.728
10903WAT     H232952   5.297   7.610   8.849
10904WAT      O32953   3.463   1.056   4.130
10904WAT     H132954   3.520   1.131   4.098
10904WAT     H232955   3.367   1.086   4.136
10905WAT      O32956   8.143   8.699   9.374
10905WAT     H132957   8.127   8.600   9.371
10905WAT     H232958   8.231   8.720   9.330
10906WAT      O32959   8.833   3.156   8.779
10906WAT     H132960   8.860   3.158   8.683
10906WAT     H232961   8.866   3.239   8.824
10907WAT      O32962   9.614   7.133   6.145
10907WAT     H132963   9.683   7.202   6.167
10907WAT     H232964   9.633   7.050   6.197
10908WAT      O32965   1.045   7.273   4.384
10908WAT     H132966   1.037   7.362   4.339
10908WAT     H232967   0.992   7.274   4.469
10909WAT      O32968   8.064   1.873   7.887
10909WAT     H132969   7.978   1.920   7.904
10909WAT     H232970   8.068   1.789   7.941
10910WAT      O32971   3.077   5.506   3.624
10910WAT     H132972   3.027   5.493   3.539
10910WAT     H232973   3.091   5.603   3.640
10911WAT      O32974   0.315   3.077   7.652
10911WAT     H132975   0.300   2.980   7.634
10911WAT     H232976   0.231   3.118   7.688
10912WAT      O32977   1.021   8.758   0.857
10912WAT     H132978   1.054   8.667   0.830
10912WAT     H232979   1.099   8.816   0.880
10913WAT      O32980   7.950   2.464   0.887
10913WAT     H132981   7.896   2.493   0.965
10913WAT     H232982   7.897   2.398   0.833
10914WAT      O32983   3.981   8.568   7.208
10914WAT     H132984   3.992   8.504   7.132
10914WAT     H232985   3.893   8.552   7.253
10915WAT      O32986   9.403   4.760   5.242
10915WAT     H132987   9.396   4.681   5.181
10915WAT     H232988   9.340   4.749   5.318
10916WAT      O32989   6.964   8.234   5.583
10916WAT     H132990   6.993   8.316   5.632
10916WAT     H232991   7.033   8.211   5.514
10917WAT      O32992   8.591   0.465   6.210
10917WAT     H132993   8.676   0.413   6.203
10917WAT     H232994   8.612   0.560   6.234
10918WAT      O32995   5.707   4.564   2.048
10918WAT     H132996   5.745   4.538   1.960
10918WAT     H232997   5.608   4.578   2.040
10919WAT      O32998   1.986   8.304   9.583
10919WAT     H132999   1.975   8.262   9.673
10919WAT     H233000   2.002   8.402   9.594
10920WAT      O33001   4.959   7.216   7.277
10920WAT     H133002   4.931   7.135   7.227
10920WAT     H233003   4.918   7.297   7.235
10921WAT      O33004   8.703   8.187   3.911
10921WAT     H133005   8.720   8.281   3.943
10921WAT     H233006   8.612   8.181   3.870
10922WAT      O33007   9.031   8.689   5.703
10922WAT     H133008   9.095   8.760   5.676
10922WAT     H233009   8.959   8.728   5.761
10923WAT      O33010   7.843   8.664   8.644
10923WAT     H133011   7.802   8.724   8.576
10923WAT     H233012   7.772   8.625   8.702
10924WAT      O33013   9.698   0.685   1.613
10924WAT     H133014   9.738   0.774   1.591
10924WAT     H233015   9.750   0.642   1.686
10925WAT      O33016   7.868   3.376   1.909
10925WAT     H133017   7.900   3.281   1.902
10925WAT     H233018   7.836   3.393   2.002
10926WAT      O33019   5.145   4.825   3.270
10926WAT     H133020   5.241   4.802   3.284
10926WAT     H233021   5.088   4.752   3.308
10927WAT      O33022   9.610   3.644   8.566
10927WAT     H133023   9.595   3.737   8.532
10927WAT     H233024   9.526   3.590   8.554
10928WAT      O33025   8.424   9.370   6.108
10928WAT     H133026   8.347   9.386   6.170
10928WAT     H233027   8.398   9.302   6.040
10929WAT      O33028   3.165   0.971   2.588
10929WAT     H133029   3.080   0.966   2.641
10929WAT     H233030   3.233   1.023   2.640
10930WAT      O33031   9.215   2.593   5.163
10930WAT     H133032   9.165   2.532   5.225
10930WAT     H233033   9.174   2.589   5.072
10931WAT      O33034   2.077   8.919   7.276
10931WAT     H133035   2.058   8.828   7.312
10931WAT     H233036   2.154   8.959   7.325
10932WAT      O33037   1.057   4.434   7.197
10932WAT     H133038   1.133   4.405   7.254
10932WAT     H233039   0.986   4.364   7.197
10933WAT      O33040   2.248   3.577   7.260
10933WAT     H133041   2.326   3.569   7.197
10933WAT     H233042   2.213   3.671   7.258
10934WAT      O33043   7.570   8.063   0.456
10934WAT     H133044   7.615   8.125   0.520
10934WAT     H233045   7.579   8.100   0.363
10935WAT      O33046   3.923   9.747   7.667
10935WAT     H133047   3.857   9.698   7.611
10935WAT     H233048   3.956   9.688   7.740
10936WAT      O33049   1.424   3.338   7.340
10936WAT     H133050   1.463   3.246   7.329
10936WAT     H233051   1.463   3.399   7.271
10937WAT      O33052   4.589   1.567   3.008
10937WAT     H133053   4.494   1.565   3.039
10937WAT     H233054   4.602   1.498   2.937
10938WAT      O33055   7.432   5.053   4.518
10938WAT     H133056   7.478   5.141   4.516
10938WAT     H233057   7.365   5.048   4.444
10939WAT      O33058   0.642   2.179   6.948
10939WAT     H133059   0.724   2.137   6.989
10939WAT     H233060   0.601   2.242   7.014
10940WAT      O33061   5.983   1.505   5.359
10940WAT     H133062   5.893   1.505   5.403
10940WAT     H233063   6.028   1.417   5.374
10941WAT      O33064   7.738   3.568   0.439
10941WAT     H133065   7.774   3.489   0.489
10941WAT     H233066   7.638   3.567   0.444
10942WAT      O33067   9.538   1.310   9.608
10942WAT     H133068   9.624   1.312   9.556
10942WAT     H233069   9.463   1.285   9.547
10943WAT      O33070   3.679   2.205   1.889
10943WAT     H133071   3.720   2.207   1.798
10943WAT     H233072   3.622   2.286   1.902
10944WAT      O33073   3.446   5.453   6.971
10944WAT     H133074   3.459   5.551   6.959
10944WAT     H233075   3.349   5.430   6.961
10945WAT      O33076   0.658   8.409   7.643
10945WAT     H133077   0.749   8.394   7.682
10945WAT     H233078   0.594   8.432   7.716
10946WAT      O33079   8.134   0.144   5.240
10946WAT     H133080   8.104   0.222   5.185
10946WAT     H233081   8.191   0.176   5.315
10947WAT      O33082   8.383   6.778   4.968
10947WAT     H133083   8.359   6.783   5.065
10947WAT     H233084   8.413   6.868   4.936
10948WAT      O33085   0.109   3.766   8.636
10948WAT     H133086   0.050   3.835   8.678
10948WAT     H233087   0.064   3.677   8.640
10949WAT      O33088   9.022   3.512   4.704
10949WAT     H133089   8.988   3.605   4.691
10949WAT     H233090   8.995   3.455   4.626
10950WAT      O33091   5.920   5.738   7.223
10950WAT     H133092   5.988   5.699   7.162
10950WAT     H233093   5.960   5.816   7.273
10951WAT      O33094   3.023   7.383   8.765
10951WAT     H133095   3.049   7.332   8.847
10951WAT     H233096   3.101   7.438   8.733
10952WAT      O33097   5.988   2.906   1.894
10952WAT     H133098   6.004   2.874   1.800
10952WAT     H233099   5.946   2.997   1.891
10953WAT      O33100   5.425   3.969   5.210
10953WAT     H133101   5.387   3.892   5.261
10953WAT     H233102   5.522   3.978   5.229
10954WAT      O33103   5.636   8.960   1.288
10954WAT     H133104   5.546   8.975   1.330
10954WAT     H233105   5.705   9.004   1.344
10955WAT      O33106   6.929   1.289   0.808
10955WAT     H133107   6.875   1.342   0.874
10955WAT     H233108   6.888   1.297   0.717
10956WAT      O33109   0.853   4.160   4.340
10956WAT     H133110   0.800   4.096   4.396
10956WAT     H233111   0.950   4.155   4.365
10957WAT      O33112   9.446   2.647   9.044
10957WAT     H133113   9.485   2.594   9.119
10957WAT     H233114   9.517   2.667   8.977
10958WAT      O33115   8.904   2.944   2.261
10958WAT     H133116   8.996   2.906   2.277
10958WAT     H233117   8.898   3.035   2.302
10959WAT      O33118   1.756   1.289   6.556
10959WAT     H133119   1.664   1.274   6.518
10959WAT     H233120   1.784   1.384   6.538
10960WAT      O33121   3.803   1.262   7.929
10960WAT     H133122   3.897   1.266   7.897
10960WAT     H233123   3.742   1.245   7.851
10961WAT      O33124   6.618   4.947   2.080
10961WAT     H133125   6.683   4.997   2.022
10961WAT     H233126   6.611   4.853   2.047
10962WAT      O33127   1.344   1.955   3.318
10962WAT     H133128   1.409   1.998   3.380
10962WAT     H233129   1.370   1.972   3.223
10963WAT      O33130   1.915   2.144   6.448
10963WAT     H133131   1.900   2.108   6.540
10963WAT     H233132   1.838   2.203   6.423
10964WAT      O33133   4.106   6.794   6.240
10964WAT     H133134   4.049   6.780   6.321
10964WAT     H233135   4.054   6.843   6.171
10965WAT      O33136   1.772   7.113   2.634
10965WAT     H133137   1.780   7.118   2.733
10965WAT     H233138   1.724   7.029   2.608
10966WAT      O33139   4.477   0.221   7.445
10966WAT     H133140   4.517   0.177   7.525
10966WAT     H233141   4.501   0.169   7.363
10967WAT      O33142   5.124   7.275   1.139
10967WAT     H133143   5.157   7.288   1.046
10967WAT     H233144   5.154   7.351   1.196
10968WAT      O33145   8.161   9.338   6.744
10968WAT     H133146   8.063   9.340   6.766
10968WAT     H233147   8.207   9.271   6.802
10969WAT      O33148   1.832   7.847   7.880
10969WAT     H133149   1.735   7.854   7.901
10969WAT     H233150   1.852   7.904   7.800
10970WAT      O33151   2.455   5.117   5.407
10970WAT     H133152   2.422   5.062   5.483
10970WAT     H233153   2.391   5.110   5.330
10971WAT      O33154   2.044   1.009   9.437
10971WAT     H133155   2.110   0.951   9.483
10971WAT     H233156   2.074   1.104   9.441
10972WAT      O33157   7.454   7.656   5.384
10972WAT     H133158   7.511   7.737   5.395
10972WAT     H233159   7.408   7.635   5.471
10973WAT      O33160   1.802   5.084   3.924
10973WAT     H133161   1.860   5.164   3.914
10973WAT     H233162   1.763   5.060   3.835
10974WAT      O33163   1.580   0.317   8.615
10974WAT     H133164   1.547   0.227   8.641
10974WAT     H233165   1.680   0.316   8.612
10975WAT      O33166   7.009   2.688   0.012
10975WAT     H133167   6.988   2.653  -0.079
10975WAT     H233168   7.011   2.612   0.077
10976WAT      O33169   3.359   5.951   1.691
10976WAT     H133170   3.314   5.986   1.774
10976WAT     H233171   3.329   5.858   1.674
10977WAT      O33172   7.386   5.954   8.566
10977WAT     H133173   7.479   5.957   8.530
10977WAT     H233174   7.387   5.920   8.659
10978WAT      O33175   9.534   0.656   0.069
10978WAT     H133176   9.456   0.621   0.018
10978WAT     H233177   9.562   0.744   0.031
10979WAT      O33178   5.422   9.681   0.745
10979WAT     H133179   5.395   9.649   0.654
10979WAT     H233180   5.449   9.777   0.740
10980WAT      O33181   9.341   3.127   8.387
10980WAT     H133182   9.301   3.035   8.384
10980WAT     H233183   9.422   3.127   8.445
10981WAT      O33184   8.563   3.474   9.093
10981WAT     H133185   8.570   3.463   9.192
10981WAT     H233186   8.646   3.519   9.059
10982WAT      O33187   7.924   6.002   9.867
10982WAT     H133188   7.964   5.913   9.889
10982WAT     H233189   7.976   6.074   9.912
10983WAT      O33190   9.869   2.630   6.491
10983WAT     H133191   9.848   2.726   6.470
10983WAT     H233192   9.876   2.578   6.406
10984WAT      O33193   4.890   7.809   8.060
10984WAT     H133194   4.849   7.796   7.969
10984WAT     H233195   4.957   7.883   8.055
10985WAT      O33196   6.578   4.125   2.414
10985WAT     H133197   6.506   4.177   2.460
10985WAT     H233198   6.553   4.028   2.413
10986WAT      O33199   4.134   8.956   0.997
10986WAT     H133200   4.076   8.886   0.955
10986WAT     H233201   4.155   8.929   1.091
10987WAT      O33202   1.978   1.393   0.815
10987WAT     H133203   1.979   1.490   0.789
10987WAT     H233204   2.064   1.350   0.788
10988WAT      O33205   3.109   4.482   6.594
10988WAT     H133206   3.111   4.484   6.694
10988WAT     H233207   3.148   4.566   6.558
10989WAT      O33208   2.796   1.107   9.788
10989WAT     H133209   2.746   1.021   9.782
10989WAT     H233210   2.878   1.103   9.731
10990WAT      O33211   5.914   1.703   9.115
10990WAT     H133212   5.844   1.638   9.086
10990WAT     H233213   5.928   1.696   9.214
10991WAT      O33214   6.234   7.681   7.173
10991WAT     H133215   6.235   7.739   7.092
10991WAT     H233216   6.315   7.622   7.173
10992WAT      O33217   1.546   7.513   0.830
10992WAT     H133218   1.617   7.544   0.766
10992WAT     H233219   1.585   7.444   0.890
10993WAT      O33220   9.096   0.564   8.549
10993WAT     H133221   9.179   0.508   8.546
10993WAT     H233222   9.119   0.656   8.583
10994WAT      O33223   3.920   3.097   7.512
10994WAT     H133224   3.841   3.122   7.568
10994WAT     H233225   3.988   3.170   7.516
10995WAT      O33226   2.283   4.538   7.400
10995WAT     H133227   2.268   4.631   7.433
10995WAT     H233228   2.206   4.480   7.426
10996WAT      O33229   1.683   7.486   8.338
10996WAT     H133230   1.772   7.500   8.295
10996WAT     H233231   1.629   7.570   8.330
10997WAT      O33232   1.202   3.623   1.723
10997WAT     H133233   1.111   3.632   1.763
10997WAT     H233234   1.216   3.529   1.691
10998WAT      O33235   8.554   7.696   2.050
10998WAT     H133236   8.520   7.702   2.144
10998WAT     H233237   8.507   7.762   1.992
10999WAT      O33238   1.639   2.234   9.415
10999WAT     H133239   1.730   2.204   9.440
10999WAT     H233240   1.574   2.159   9.428
11000WAT      O33241   6.705   8.622   6.657
11000WAT     H133242   6.758   8.546   6.694
11000WAT     H233243   6.608   8.603   6.667
11001WAT      O33244   8.054   0.008   6.074
11001WAT     H133245   8.065   0.037   5.978
11001WAT     H233246   8.137  -0.039   6.103
11002WAT      O33247   6.006   2.867   2.643
11002WAT     H133248   6.033   2.950   2.692
11002WAT     H233249   5.908   2.871   2.624
11003WAT      O33250   1.601   5.161   3.729
11003WAT     H133251   1.579   5.234   3.795
11003WAT     H233252   1.630   5.202   3.643
11004WAT      O33253   7.896   5.192   9.683
11004WAT     H133254   7.934   5.284   9.675
11004WAT     H233255   7.970   5.125   9.692
11005WAT      O33256   8.575   6.440   8.422
11005WAT     H133257   8.527   6.503   8.484
11005WAT     H233258   8.542   6.347   8.439
11006WAT      O33259   1.947   1.010   7.866
11006WAT     H133260   1.904   0.944   7.805
11006WAT     H233261   2.006   0.962   7.931
11007WAT      O33262   5.416   0.140   1.457
11007WAT     H133263   5.437   0.158   1.553
11007WAT     H233264   5.481   0.190   1.399
11008WAT      O33265   3.453   8.640   5.804
11008WAT     H133266   3.423   8.568   5.740
11008WAT     H233267   3.374   8.694   5.832
11009WAT      O33268   1.036   0.196   0.160
11009WAT     H133269   1.054   0.289   0.193
11009WAT     H233270   0.988   0.200   0.072
11010WAT      O33271   7.804   2.722   2.197
11010WAT     H133272   7.783   2.819   2.191
11010WAT     H233273   7.865   2.696   2.122
11011WAT      O33274   9.055   8.760   8.839
11011WAT     H133275   9.059   8.853   8.876
11011WAT     H233276   9.093   8.696   8.906
11012WAT      O33277   6.364   6.115   5.834
11012WAT     H133278   6.344   6.044   5.902
11012WAT     H233279   6.299   6.109   5.759
11013WAT      O33280   5.026   1.609   6.201
11013WAT     H133281   4.968   1.649   6.130
11013WAT     H233282   5.116   1.652   6.198
11014WAT      O33283   5.377   8.702   8.925
11014WAT     H133284   5.464   8.717   8.876
11014WAT     H233285   5.340   8.790   8.954
11015WAT      O33286   4.542   4.855   3.978
11015WAT     H133287   4.583   4.937   3.939
11015WAT     H233288   4.519   4.871   4.074
11016WAT      O33289   0.408   7.018   8.680
11016WAT     H133290   0.495   6.972   8.697
11016WAT     H233291   0.424   7.101   8.625
11017WAT      O33292   5.890   8.296   5.445
11017WAT     H133293   5.857   8.210   5.483
11017WAT     H233294   5.949   8.277   5.367
11018WAT      O33295   7.723   1.584   9.092
11018WAT     H133296   7.695   1.583   9.189
11018WAT     H233297   7.683   1.665   9.047
11019WAT      O33298   0.416   3.972   1.686
11019WAT     H133299   0.439   3.955   1.782
11019WAT     H233300   0.433   4.068   1.664
11020WAT      O33301   8.486   4.404   1.157
11020WAT     H133302   8.398   4.398   1.109
11020WAT     H233303   8.472   4.448   1.246
11021WAT      O33304   8.520   2.240   8.418
11021WAT     H133305   8.499   2.333   8.446
11021WAT     H233306   8.434   2.190   8.403
11022WAT      O33307   9.083   8.311   7.857
11022WAT     H133308   9.072   8.344   7.951
11022WAT     H233309   9.007   8.343   7.801
11023WAT      O33310   0.572   7.757   8.864
11023WAT     H133311   0.647   7.767   8.798
11023WAT     H233312   0.603   7.703   8.942
11024WAT      O33313   5.014   7.504   6.606
11024WAT     H133314   4.936   7.567   6.617
11024WAT     H233315   4.992   7.416   6.647
11025WAT      O33316   1.795   3.219   0.120
11025WAT     H133317   1.733   3.162   0.174
11025WAT     H233318   1.836   3.164   0.047
11026WAT      O33319   9.320   2.848   2.109
11026WAT     H133320   9.401   2.791   2.098
11026WAT     H233321   9.247   2.814   2.049
11027WAT      O33322   8.401   0.002   5.770
11027WAT     H133323   8.412   0.088   5.721
11027WAT     H233324   8.431   0.014   5.865
11028WAT      O33325   8.452   9.772   3.584
11028WAT     H133326   8.359   9.800   3.559
11028WAT     H233327   8.513   9.850   3.578
11029WAT      O33328   7.512   9.078   4.275
11029WAT     H133329   7.462   9.138   4.338
11029WAT     H233330   7.454   9.001   4.248
11030WAT      O33331   3.069   2.883   8.683
11030WAT     H133332   3.085   2.785   8.680
11030WAT     H233333   3.007   2.910   8.609
11031WAT      O33334   1.122   2.871   6.158
11031WAT     H133335   1.148   2.801   6.225
11031WAT     H233336   1.198   2.933   6.142
11032WAT      O33337   1.738   2.498   1.002
11032WAT     H133338   1.684   2.532   0.925
11032WAT     H233339   1.821   2.454   0.967
11033WAT      O33340   3.548   0.327   9.049
11033WAT     H133341   3.561   0.352   9.145
11033WAT     H233342   3.458   0.286   9.037
11034WAT      O33343   3.060   1.246   1.607
11034WAT     H133344   2.999   1.267   1.683
11034WAT     H233345   3.144   1.205   1.642
11035WAT      O33346   0.192   5.812   5.956
11035WAT     H133347   0.126   5.866   6.008
11035WAT     H233348   0.250   5.760   6.019
11036WAT      O33349   4.840   7.943   6.470
11036WAT     H133350   4.878   7.991   6.390
11036WAT     H233351   4.748   7.977   6.488
11037WAT      O33352   7.030   1.709   3.024
11037WAT     H133353   6.953   1.649   3.003
11037WAT     H233354   7.076   1.735   2.939
11038WAT      O33355   8.933   5.304   7.787
11038WAT     H133356   8.973   5.256   7.866
11038WAT     H233357   9.007   5.337   7.728
11039WAT      O33358   5.521   5.182   5.707
11039WAT     H133359   5.615   5.187   5.741
11039WAT     H233360   5.459   5.217   5.776
11040WAT      O33361   6.576   5.641   8.552
11040WAT     H133362   6.489   5.593   8.551
11040WAT     H233363   6.629   5.618   8.471
11041WAT      O33364   7.552   8.524   3.341
11041WAT     H133365   7.567   8.597   3.274
11041WAT     H233366   7.635   8.510   3.394
11042WAT      O33367   3.921   3.440   9.871
11042WAT     H133368   3.974   3.524   9.859
11042WAT     H233369   3.935   3.405   9.964
11043WAT      O33370   9.593   9.126   5.028
11043WAT     H133371   9.631   9.218   5.015
11043WAT     H233372   9.542   9.123   5.114
11044WAT      O33373   2.580   0.067   5.259
11044WAT     H133374   2.662   0.013   5.279
11044WAT     H233375   2.565   0.133   5.333
11045WAT      O33376   4.473   0.311   2.440
11045WAT     H133377   4.460   0.392   2.383
11045WAT     H233378   4.384   0.270   2.461
11046WAT      O33379   5.331   2.499   0.953
11046WAT     H133380   5.301   2.580   1.004
11046WAT     H233381   5.310   2.417   1.006
11047WAT      O33382   8.420   4.377   2.297
11047WAT     H133383   8.488   4.439   2.259
11047WAT     H233384   8.409   4.396   2.395
11048WAT      O33385   1.025   2.917   8.552
11048WAT     H133386   1.039   2.948   8.457
11048WAT     H233387   0.940   2.864   8.557
11049WAT      O33388   6.468   0.106   8.852
11049WAT     H133389   6.567   0.103   8.867
11049WAT     H233390   6.445   0.048   8.775
11050WAT      O33391   5.025   0.708   8.297
11050WAT     H133392   5.079   0.677   8.375
11050WAT     H233393   4.939   0.747   8.330
11051WAT      O33394   7.321   2.758   5.169
11051WAT     H133395   7.243   2.695   5.170
11051WAT     H233396   7.311   2.825   5.242
11052WAT      O33397   7.608   5.374   3.076
11052WAT     H133398   7.583   5.384   2.979
11052WAT     H233399   7.566   5.447   3.129
11053WAT      O33400   7.446   7.716   0.715
11053WAT     H133401   7.489   7.648   0.656
11053WAT     H233402   7.415   7.793   0.659
11054WAT      O33403   2.142   7.960   4.571
11054WAT     H133404   2.051   7.971   4.530
11054WAT     H233405   2.199   7.904   4.512
11055WAT      O33406   6.363   7.386   3.192
11055WAT     H133407   6.299   7.364   3.119
11055WAT     H233408   6.352   7.321   3.267
11056WAT      O33409   3.776   7.944   8.214
11056WAT     H133410   3.754   8.006   8.289
11056WAT     H233411   3.831   7.993   8.146
11057WAT      O33412   4.579   5.128   8.353
11057WAT     H133413   4.614   5.046   8.308
11057WAT     H233414   4.653   5.195   8.361
11058WAT      O33415   5.322   5.924   2.441
11058WAT     H133416   5.246   5.866   2.471
11058WAT     H233417   5.384   5.941   2.518
11059WAT      O33418   3.125   9.081   2.079
11059WAT     H133419   3.155   9.016   2.150
11059WAT     H233420   3.068   9.033   2.012
11060WAT      O33421   0.384   6.696   5.728
11060WAT     H133422   0.395   6.687   5.827
11060WAT     H233423   0.288   6.682   5.704
11061WAT      O33424   8.175   9.041   0.960
11061WAT     H133425   8.236   9.058   1.037
11061WAT     H233426   8.163   8.943   0.948
11062WAT      O33427   8.965   6.268   5.569
11062WAT     H133428   8.931   6.360   5.589
11062WAT     H233429   8.897   6.220   5.513
11063WAT      O33430   6.924   2.500   8.782
11063WAT     H133431   6.825   2.509   8.795
11063WAT     H233432   6.943   2.419   8.727
11064WAT      O33433   2.290   8.994   1.715
11064WAT     H133434   2.192   8.982   1.730
11064WAT     H233435   2.309   8.988   1.617
11065WAT      O33436   7.139   7.435   7.251
11065WAT     H133437   7.078   7.359   7.274
11065WAT     H233438   7.225   7.425   7.301
11066WAT      O33439   7.602   5.567   6.146
11066WAT     H133440   7.533   5.523   6.203
11066WAT     H233441   7.624   5.657   6.183
11067WAT      O33442   1.607   7.213   5.097
11067WAT     H133443   1.641   7.301   5.129
11067WAT     H233444   1.645   7.194   5.006
11068WAT      O33445   6.075   6.993   5.290
11068WAT     H133446   6.079   6.996   5.190
11068WAT     H233447   6.119   6.910   5.323
11069WAT      O33448   0.769   6.151   3.415
11069WAT     H133449   0.831   6.172   3.339
11069WAT     H233450   0.733   6.058   3.404
11070WAT      O33451   0.508   6.638   8.031
11070WAT     H133452   0.490   6.723   8.080
11070WAT     H233453   0.421   6.596   8.004
11071WAT      O33454   5.658   3.298   2.794
11071WAT     H133455   5.749   3.318   2.758
11071WAT     H233456   5.590   3.351   2.743
11072WAT      O33457   8.888   9.378   3.686
11072WAT     H133458   8.881   9.449   3.616
11072WAT     H233459   8.803   9.375   3.739
11073WAT      O33460   2.495   5.676   7.492
11073WAT     H133461   2.412   5.666   7.437
11073WAT     H233462   2.512   5.591   7.541
11074WAT      O33463   2.509   1.431   6.002
11074WAT     H133464   2.416   1.463   5.985
11074WAT     H233465   2.565   1.507   6.036
11075WAT      O33466   3.919   0.675   7.850
11075WAT     H133467   3.968   0.659   7.764
11075WAT     H233468   3.857   0.598   7.867
11076WAT      O33469   7.308   6.586   5.147
11076WAT     H133470   7.279   6.490   5.155
11076WAT     H233471   7.331   6.606   5.052
11077WAT      O33472   8.461   4.468   8.954
11077WAT     H133473   8.404   4.518   8.889
11077WAT     H233474   8.542   4.522   8.976
11078WAT      O33475   0.039   5.568   5.959
11078WAT     H133476   0.072   5.529   6.045
11078WAT     H233477   0.033   5.667   5.967
11079WAT      O33478   9.564   3.343   8.370
11079WAT     H133479   9.593   3.281   8.444
11079WAT     H233480   9.574   3.296   8.282
11080WAT      O33481   7.614   1.194   4.267
11080WAT     H133482   7.713   1.195   4.273
11080WAT     H233483   7.586   1.196   4.171
11081WAT      O33484   8.412   2.440   5.456
11081WAT     H133485   8.421   2.505   5.381
11081WAT     H233486   8.321   2.449   5.496
11082WAT      O33487   1.847   7.954   3.170
11082WAT     H133488   1.903   8.037   3.172
11082WAT     H233489   1.817   7.936   3.077
11083WAT      O33490   6.512   2.926   0.008
11083WAT     H133491   6.516   2.863  -0.069
11083WAT     H233492   6.599   2.974   0.017
11084WAT      O33493   5.848   9.674   9.228
11084WAT     H133494   5.852   9.606   9.301
11084WAT     H233495   5.824   9.763   9.266
11085WAT      O33496   4.805   1.263   2.194
11085WAT     H133497   4.865   1.184   2.209
11085WAT     H233498   4.861   1.342   2.169
11086WAT      O33499   7.172   3.842   0.281
11086WAT     H133500   7.212   3.890   0.359
11086WAT     H233501   7.245   3.816   0.217
11087WAT      O33502   6.398   0.953   3.481
11087WAT     H133503   6.308   0.968   3.439
11087WAT     H233504   6.465   1.011   3.436
11088WAT      O33505   1.312   1.180   3.087
11088WAT     H133506   1.353   1.212   3.173
11088WAT     H233507   1.267   1.257   3.042
11089WAT      O33508   1.028   6.081   4.991
11089WAT     H133509   0.951   6.126   5.038
11089WAT     H233510   1.042   5.991   5.030
11090WAT      O33511   2.962   9.650   9.619
11090WAT     H133512   3.034   9.720   9.621
11090WAT     H233513   2.902   9.666   9.541
11091WAT      O33514   4.798   4.657   8.062
11091WAT     H133515   4.777   4.710   7.980
11091WAT     H233516   4.720   4.658   8.124
11092WAT      O33517   2.044   7.683   3.181
11092WAT     H133518   2.102   7.694   3.262
11092WAT     H233519   2.005   7.771   3.155
11093WAT      O33520   6.457   0.923   7.125
11093WAT     H133521   6.490   0.950   7.034
11093WAT     H233522   6.409   1.000   7.167
11094WAT      O33523   0.410   9.344   5.374
11094WAT     H133524   0.460   9.415   5.425
11094WAT     H233525   0.475   9.276   5.339
11095WAT      O33526   2.605   1.676   9.248
11095WAT     H133527   2.646   1.618   9.179
11095WAT     H233528   2.676   1.712   9.309
11096WAT      O33529   9.680   0.455   9.772
11096WAT     H133530   9.696   0.361   9.742
11096WAT     H233531   9.584   0.467   9.796
11097WAT      O33532   6.972   1.565   4.199
11097WAT     H133533   7.033   1.486   4.197
11097WAT     H233534   6.959   1.595   4.293
11098WAT      O33535   0.302   2.081   3.039
11098WAT     H133536   0.210   2.121   3.040
11098WAT     H233537   0.303   1.999   3.095
11099WAT      O33538   1.514   1.158   2.841
11099WAT     H133539   1.432   1.163   2.898
11099WAT     H233540   1.542   1.250   2.814
11100WAT      O33541   7.382   5.835   1.095
11100WAT     H133542   7.393   5.931   1.118
11100WAT     H233543   7.468   5.798   1.060
11101WAT      O33544   9.837   9.789   4.420
11101WAT     H133545   9.799   9.800   4.328
11101WAT     H233546   9.857   9.879   4.458
11102WAT      O33547   9.559   4.280   4.019
11102WAT     H133548   9.634   4.346   4.029
11102WAT     H233549   9.592   4.188   4.041
11103WAT      O33550   3.055   0.130   1.442
11103WAT     H133551   2.984   0.073   1.485
11103WAT     H233552   3.070   0.098   1.349
11104WAT      O33553   4.591   5.420   0.262
11104WAT     H133554   4.564   5.504   0.216
11104WAT     H233555   4.654   5.441   0.337
11105WAT      O33556   5.699   0.901   3.214
11105WAT     H133557   5.675   0.807   3.187
11105WAT     H233558   5.769   0.936   3.152
11106WAT      O33559   8.086   0.333   3.046
11106WAT     H133560   8.167   0.383   3.014
11106WAT     H233561   8.038   0.293   2.968
11107WAT      O33562   4.372   6.228   5.261
11107WAT     H133563   4.311   6.149   5.256
11107WAT     H233564   4.320   6.311   5.242
11108WAT      O33565   3.581   8.887   5.496
11108WAT     H133566   3.616   8.841   5.577
11108WAT     H233567   3.579   8.986   5.512
11109WAT      O33568   9.248   4.367   2.751
11109WAT     H133569   9.198   4.438   2.702
11109WAT     H233570   9.193   4.284   2.756
11110WAT      O33571   3.709   8.180   7.551
11110WAT     H133572   3.755   8.225   7.475
11110WAT     H233573   3.694   8.084   7.528
11111WAT      O33574   5.997   5.305   5.339
11111WAT     H133575   6.065   5.270   5.275
11111WAT     H233576   5.922   5.348   5.288
11112WAT      O33577   6.137   1.626   2.756
11112WAT     H133578   6.206   1.581   2.813
11112WAT     H233579   6.053   1.639   2.808
11113WAT      O33580   3.226   5.393   2.043
11113WAT     H133581   3.136   5.350   2.046
11113WAT     H233582   3.274   5.364   1.960
11114WAT      O33583   4.428   0.609   0.824
11114WAT     H133584   4.517   0.607   0.777
11114WAT     H233585   4.428   0.683   0.891
11115WAT      O33586   4.655   0.429   1.006
11115WAT     H133587   4.647   0.494   0.931
11115WAT     H233588   4.564   0.402   1.038
11116WAT      O33589   2.083   9.249   5.302
11116WAT     H133590   2.104   9.345   5.319
11116WAT     H233591   2.092   9.229   5.205
11117WAT      O33592   3.100   0.089   5.736
11117WAT     H133593   3.142   0.092   5.646
11117WAT     H233594   3.004   0.115   5.730
11118WAT      O33595   1.065   4.271   0.631
11118WAT     H133596   1.056   4.370   0.629
11118WAT     H233597   0.996   4.232   0.693
11119WAT      O33598   5.756   8.265   2.713
11119WAT     H133599   5.718   8.174   2.730
11119WAT     H233600   5.692   8.335   2.745
11120WAT      O33601   5.166   2.281   1.577
11120WAT     H133602   5.164   2.367   1.526
11120WAT     H233603   5.193   2.207   1.515
11121WAT      O33604   5.531   0.057   8.814
11121WAT     H133605   5.534   0.156   8.825
11121WAT     H233606   5.569   0.013   8.896
11122WAT      O33607   8.745   0.554   5.931
11122WAT     H133608   8.766   0.587   5.838
11122WAT     H233609   8.830   0.531   5.978
11123WAT      O33610   8.372   7.938   6.372
11123WAT     H133611   8.346   7.850   6.411
11123WAT     H233612   8.433   7.986   6.434
11124WAT      O33613   8.853   2.249   0.092
11124WAT     H133614   8.856   2.342   0.128
11124WAT     H233615   8.898   2.187   0.156
11125WAT      O33616   1.410   2.100   5.635
11125WAT     H133617   1.465   2.087   5.552
11125WAT     H233618   1.428   2.025   5.698
11126WAT      O33619   4.682   5.327   5.902
11126WAT     H133620   4.588   5.310   5.873
11126WAT     H233621   4.686   5.329   6.002
11127WAT      O33622   6.266   6.437   4.456
11127WAT     H133623   6.198   6.482   4.515
11127WAT     H233624   6.346   6.496   4.448
11128WAT      O33625   1.474   5.658   8.271
11128WAT     H133626   1.556   5.601   8.259
11128WAT     H233627   1.428   5.631   8.356
11129WAT      O33628   8.568   1.167   2.511
11129WAT     H133629   8.527   1.079   2.489
11129WAT     H233630   8.643   1.185   2.448
11130WAT      O33631   3.686   6.989   8.461
11130WAT     H133632   3.650   6.988   8.555
11130WAT     H233633   3.785   6.978   8.464
11131WAT      O33634   8.571   5.104   1.878
11131WAT     H133635   8.490   5.053   1.905
11131WAT     H233636   8.556   5.145   1.788
11132WAT      O33637   6.630   9.737   0.644
11132WAT     H133638   6.720   9.693   0.643
11132WAT     H233639   6.639   9.831   0.610
11133WAT      O33640   5.454   2.248   4.487
11133WAT     H133641   5.435   2.263   4.390
11133WAT     H233642   5.469   2.336   4.532
11134WAT      O33643   6.413   3.809   6.891
11134WAT     H133644   6.419   3.869   6.812
11134WAT     H233645   6.461   3.723   6.872
11135WAT      O33646   3.539   9.033   7.762
11135WAT     H133647   3.511   9.051   7.856
11135WAT     H233648   3.550   8.934   7.750
11136WAT      O33649   5.813   7.310   3.837
11136WAT     H133650   5.731   7.268   3.876
11136WAT     H233651   5.858   7.366   3.906
11137WAT      O33652   7.503   6.322   1.587
11137WAT     H133653   7.503   6.422   1.588
11137WAT     H233654   7.496   6.290   1.492
11138WAT      O33655   9.522   1.862   5.285
11138WAT     H133656   9.512   1.763   5.301
11138WAT     H233657   9.517   1.880   5.187
11139WAT      O33658   1.108   6.353   2.604
11139WAT     H133659   1.080   6.257   2.599
11139WAT     H233660   1.197   6.363   2.560
11140WAT      O33661   9.516   7.937   0.118
11140WAT     H133662   9.541   7.911   0.211
11140WAT     H233663   9.578   7.892   0.053
11141WAT      O33664   6.565   4.960   3.043
11141WAT     H133665   6.469   4.941   3.059
11141WAT     H233666   6.575   5.046   2.992
11142WAT      O33667   8.536   1.899   8.270
11142WAT     H133668   8.456   1.851   8.307
11142WAT     H233669   8.528   1.907   8.171
11143WAT      O33670   8.804   6.107   2.310
11143WAT     H133671   8.727   6.058   2.349
11143WAT     H233672   8.772   6.193   2.269
11144WAT      O33673   6.618   3.189   3.663
11144WAT     H133674   6.700   3.243   3.682
11144WAT     H233675   6.549   3.247   3.620
11145WAT      O33676   0.107   8.653   0.180
11145WAT     H133677   0.193   8.648   0.230
11145WAT     H233678   0.126   8.669   0.083
11146WAT      O33679   9.669   6.772   3.376
11146WAT     H133680   9.769   6.768   3.380
11146WAT     H233681   9.636   6.839   3.442
11147WAT      O33682   5.573   9.003   7.033
11147WAT     H133683   5.614   9.080   7.084
11147WAT     H233684   5.596   8.917   7.079
11148WAT      O33685   7.616   1.472   3.941
11148WAT     H133686   7.661   1.464   3.852
11148WAT     H233687   7.588   1.382   3.973
11149WAT      O33688   0.197   6.107   3.365
11149WAT     H133689   0.290   6.141   3.351
11149WAT     H233690   0.149   6.104   3.278
11150WAT      O33691   4.981   9.060   4.143
11150WAT     H133692   4.930   9.138   4.106
11150WAT     H233693   5.071   9.055   4.099
11151WAT      O33694   9.507   8.348   3.157
11151WAT     H133695   9.574   8.281   3.125
11151WAT     H233696   9.431   8.301   3.201
11152WAT      O33697   7.197   9.491   1.987
11152WAT     H133698   7.165   9.403   1.952
11152WAT     H233699   7.130   9.562   1.965
11153WAT      O33700   1.439   7.765   8.296
11153WAT     H133701   1.398   7.676   8.315
11153WAT     H233702   1.388   7.811   8.224
11154WAT      O33703   0.658   2.432   9.099
11154WAT     H133704   0.579   2.485   9.132
11154WAT     H233705   0.706   2.485   9.029
11155WAT      O33706   3.162   0.735   8.064
11155WAT     H133707   3.198   0.820   8.025
11155WAT     H233708   3.220   0.658   8.036
11156WAT      O33709   5.765   8.867   1.074
11156WAT     H133710   5.774   8.944   1.011
11156WAT     H233711   5.715   8.896   1.155
11157WAT      O33712   4.281   2.193   6.446
11157WAT     H133713   4.305   2.099   6.472
11157WAT     H233714   4.328   2.257   6.507
11158WAT      O33715   7.284   6.775   3.463
11158WAT     H133716   7.350   6.849   3.456
11158WAT     H233717   7.222   6.793   3.539
11159WAT      O33718   9.159   2.640   7.514
11159WAT     H133719   9.227   2.673   7.580
11159WAT     H233720   9.198   2.564   7.461
11160WAT      O33721   8.842   6.217   3.604
11160WAT     H133722   8.746   6.193   3.615
11160WAT     H233723   8.897   6.173   3.675
11161WAT      O33724   0.431   4.464   3.407
11161WAT     H133725   0.354   4.407   3.379
11161WAT     H233726   0.426   4.483   3.505
11162WAT      O33727   6.115   0.367   1.021
11162WAT     H133728   6.034   0.425   1.031
11162WAT     H233729   6.118   0.331   0.928
11163WAT      O33730   5.206   8.378   3.970
11163WAT     H133731   5.279   8.386   4.038
11163WAT     H233732   5.123   8.423   4.004
11164WAT      O33733   7.025   7.342   7.622
11164WAT     H133734   7.020   7.420   7.561
11164WAT     H233735   7.120   7.329   7.652
11165WAT      O33736   8.655   0.731   9.491
11165WAT     H133737   8.609   0.819   9.503
11165WAT     H233738   8.588   0.657   9.494
11166WAT      O33739   6.433   9.559   0.586
11166WAT     H133740   6.504   9.617   0.627
11166WAT     H233741   6.355   9.553   0.648
11167WAT      O33742   3.904   2.523   7.960
11167WAT     H133743   3.811   2.500   7.930
11167WAT     H233744   3.926   2.469   8.041
11168WAT      O33745   3.356   2.326   4.682
11168WAT     H133746   3.257   2.325   4.702
11168WAT     H233747   3.385   2.234   4.657
11169WAT      O33748   9.109   8.295   3.600
11169WAT     H133749   9.101   8.393   3.582
11169WAT     H233750   9.019   8.257   3.617
11170WAT      O33751   8.581   1.453   9.492
11170WAT     H133752   8.627   1.483   9.575
11170WAT     H233753   8.528   1.529   9.453
11171WAT      O33754   6.403   3.033   2.136
11171WAT     H133755   6.356   3.121   2.136
11171WAT     H233756   6.348   2.965   2.087
11172WAT      O33757   1.640   6.673   4.450
11172WAT     H133758   1.674   6.581   4.430
11172WAT     H233759   1.540   6.670   4.460
11173WAT      O33760   6.111   4.062   8.479
11173WAT     H133761   6.028   4.007   8.471
11173WAT     H233762   6.111   4.110   8.567
11174WAT      O33763   8.671   8.529   8.911
11174WAT     H133764   8.762   8.491   8.929
11174WAT     H233765   8.602   8.476   8.960
11175WAT      O33766   5.154   7.257   8.544
11175WAT     H133767   5.083   7.272   8.614
11175WAT     H233768   5.198   7.169   8.560
11176WAT      O33769   3.932   7.161   0.900
11176WAT     H133770   3.976   7.073   0.917
11176WAT     H233771   3.907   7.167   0.803
11177WAT      O33772   8.283   5.771   5.846
11177WAT     H133773   8.368   5.755   5.896
11177WAT     H233774   8.205   5.751   5.906
11178WAT      O33775   7.262   3.018   8.343
11178WAT     H133776   7.352   3.031   8.383
11178WAT     H233777   7.254   3.073   8.260
11179WAT      O33778   8.167   2.865   2.093
11179WAT     H133779   8.110   2.802   2.041
11179WAT     H233780   8.182   2.948   2.040
11180WAT      O33781   1.009   7.612   5.931
11180WAT     H133782   0.971   7.565   5.851
11180WAT     H233783   1.090   7.563   5.963
11181WAT      O33784   9.092   0.304   8.706
11181WAT     H133785   9.030   0.382   8.716
11181WAT     H233786   9.185   0.337   8.693
11182WAT      O33787   6.086   1.147   9.347
11182WAT     H133788   6.145   1.166   9.425
11182WAT     H233789   6.119   1.066   9.299
11183WAT      O33790   9.651   6.447   4.913
11183WAT     H133791   9.686   6.530   4.957
11183WAT     H233792   9.567   6.418   4.958
11184WAT      O33793   8.732   0.156   2.540
11184WAT     H133794   8.830   0.139   2.532
11184WAT     H233795   8.693   0.166   2.449
11185WAT      O33796   4.850   6.404   1.653
11185WAT     H133797   4.853   6.364   1.745
11185WAT     H233798   4.756   6.400   1.618
11186WAT      O33799   3.209   3.812   2.755
11186WAT     H133800   3.255   3.745   2.696
11186WAT     H233801   3.203   3.776   2.848
11187WAT      O33802   7.019   2.274   6.627
11187WAT     H133803   7.074   2.286   6.710
11187WAT     H233804   7.042   2.187   6.584
11188WAT      O33805   5.015   0.599   0.743
11188WAT     H133806   4.982   0.506   0.758
11188WAT     H233807   5.085   0.621   0.811
11189WAT      O33808   2.585   5.137   7.262
11189WAT     H133809   2.564   5.234   7.257
11189WAT     H233810   2.682   5.124   7.282
11190WAT      O33811   3.432   4.582   1.893
11190WAT     H133812   3.347   4.537   1.866
11190WAT     H233813   3.443   4.574   1.992
11191WAT      O33814   2.862   5.470   9.033
11191WAT     H133815   2.837   5.373   9.034
11191WAT     H233816   2.827   5.514   9.116
11192WAT      O33817   0.076   5.618   1.402
11192WAT     H133818   0.010   5.669   1.347
11192WAT     H233819   0.095   5.668   1.486
11193WAT      O33820   5.503   8.448   9.000
11193WAT     H133821   5.521   8.396   8.916
11193WAT     H233822   5.471   8.540   8.977
11194WAT      O33823   8.553   3.371   5.701
11194WAT     H133824   8.501   3.388   5.617
11194WAT     H233825   8.619   3.297   5.686
11195WAT      O33826   8.112   9.690   4.094
11195WAT     H133827   8.070   9.692   4.003
11195WAT     H233828   8.125   9.595   4.123
11196WAT      O33829   1.327   4.156   4.142
11196WAT     H133830   1.298   4.223   4.074
11196WAT     H233831   1.420   4.179   4.173
11197WAT      O33832   9.242   5.836   0.250
11197WAT     H133833   9.164   5.775   0.265
11197WAT     H233834   9.277   5.867   0.338
11198WAT      O33835   5.534   7.110   7.250
11198WAT     H133836   5.464   7.132   7.319
11198WAT     H233837   5.595   7.040   7.286
11199WAT      O33838   3.608   4.439   4.497
11199WAT     H133839   3.552   4.388   4.432
11199WAT     H233840   3.669   4.376   4.545
11200WAT      O33841   3.088   0.582   2.914
11200WAT     H133842   3.014   0.649   2.916
11200WAT     H233843   3.082   0.528   2.829
11201WAT      O33844   9.278   5.586   9.050
11201WAT     H133845   9.219   5.642   8.991
11201WAT     H233846   9.224   5.549   9.125
11202WAT      O33847   7.597   7.976   6.843
11202WAT     H133848   7.564   8.036   6.916
11202WAT     H233849   7.697   7.973   6.845
11203WAT      O33850   8.413   7.797   0.789
11203WAT     H133851   8.420   7.770   0.885
11203WAT     H233852   8.473   7.740   0.734
11204WAT      O33853   2.641   9.615   4.879
11204WAT     H133854   2.573   9.687   4.867
11204WAT     H233855   2.660   9.604   4.977
11205WAT      O33856   7.092   5.572   6.830
11205WAT     H133857   7.169   5.552   6.770
11205WAT     H233858   7.026   5.631   6.782
11206WAT      O33859   7.015   7.112   7.497
11206WAT     H133860   7.054   7.043   7.558
11206WAT     H233861   7.021   7.202   7.540
11207WAT      O33862   7.684   9.022   0.282
11207WAT     H133863   7.686   8.977   0.193
11207WAT     H233864   7.707   8.956   0.353
11208WAT      O33865   4.249   7.632   0.293
11208WAT     H133866   4.197   7.655   0.210
11208WAT     H233867   4.291   7.714   0.330
11209WAT      O33868   8.893   9.409   7.883
11209WAT     H133869   8.901   9.317   7.920
11209WAT     H233870   8.925   9.410   7.788
11210WAT      O33871   1.014   8.903   6.254
11210WAT     H133872   1.038   8.965   6.328
11210WAT     H233873   1.091   8.843   6.234
11211WAT      O33874   1.733   0.039   9.646
11211WAT     H133875   1.674  -0.001   9.716
11211WAT     H233876   1.804   0.094   9.689
11212WAT      O33877   1.596   1.440   7.407
11212WAT     H133878   1.603   1.522   7.464
11212WAT     H233879   1.569   1.362   7.465
11213WAT      O33880   3.712   5.287   2.357
11213WAT     H133881   3.736   5.381   2.333
11213WAT     H233882   3.718   5.275   2.456
11214WAT      O33883   1.419   0.490   9.266
11214WAT     H133884   1.372   0.461   9.349
11214WAT     H233885   1.362   0.555   9.215
11215WAT      O33886   0.808   4.596   7.704
11215WAT     H133887   0.832   4.542   7.624
11215WAT     H233888   0.832   4.546   7.787
11216WAT      O33889   8.104   4.974   5.653
11216WAT     H133890   8.063   5.044   5.711
11216WAT     H233891   8.033   4.931   5.597
11217WAT      O33892   6.861   3.905   8.782
11217WAT     H133893   6.859   3.815   8.826
11217WAT     H233894   6.769   3.928   8.750
11218WAT      O33895   7.719   1.674   8.691
11218WAT     H133896   7.630   1.696   8.652
11218WAT     H233897   7.721   1.577   8.716
11219WAT      O33898   2.991   6.037   8.041
11219WAT     H133899   3.011   6.118   8.097
11219WAT     H233900   2.923   6.061   7.972
11220WAT      O33901   2.127   8.006   5.355
11220WAT     H133902   2.172   7.939   5.415
11220WAT     H233903   2.117   7.967   5.264
11221WAT      O33904   1.015   6.403   8.577
11221WAT     H133905   1.089   6.465   8.552
11221WAT     H233906   1.052   6.327   8.631
11222WAT      O33907   6.421   7.114   1.221
11222WAT     H133908   6.418   7.201   1.172
11222WAT     H233909   6.330   7.092   1.257
11223WAT      O33910   6.073   8.206   2.154
11223WAT     H133911   6.146   8.207   2.223
11223WAT     H233912   6.109   8.243   2.068
11224WAT      O33913   0.142   1.055   2.741
11224WAT     H133914   0.089   1.139   2.757
11224WAT     H233915   0.236   1.080   2.715
11225WAT      O33916   2.242   9.195   0.458
11225WAT     H133917   2.194   9.155   0.380
11225WAT     H233918   2.177   9.210   0.533
11226WAT      O33919   1.901   5.144   6.579
11226WAT     H133920   1.960   5.158   6.499
11226WAT     H233921   1.942   5.076   6.639
11227WAT      O33922   9.375   0.048   6.418
11227WAT     H133923   9.370  -0.050   6.398
11227WAT     H233924   9.287   0.079   6.453
11228WAT      O33925   7.969   7.513   1.907
11228WAT     H133926   8.035   7.469   1.968
11228WAT     H233927   7.969   7.466   1.818
11229WAT      O33928   2.073   3.654   5.526
11229WAT     H133929   2.132   3.713   5.581
11229WAT     H233930   1.997   3.621   5.583
11230WAT      O33931   3.258   7.111   9.265
11230WAT     H133932   3.323   7.035   9.266
11230WAT     H233933   3.223   7.124   9.172
11231WAT      O33934   8.248   8.061   8.485
11231WAT     H133935   8.298   7.978   8.510
11231WAT     H233936   8.185   8.041   8.411
11232WAT      O33937   4.070   9.618   3.593
11232WAT     H133938   4.071   9.623   3.493
11232WAT     H233939   4.086   9.524   3.622
11233WAT      O33940   0.559   0.446   7.915
11233WAT     H133941   0.512   0.378   7.971
11233WAT     H233942   0.496   0.521   7.894
11234WAT      O33943   1.950   1.544   9.641
11234WAT     H133944   1.881   1.556   9.570
11234WAT     H233945   1.907   1.547   9.731
11235WAT      O33946   5.223   1.699   5.816
11235WAT     H133947   5.256   1.611   5.852
11235WAT     H233948   5.240   1.702   5.717
11236WAT      O33949   6.536   8.252   6.565
11236WAT     H133950   6.479   8.329   6.591
11236WAT     H233951   6.620   8.285   6.521
11237WAT      O33952   5.182   0.273   2.354
11237WAT     H133953   5.202   0.176   2.355
11237WAT     H233954   5.104   0.292   2.414
11238WAT      O33955   6.963   5.930   1.294
11238WAT     H133956   6.917   6.001   1.240
11238WAT     H233957   7.055   5.960   1.318
11239WAT      O33958   4.930   5.374   1.491
11239WAT     H133959   5.013   5.341   1.537
11239WAT     H233960   4.852   5.319   1.519
11240WAT      O33961   4.886   9.003   7.312
11240WAT     H133962   4.983   9.012   7.336
11240WAT     H233963   4.872   9.037   7.219
11241WAT      O33964   0.917   6.360   2.309
11241WAT     H133965   0.995   6.379   2.368
11241WAT     H233966   0.836   6.343   2.366
11242WAT      O33967   5.241   8.671   1.627
11242WAT     H133968   5.339   8.680   1.607
11242WAT     H233969   5.229   8.654   1.725
11243WAT      O33970   7.988   6.901   1.610
11243WAT     H133971   8.023   6.974   1.551
11243WAT     H233972   8.048   6.821   1.603
11244WAT      O33973   4.779   1.730   7.856
11244WAT     H133974   4.864   1.703   7.812
11244WAT     H233975   4.734   1.801   7.800
11245WAT      O33976   6.267   6.262   5.011
11245WAT     H133977   6.322   6.324   4.954
11245WAT     H233978   6.179   6.247   4.967
11246WAT      O33979   2.149   1.668   6.045
11246WAT     H133980   2.218   1.649   6.114
11246WAT     H233981   2.074   1.721   6.086
11247WAT      O33982   2.861   5.216   4.558
11247WAT     H133983   2.931   5.214   4.629
11247WAT     H233984   2.856   5.308   4.519
11248WAT      O33985   8.470   3.611   2.517
11248WAT     H133986   8.489   3.704   2.486
11248WAT     H233987   8.450   3.553   2.438
11249WAT      O33988   6.505   7.778   2.817
11249WAT     H133989   6.410   7.770   2.846
11249WAT     H233990   6.545   7.686   2.808
11250WAT      O33991   8.066   1.053   8.085
11250WAT     H133992   8.027   1.021   8.171
11250WAT     H233993   8.130   0.984   8.050
11251WAT      O33994   4.408   7.383   1.365
11251WAT     H133995   4.504   7.357   1.374
11251WAT     H233996   4.374   7.416   1.453
11252WAT      O33997   2.334   3.792   6.509
11252WAT     H133998   2.395   3.814   6.585
11252WAT     H233999   2.364   3.840   6.427
11253WAT      O34000   9.623   0.928   6.954
11253WAT     H134001   9.539   0.961   6.996
11253WAT     H234002   9.601   0.858   6.886
11254WAT      O34003   1.179   8.293   6.327
11254WAT     H134004   1.241   8.325   6.256
11254WAT     H234005   1.092   8.343   6.321
11255WAT      O34006   5.497   9.432   0.876
11255WAT     H134007   5.544   9.469   0.956
11255WAT     H234008   5.429   9.497   0.844
11256WAT      O34009   4.545   3.560   8.070
11256WAT     H134010   4.639   3.569   8.103
11256WAT     H234011   4.482   3.563   8.147
11257WAT      O34012   9.287   0.303   7.373
11257WAT     H134013   9.287   0.379   7.439
11257WAT     H234014   9.347   0.230   7.407
11258WAT      O34015   5.362   0.483   9.722
11258WAT     H134016   5.454   0.448   9.707
11258WAT     H234017   5.366   0.580   9.744
11259WAT      O34018   1.955   7.519   0.510
11259WAT     H134019   1.903   7.434   0.501
11259WAT     H234020   1.969   7.560   0.420
11260WAT      O34021   3.044   4.109   8.305
11260WAT     H134022   3.045   4.201   8.267
11260WAT     H234023   3.117   4.099   8.372
11261WAT      O34024   0.210   8.859   2.590
11261WAT     H134025   0.252   8.833   2.504
11261WAT     H234026   0.119   8.896   2.573
11262WAT      O34027   3.665   6.549   0.396
11262WAT     H134028   3.762   6.554   0.421
11262WAT     H234029   3.641   6.631   0.344
11263WAT      O34030   3.038   3.048   3.377
11263WAT     H134031   3.038   2.961   3.328
11263WAT     H234032   2.987   3.037   3.463
11264WAT      O34033   1.534   1.177   5.251
11264WAT     H134034   1.495   1.208   5.165
11264WAT     H234035   1.461   1.167   5.319
11265WAT      O34036   3.327   1.139   7.300
11265WAT     H134037   3.395   1.075   7.337
11265WAT     H234038   3.284   1.189   7.375
11266WAT      O34039   3.122   2.137   8.308
11266WAT     H134040   3.149   2.160   8.401
11266WAT     H234041   3.187   2.073   8.268
11267WAT      O34042   7.129   6.773   5.232
11267WAT     H134043   7.115   6.839   5.159
11267WAT     H234044   7.175   6.692   5.196
11268WAT      O34045   9.636   4.778   1.704
11268WAT     H134046   9.561   4.802   1.765
11268WAT     H234047   9.601   4.722   1.629
11269WAT      O34048   3.815   0.937   5.415
11269WAT     H134049   3.885   0.888   5.466
11269WAT     H234050   3.735   0.879   5.402
11270WAT      O34051   7.695   1.330   6.456
11270WAT     H134052   7.712   1.231   6.454
11270WAT     H234053   7.782   1.379   6.458
11271WAT      O34054   9.551   9.342   4.301
11271WAT     H134055   9.492   9.413   4.341
11271WAT     H234056   9.503   9.255   4.302
11272WAT      O34057   4.993   3.953   1.473
11272WAT     H134058   4.941   3.917   1.395
11272WAT     H234059   5.091   3.950   1.451
11273WAT      O34060   2.855   3.746   7.516
11273WAT     H134061   2.880   3.842   7.526
11273WAT     H234062   2.850   3.703   7.606
11274WAT      O34063   5.987   3.631   6.182
11274WAT     H134064   6.007   3.570   6.259
11274WAT     H234065   5.951   3.578   6.106
11275WAT      O34066   0.765   2.269   4.755
11275WAT     H134067   0.762   2.229   4.846
11275WAT     H234068   0.860   2.289   4.730
11276WAT      O34069   1.635   8.248   3.292
11276WAT     H134070   1.570   8.172   3.303
11276WAT     H234071   1.673   8.246   3.200
11277WAT      O34072   1.624   2.295   9.136
11277WAT     H134073   1.601   2.286   9.233
11277WAT     H234074   1.545   2.270   9.080
11278WAT      O34075   2.225   3.232   0.960
11278WAT     H134076   2.213   3.246   1.058
11278WAT     H234077   2.159   3.165   0.927
11279WAT      O34078   8.922   1.866   2.819
11279WAT     H134079   8.911   1.826   2.728
11279WAT     H234080   8.898   1.799   2.889
11280WAT      O34081   9.188   7.304   4.259
11280WAT     H134082   9.188   7.267   4.167
11280WAT     H234083   9.096   7.294   4.299
11281WAT      O34084   0.931   6.007   2.890
11281WAT     H134085   0.982   5.980   2.972
11281WAT     H234086   0.896   5.925   2.844
11282WAT      O34087   7.596   9.500   7.546
11282WAT     H134088   7.613   9.437   7.621
11282WAT     H234089   7.629   9.459   7.460
11283WAT      O34090   5.930   3.907   6.495
11283WAT     H134091   5.916   4.005   6.479
11283WAT     H234092   5.971   3.894   6.585
11284WAT      O34093   6.826   3.530   4.517
11284WAT     H134094   6.790   3.622   4.530
11284WAT     H234095   6.764   3.477   4.458
11285WAT      O34096   7.618   6.379   3.987
11285WAT     H134097   7.670   6.408   4.068
11285WAT     H234098   7.604   6.280   3.989
11286WAT      O34099   9.064   1.214   2.321
11286WAT     H134100   9.122   1.159   2.382
11286WAT     H234101   9.121   1.275   2.267
11287WAT      O34102   9.516   6.674   4.017
11287WAT     H134103   9.513   6.760   3.966
11287WAT     H234104   9.550   6.601   3.957
11288WAT      O34105   8.639   2.459   7.210
11288WAT     H134106   8.622   2.547   7.165
11288WAT     H234107   8.663   2.475   7.306
11289WAT      O34108   8.077   8.835   3.518
11289WAT     H134109   8.011   8.889   3.570
11289WAT     H234110   8.065   8.853   3.420
11290WAT      O34111   1.028   5.124   4.592
11290WAT     H134112   1.066   5.111   4.501
11290WAT     H234113   1.057   5.050   4.652
11291WAT      O34114   6.263   2.926   0.468
11291WAT     H134115   6.309   2.838   0.457
11291WAT     H234116   6.306   2.994   0.409
11292WAT      O34117   8.500   1.801   6.497
11292WAT     H134118   8.474   1.714   6.539
11292WAT     H234119   8.424   1.865   6.503
11293WAT      O34120   3.069   3.365   1.611
11293WAT     H134121   3.058   3.464   1.603
11293WAT     H234122   3.023   3.333   1.694
11294WAT      O34123   3.030   8.329   9.242
11294WAT     H134124   3.020   8.232   9.221
11294WAT     H234125   3.091   8.341   9.320
11295WAT      O34126   4.549   5.809   3.482
11295WAT     H134127   4.572   5.847   3.392
11295WAT     H234128   4.547   5.882   3.550
11296WAT      O34129   1.552   4.282   2.519
11296WAT     H134130   1.615   4.320   2.451
11296WAT     H234131   1.591   4.198   2.558
11297WAT      O34132   0.585   8.500   8.940
11297WAT     H134133   0.513   8.438   8.910
11297WAT     H234134   0.610   8.479   9.034
11298WAT      O34135   8.951   1.336   0.810
11298WAT     H134136   8.870   1.310   0.862
11298WAT     H234137   8.931   1.417   0.756
11299WAT      O34138   5.660   5.628   4.120
11299WAT     H134139   5.600   5.585   4.188
11299WAT     H234140   5.605   5.684   4.058
11300WAT      O34141   8.317   0.182   0.833
11300WAT     H134142   8.275   0.133   0.757
11300WAT     H234143   8.313   0.281   0.815
11301WAT      O34144   3.660   7.251   1.385
11301WAT     H134145   3.692   7.160   1.362
11301WAT     H234146   3.571   7.268   1.342
11302WAT      O34147   7.805   3.305   5.886
11302WAT     H134148   7.851   3.391   5.862
11302WAT     H234149   7.821   3.238   5.813
11303WAT      O34150   8.716   2.015   0.033
11303WAT     H134151   8.773   1.933   0.031
11303WAT     H234152   8.774   2.097   0.027
11304WAT      O34153   8.304   5.524   8.970
11304WAT     H134154   8.216   5.555   9.008
11304WAT     H234155   8.335   5.444   9.021
11305WAT      O34156   7.648   6.964   7.924
11305WAT     H134157   7.618   6.918   8.008
11305WAT     H234158   7.667   7.060   7.944
11306WAT      O34159   4.302   5.438   0.937
11306WAT     H134160   4.324   5.409   0.844
11306WAT     H234161   4.380   5.486   0.976
11307WAT      O34162   1.663   8.126   0.035
11307WAT     H134163   1.639   8.038  -0.006
11307WAT     H234164   1.624   8.200  -0.020
11308WAT      O34165   1.197   4.563   2.279
11308WAT     H134166   1.125   4.514   2.328
11308WAT     H234167   1.164   4.653   2.251
11309WAT      O34168   7.438   1.607   4.356
11309WAT     H134169   7.352   1.631   4.402
11309WAT     H234170   7.418   1.571   4.265
11310WAT      O34171   9.189   9.596   8.219
11310WAT     H134172   9.192   9.518   8.282
11310WAT     H234173   9.250   9.668   8.251
11311WAT      O34174   0.671   6.589   8.266
11311WAT     H134175   0.637   6.575   8.173
11311WAT     H234176   0.706   6.503   8.303
11312WAT      O34177   1.729   4.795   1.604
11312WAT     H134178   1.648   4.768   1.656
11312WAT     H234179   1.716   4.772   1.507
11313WAT      O34180   4.459   1.245   2.667
11313WAT     H134181   4.487   1.186   2.742
11313WAT     H234182   4.532   1.249   2.599
11314WAT      O34183   8.185   7.946   0.196
11314WAT     H134184   8.192   7.913   0.290
11314WAT     H234185   8.091   7.935   0.164
11315WAT      O34186   2.325   0.294   2.290
11315WAT     H134187   2.421   0.313   2.309
11315WAT     H234188   2.304   0.200   2.318
11316WAT      O34189   5.639   4.541   9.447
11316WAT     H134190   5.648   4.472   9.375
11316WAT     H234191   5.556   4.524   9.500
11317WAT      O34192   0.646   3.287   0.965
11317WAT     H134193   0.556   3.249   0.946
11317WAT     H234194   0.705   3.276   0.885
11318WAT      O34195   7.215   6.886   7.865
11318WAT     H134196   7.116   6.890   7.864
11318WAT     H234197   7.246   6.805   7.916
11319WAT      O34198   0.619   1.610   4.567
11319WAT     H134199   0.626   1.571   4.475
11319WAT     H234200   0.687   1.566   4.627
11320WAT      O34201   8.369   3.491   7.320
11320WAT     H134202   8.406   3.400   7.298
11320WAT     H234203   8.395   3.555   7.249
11321WAT      O34204   6.132   8.146   4.588
11321WAT     H134205   6.181   8.083   4.527
11321WAT     H234206   6.180   8.233   4.593
11322WAT      O34207   0.140   4.388   0.584
11322WAT     H134208   0.156   4.398   0.486
11322WAT     H234209   0.228   4.378   0.631
11323WAT      O34210   3.538   2.892   3.855
11323WAT     H134211   3.605   2.820   3.834
11323WAT     H234212   3.512   2.885   3.951
11324WAT      O34213   5.509   1.980   6.279
11324WAT     H134214   5.548   1.916   6.214
11324WAT     H234215   5.465   1.930   6.354
11325WAT      O34216   9.263   2.745   6.766
11325WAT     H134217   9.278   2.765   6.863
11325WAT     H234218   9.210   2.660   6.758
11326WAT      O34219   5.973   4.172   0.608
11326WAT     H134220   5.979   4.265   0.574
11326WAT     H234221   6.029   4.162   0.691
11327WAT      O34222   8.666   5.412   8.723
11327WAT     H134223   8.629   5.482   8.783
11327WAT     H234224   8.724   5.454   8.653
11328WAT      O34225   7.026   0.062   5.839
11328WAT     H134226   7.019   0.138   5.775
11328WAT     H234227   7.106   0.074   5.898
11329WAT      O34228   3.349   0.682   4.876
11329WAT     H134229   3.351   0.710   4.780
11329WAT     H234230   3.402   0.747   4.931
11330WAT      O34231   6.801   4.868   2.953
11330WAT     H134232   6.861   4.939   2.916
11330WAT     H234233   6.714   4.908   2.979
11331WAT      O34234   8.358   6.811   9.776
11331WAT     H134235   8.329   6.737   9.715
11331WAT     H234236   8.410   6.878   9.724
11332WAT      O34237   6.529   8.594   7.475
11332WAT     H134238   6.497   8.591   7.570
11332WAT     H234239   6.627   8.614   7.473
11333WAT      O34240   9.527   1.964   4.660
11333WAT     H134241   9.493   1.880   4.619
11333WAT     H234242   9.487   1.975   4.751
11334WAT      O34243   7.779   4.468   8.386
11334WAT     H134244   7.706   4.536   8.382
11334WAT     H234245   7.828   4.479   8.473
11335WAT      O34246   4.096   4.263   4.125
11335WAT     H134247   4.090   4.177   4.174
11335WAT     H234248   4.039   4.332   4.169
11336WAT      O34249   8.398   1.800   3.550
11336WAT     H134250   8.358   1.788   3.641
11336WAT     H234251   8.486   1.752   3.546
11337WAT      O34252   6.612   9.553   3.658
11337WAT     H134253   6.527   9.569   3.709
11337WAT     H234254   6.671   9.634   3.665
11338WAT      O34255   8.292   2.099   8.318
11338WAT     H134256   8.309   2.063   8.226
11338WAT     H234257   8.272   2.197   8.312
11339WAT      O34258   0.675   0.404   0.991
11339WAT     H134259   0.653   0.405   1.089
11339WAT     H234260   0.668   0.496   0.954
11340WAT      O34261   8.004   2.468   8.628
11340WAT     H134262   7.983   2.549   8.683
11340WAT     H234263   7.925   2.407   8.628
11341WAT      O34264   4.224   0.981   0.046
11341WAT     H134265   4.254   0.889   0.021
11341WAT     H234266   4.124   0.983   0.055
11342WAT      O34267   5.422   7.948   0.424
11342WAT     H134268   5.463   8.015   0.361
11342WAT     H234269   5.326   7.971   0.438
11343WAT      O34270   2.611   5.448   7.587
11343WAT     H134271   2.701   5.407   7.572
11343WAT     H234272   2.604   5.482   7.681
11344WAT      O34273   6.853   1.181   3.384
11344WAT     H134274   6.803   1.242   3.446
11344WAT     H234275   6.909   1.236   3.322
11345WAT      O34276   3.472   7.744   6.230
11345WAT     H134277   3.501   7.793   6.148
11345WAT     H234278   3.542   7.679   6.258
11346WAT      O34279   1.589   6.301   4.497
11346WAT     H134280   1.617   6.208   4.520
11346WAT     H234281   1.506   6.324   4.548
11347WAT      O34282   3.522   7.074   6.798
11347WAT     H134283   3.592   7.035   6.858
11347WAT     H234284   3.504   7.168   6.825
11348WAT      O34285   7.947   3.681   2.367
11348WAT     H134286   7.964   3.637   2.455
11348WAT     H234287   7.895   3.766   2.382
11349WAT      O34288   7.783   4.318   8.733
11349WAT     H134289   7.763   4.237   8.679
11349WAT     H234290   7.836   4.383   8.678
11350WAT      O34291   5.535   2.011   5.349
11350WAT     H134292   5.524   2.068   5.268
11350WAT     H234293   5.572   1.922   5.323
11351WAT      O34294   5.233   8.325   2.842
11351WAT     H134295   5.228   8.416   2.882
11351WAT     H234296   5.262   8.333   2.746
11352WAT      O34297   8.467   7.716   5.830
11352WAT     H134298   8.413   7.655   5.772
11352WAT     H234299   8.423   7.726   5.918
11353WAT      O34300   2.432   5.102   2.971
11353WAT     H134301   2.525   5.122   3.003
11353WAT     H234302   2.399   5.019   3.016
11354WAT      O34303   0.981   6.374   6.726
11354WAT     H134304   0.941   6.304   6.787
11354WAT     H234305   1.068   6.340   6.690
11355WAT      O34306   3.634   8.569   6.024
11355WAT     H134307   3.586   8.581   6.111
11355WAT     H234308   3.577   8.605   5.950
11356WAT      O34309   2.791   6.592   5.002
11356WAT     H134310   2.821   6.515   4.945
11356WAT     H234311   2.871   6.645   5.029
11357WAT      O34312   3.165   1.462   9.384
11357WAT     H134313   3.155   1.416   9.471
11357WAT     H234314   3.087   1.439   9.325
11358WAT      O34315   0.247   1.559   6.219
11358WAT     H134316   0.201   1.492   6.160
11358WAT     H234317   0.298   1.510   6.290
11359WAT      O34318   5.601   8.450   0.112
11359WAT     H134319   5.513   8.478   0.074
11359WAT     H234320   5.652   8.398   0.043
11360WAT      O34321   3.743   3.529   6.961
11360WAT     H134322   3.673   3.556   6.895
11360WAT     H234323   3.769   3.434   6.945
11361WAT      O34324   0.841   5.018   7.959
11361WAT     H134325   0.835   4.983   8.052
11361WAT     H234326   0.819   4.944   7.894
11362WAT      O34327   6.497   3.687   8.300
11362WAT     H134328   6.443   3.716   8.379
11362WAT     H234329   6.480   3.750   8.223
11363WAT      O34330   9.559   4.597   9.558
11363WAT     H134331   9.464   4.586   9.589
11363WAT     H234332   9.560   4.658   9.479
11364WAT      O34333   0.126   3.209   3.751
11364WAT     H134334   0.069   3.128   3.766
11364WAT     H234335   0.222   3.181   3.746
11365WAT      O34336   0.558   0.874   7.276
11365WAT     H134337   0.635   0.878   7.212
11365WAT     H234338   0.501   0.795   7.253
11366WAT      O34339   1.459   1.909   0.869
11366WAT     H134340   1.477   1.813   0.891
11366WAT     H234341   1.363   1.930   0.890
11367WAT      O34342   7.184   7.270   6.488
11367WAT     H134343   7.239   7.212   6.548
11367WAT     H234344   7.144   7.345   6.541
11368WAT      O34345   0.724   0.309   3.244
11368WAT     H134346   0.690   0.379   3.182
11368WAT     H234347   0.658   0.296   3.319
11369WAT      O34348   3.564   2.458   1.877
11369WAT     H134349   3.557   2.510   1.792
11369WAT     H234350   3.474   2.450   1.919
11370WAT      O34351   8.747   6.054   6.814
11370WAT     H134352   8.739   5.957   6.838
11370WAT     H234353   8.765   6.108   6.896
11371WAT      O34354   3.637   5.419   9.362
11371WAT     H134355   3.629   5.415   9.461
11371WAT     H234356   3.734   5.416   9.336
11372WAT      O34357   1.850   5.404   7.461
11372WAT     H134358   1.933   5.452   7.434
11372WAT     H234359   1.772   5.466   7.454
11373WAT      O34360   0.791   3.998   6.064
11373WAT     H134361   0.845   4.066   6.014
11373WAT     H234362   0.716   4.043   6.112
11374WAT      O34363   1.363   0.197   1.217
11374WAT     H134364   1.305   0.118   1.198
11374WAT     H234365   1.304   0.277   1.233
11375WAT      O34366   2.385   6.085   7.924
11375WAT     H134367   2.465   6.107   7.869
11375WAT     H234368   2.367   6.161   7.987
11376WAT      O34369   9.742   9.652   9.374
11376WAT     H134370   9.659   9.647   9.430
11376WAT     H234371   9.820   9.619   9.427
11377WAT      O34372   9.052   0.113   8.949
11377WAT     H134373   9.089   0.039   8.892
11377WAT     H234374   9.064   0.200   8.902
11378WAT      O34375   5.075   7.677   0.604
11378WAT     H134376   5.001   7.618   0.638
11378WAT     H234377   5.163   7.635   0.626
11379WAT      O34378   8.823   9.813   5.836
11379WAT     H134379   8.799   9.763   5.920
11379WAT     H234380   8.921   9.802   5.818
11380WAT      O34381   4.451   1.267   5.207
11380WAT     H134382   4.430   1.208   5.285
11380WAT     H234383   4.479   1.211   5.129
11381WAT      O34384   3.652   9.787   9.255
11381WAT     H134385   3.600   9.870   9.270
11381WAT     H234386   3.628   9.747   9.166
11382WAT      O34387   4.268   9.755   1.313
11382WAT     H134388   4.300   9.709   1.395
11382WAT     H234389   4.288   9.699   1.233
11383WAT      O34390   3.496   8.770   7.873
11383WAT     H134391   3.528   8.698   7.811
11383WAT     H234392   3.396   8.770   7.876
11384WAT      O34393   8.046   0.354   2.753
11384WAT     H134394   8.117   0.415   2.789
11384WAT     H234395   8.086   0.294   2.684
11385WAT      O34396   6.283   2.173   9.450
11385WAT     H134397   6.374   2.165   9.410
11385WAT     H234398   6.242   2.260   9.425
11386WAT      O34399   7.616   0.989   5.421
11386WAT     H134400   7.691   1.024   5.365
11386WAT     H234401   7.593   1.055   5.492
11387WAT      O34402   2.050   9.367   1.616
11387WAT     H134403   2.067   9.464   1.600
11387WAT     H234404   1.962   9.341   1.575
11388WAT      O34405   0.559   5.068   5.421
11388WAT     H134406   0.527   5.162   5.428
11388WAT     H234407   0.627   5.050   5.492
11389WAT      O34408   4.337   3.803   7.159
11389WAT     H134409   4.420   3.755   7.188
11389WAT     H234410   4.362   3.885   7.108
11390WAT      O34411   3.066   6.807   4.695
11390WAT     H134412   2.967   6.813   4.682
11390WAT     H234413   3.108   6.768   4.613
11391WAT      O34414   7.645   4.562   9.881
11391WAT     H134415   7.680   4.532   9.970
11391WAT     H234416   7.658   4.489   9.814
11392WAT      O34417   2.391   2.391   8.871
11392WAT     H134418   2.301   2.425   8.844
11392WAT     H234419   2.392   2.291   8.864
11393WAT      O34420   9.337   7.230   1.058
11393WAT     H134421   9.432   7.205   1.079
11393WAT     H234422   9.300   7.287   1.132
11394WAT      O34423   8.317   7.522   3.081
11394WAT     H134424   8.403   7.518   3.131
11394WAT     H234425   8.334   7.506   2.984
11395WAT      O34426   3.547   0.959   2.533
11395WAT     H134427   3.612   0.884   2.547
11395WAT     H234428   3.507   0.952   2.442
11396WAT      O34429   2.496   9.277   4.109
11396WAT     H134430   2.507   9.299   4.206
11396WAT     H234431   2.406   9.306   4.078
11397WAT      O34432   1.226   2.337   7.409
11397WAT     H134433   1.307   2.333   7.350
11397WAT     H234434   1.144   2.345   7.352
11398WAT      O34435   2.359   8.656   6.188
11398WAT     H134436   2.455   8.656   6.217
11398WAT     H234437   2.354   8.652   6.089
11399WAT      O34438   0.164   7.481   8.669
11399WAT     H134439   0.143   7.454   8.575
11399WAT     H234440   0.233   7.555   8.667
11400WAT      O34441   7.474   5.521   2.551
11400WAT     H134442   7.413   5.566   2.616
11400WAT     H234443   7.545   5.585   2.522
11401WAT      O34444   5.966   4.509   8.230
11401WAT     H134445   6.030   4.440   8.265
11401WAT     H234446   5.907   4.541   8.304
11402WAT      O34447   3.639   0.387   6.151
11402WAT     H134448   3.709   0.397   6.079
11402WAT     H234449   3.571   0.320   6.122
11403WAT      O34450   2.331   0.927   3.836
11403WAT     H134451   2.356   1.018   3.802
11403WAT     H234452   2.296   0.872   3.760
11404WAT      O34453   5.438   0.121   7.746
11404WAT     H134454   5.518   0.131   7.687
11404WAT     H234455   5.365   0.075   7.695
11405WAT      O34456   5.998   9.737   8.981
11405WAT     H134457   5.960   9.724   9.073
11405WAT     H234458   6.036   9.829   8.975
11406WAT      O34459   5.452   5.392   6.684
11406WAT     H134460   5.361   5.386   6.724
11406WAT     H234461   5.451   5.456   6.607
11407WAT      O34462   9.596   4.301   3.732
11407WAT     H134463   9.553   4.288   3.821
11407WAT     H234464   9.667   4.233   3.719
11408WAT      O34465   0.341   9.083   0.264
11408WAT     H134466   0.298   9.027   0.335
11408WAT     H234467   0.431   9.113   0.295
11409WAT      O34468   4.627   4.362   7.113
11409WAT     H134469   4.628   4.424   7.034
11409WAT     H234470   4.705   4.301   7.108
11410WAT      O34471   8.200   7.476   6.314
11410WAT     H134472   8.288   7.432   6.295
11410WAT     H234473   8.148   7.420   6.379
11411WAT      O34474   7.244   5.405   1.016
11411WAT     H134475   7.222   5.496   1.049
11411WAT     H234476   7.230   5.401   0.917
11412WAT      O34477   7.029   1.154   3.935
11412WAT     H134478   7.049   1.187   3.842
11412WAT     H234479   7.046   1.056   3.940
11413WAT      O34480   0.291   9.487   8.193
11413WAT     H134481   0.314   9.560   8.258
11413WAT     H234482   0.191   9.478   8.188
11414WAT      O34483   3.445   6.413   3.558
11414WAT     H134484   3.511   6.366   3.617
11414WAT     H234485   3.482   6.419   3.465
11415WAT      O34486   0.988   9.768   3.464
11415WAT     H134487   1.012   9.700   3.395
11415WAT     H234488   1.070   9.818   3.492
11416WAT      O34489   3.263   6.589   0.314
11416WAT     H134490   3.308   6.532   0.245
11416WAT     H234491   3.329   6.654   0.352
11417WAT      O34492   4.164   7.352   6.285
11417WAT     H134493   4.189   7.276   6.225
11417WAT     H234494   4.188   7.438   6.241
11418WAT      O34495   2.170   2.329   2.493
11418WAT     H134496   2.134   2.421   2.480
11418WAT     H234497   2.121   2.283   2.567
11419WAT      O34498   9.365   2.140   7.006
11419WAT     H134499   9.411   2.219   7.046
11419WAT     H234500   9.276   2.168   6.970
11420WAT      O34501   6.502   8.251   4.780
11420WAT     H134502   6.511   8.332   4.839
11420WAT     H234503   6.509   8.168   4.836
11421WAT      O34504   7.179   0.826   5.877
11421WAT     H134505   7.091   0.864   5.903
11421WAT     H234506   7.179   0.727   5.894
11422WAT      O34507   5.934   5.654   9.869
11422WAT     H134508   5.893   5.665   9.960
11422WAT     H234509   5.900   5.725   9.808
11423WAT      O34510   1.911   4.770   1.286
11423WAT     H134511   1.977   4.796   1.216
11423WAT     H234512   1.956   4.769   1.376
11424WAT      O34513   0.533   6.581   1.746
11424WAT     H134514   0.524   6.529   1.661
11424WAT     H234515   0.558   6.519   1.820
11425WAT      O34516   8.609   5.578   6.766
11425WAT     H134517   8.529   5.520   6.751
11425WAT     H234518   8.684   5.548   6.707
11426WAT      O34519   4.315   1.274   6.048
11426WAT     H134520   4.334   1.322   6.134
11426WAT     H234521   4.308   1.341   5.974
11427WAT      O34522   8.969   4.717   2.269
11427WAT     H134523   8.918   4.632   2.253
11427WAT     H234524   9.028   4.735   2.191
11428WAT      O34525   3.201   3.923   8.145
11428WAT     H134526   3.297   3.905   8.124
11428WAT     H234527   3.193   4.009   8.196
11429WAT      O34528   8.804   3.030   9.754
11429WAT     H134529   8.781   3.047   9.849
11429WAT     H234530   8.888   3.078   9.731
11430WAT      O34531   7.658   5.388   1.112
11430WAT     H134532   7.739   5.432   1.150
11430WAT     H234533   7.604   5.348   1.186
11431WAT      O34534   5.926   8.346   9.569
11431WAT     H134535   5.864   8.298   9.507
11431WAT     H234536   5.940   8.290   9.651
11432WAT      O34537   5.845   7.470   1.648
11432WAT     H134538   5.822   7.512   1.560
11432WAT     H234539   5.790   7.512   1.721
11433WAT      O34540   9.358   8.394   2.894
11433WAT     H134541   9.433   8.433   2.841
11433WAT     H234542   9.393   8.363   2.982
11434WAT      O34543   8.903   5.477   3.015
11434WAT     H134544   8.805   5.476   2.999
11434WAT     H234545   8.922   5.509   3.108
11435WAT      O34546   9.744   3.916   7.781
11435WAT     H134547   9.653   3.898   7.744
11435WAT     H234548   9.789   3.828   7.801
11436WAT      O34549   6.472   2.260   0.816
11436WAT     H134550   6.546   2.304   0.765
11436WAT     H234551   6.384   2.296   0.785
11437WAT      O34552   0.990   2.329   3.101
11437WAT     H134553   0.987   2.423   3.134
11437WAT     H234554   1.081   2.292   3.117
11438WAT      O34555   7.998   2.498   6.929
11438WAT     H134556   8.084   2.496   6.981
11438WAT     H234557   8.018   2.483   6.832
11439WAT      O34558   0.330   7.268   4.843
11439WAT     H134559   0.289   7.295   4.756
11439WAT     H234560   0.349   7.170   4.843
11440WAT      O34561   5.086   3.679   1.153
11440WAT     H134562   5.116   3.631   1.236
11440WAT     H234563   5.029   3.757   1.179
11441WAT      O34564   4.385   4.057   3.004
11441WAT     H134565   4.375   4.082   3.100
11441WAT     H234566   4.426   3.966   2.997
11442WAT      O34567   3.467   6.040   2.506
11442WAT     H134568   3.436   5.952   2.544
11442WAT     H234569   3.527   6.023   2.428
11443WAT      O34570   2.963   4.469   6.988
11443WAT     H134571   2.966   4.379   7.031
11443WAT     H234572   3.055   4.494   6.957
11444WAT      O34573   4.500   7.762   5.651
11444WAT     H134574   4.554   7.819   5.713
11444WAT     H234575   4.543   7.763   5.560
11445WAT      O34576   4.312   0.714   6.818
11445WAT     H134577   4.311   0.616   6.838
11445WAT     H234578   4.256   0.732   6.737
11446WAT      O34579   1.314   2.248   1.847
11446WAT     H134580   1.376   2.178   1.811
11446WAT     H234581   1.297   2.231   1.944
11447WAT      O34582   9.321   5.667   6.326
11447WAT     H134583   9.255   5.720   6.273
11447WAT     H234584   9.389   5.728   6.366
11448WAT      O34585   6.729   6.441   9.819
11448WAT     H134586   6.799   6.389   9.771
11448WAT     H234587   6.640   6.425   9.776
11449WAT      O34588   0.507   2.347   5.330
11449WAT     H134589   0.597   2.390   5.339
11449WAT     H234590   0.437   2.412   5.360
11450WAT      O34591   8.456   8.239   3.797
11450WAT     H134592   8.410   8.325   3.776
11450WAT     H234593   8.462   8.183   3.714
11451WAT      O34594   7.839   4.831   9.534
11451WAT     H134595   7.934   4.856   9.516
11451WAT     H234596   7.827   4.816   9.632
11452WAT      O34597   2.970   0.180   2.219
11452WAT     H134598   2.973   0.118   2.141
11452WAT     H234599   2.912   0.259   2.198
11453WAT      O34600   7.260   9.721   3.897
11453WAT     H134601   7.200   9.649   3.861
11453WAT     H234602   7.208   9.783   3.955
11454WAT      O34603   8.078   4.751   0.876
11454WAT     H134604   8.061   4.786   0.784
11454WAT     H234605   8.056   4.821   0.943
11455WAT      O34606   1.926   3.348   0.296
11455WAT     H134607   1.971   3.435   0.275
11455WAT     H234608   1.871   3.319   0.217
11456WAT      O34609   2.013   2.955   8.488
11456WAT     H134610   2.030   2.942   8.585
11456WAT     H234611   1.922   2.920   8.465
11457WAT      O34612   6.958   5.125   5.959
11457WAT     H134613   7.021   5.047   5.968
11457WAT     H234614   6.951   5.152   5.864
11458WAT      O34615   5.718   4.506   4.131
11458WAT     H134616   5.789   4.437   4.144
11458WAT     H234617   5.629   4.466   4.152
11459WAT      O34618   0.282   9.407   3.078
11459WAT     H134619   0.311   9.429   3.171
11459WAT     H234620   0.221   9.478   3.044
11460WAT      O34621   8.999   1.730   8.437
11460WAT     H134622   9.021   1.655   8.374
11460WAT     H234623   8.900   1.741   8.443
11461WAT      O34624   7.664   7.147   5.066
11461WAT     H134625   7.740   7.085   5.088
11461WAT     H234626   7.638   7.197   5.148
11462WAT      O34627   7.063   7.076   9.676
11462WAT     H134628   6.969   7.061   9.648
11462WAT     H234629   7.123   7.072   9.596
11463WAT      O34630   6.599   9.374   8.506
11463WAT     H134631   6.606   9.469   8.476
11463WAT     H234632   6.691   9.333   8.508
11464WAT      O34633   9.693   2.511   7.776
11464WAT     H134634   9.706   2.558   7.864
11464WAT     H234635   9.621   2.558   7.725
11465WAT      O34636   9.583   8.134   5.515
11465WAT     H134637   9.484   8.143   5.510
11465WAT     H234638   9.610   8.043   5.481
11466WAT      O34639   2.410   6.961   8.100
11466WAT     H134640   2.439   6.980   8.006
11466WAT     H234641   2.312   6.982   8.109
11467WAT      O34642   7.260   1.635   9.885
11467WAT     H134643   7.250   1.657   9.982
11467WAT     H234644   7.183   1.675   9.834
11468WAT      O34645   9.369   0.119   8.858
11468WAT     H134646   9.423   0.153   8.781
11468WAT     H234647   9.299   0.056   8.825
11469WAT      O34648   7.019   3.269   8.959
11469WAT     H134649   7.017   3.174   8.991
11469WAT     H234650   7.032   3.270   8.860
11470WAT      O34651   1.693   2.776   5.856
11470WAT     H134652   1.734   2.815   5.774
11470WAT     H234653   1.728   2.683   5.870
11471WAT      O34654   6.011   1.944   3.611
11471WAT     H134655   5.940   1.888   3.569
11471WAT     H234656   6.082   1.965   3.543
11472WAT      O34657   1.751   0.300   1.703
11472WAT     H134658   1.774   0.321   1.797
11472WAT     H234659   1.653   0.314   1.687
11473WAT      O34660   3.149   2.394   8.203
11473WAT     H134661   3.064   2.437   8.171
11473WAT     H234662   3.130   2.299   8.228
11474WAT      O34663   1.946   7.397   7.942
11474WAT     H134664   2.029   7.342   7.941
11474WAT     H234665   1.867   7.339   7.924
11475WAT      O34666   9.718   2.408   9.013
11475WAT     H134667   9.749   2.313   9.005
11475WAT     H234668   9.787   2.468   8.973
11476WAT      O34669   8.866   2.238   2.385
11476WAT     H134670   8.855   2.233   2.285
11476WAT     H234671   8.959   2.268   2.406
11477WAT      O34672   8.892   1.972   9.638
11477WAT     H134673   8.991   1.954   9.642
11477WAT     H234674   8.875   2.069   9.654
11478WAT      O34675   7.365   6.291   8.564
11478WAT     H134676   7.296   6.340   8.618
11478WAT     H234677   7.392   6.208   8.612
11479WAT      O34678   3.964   8.798   9.267
11479WAT     H134679   3.934   8.889   9.239
11479WAT     H234680   3.951   8.734   9.191
11480WAT      O34681   2.083   0.803   4.725
11480WAT     H134682   2.099   0.840   4.817
11480WAT     H234683   2.128   0.715   4.717
11481WAT      O34684   3.388   7.556   0.349
11481WAT     H134685   3.334   7.522   0.425
11481WAT     H234686   3.329   7.600   0.282
11482WAT      O34687   3.208   6.951   8.188
11482WAT     H134688   3.131   6.951   8.251
11482WAT     H234689   3.293   6.936   8.239
11483WAT      O34690   6.165   9.348   5.691
11483WAT     H134691   6.121   9.437   5.683
11483WAT     H234692   6.225   9.334   5.613
11484WAT      O34693   5.178   9.303   4.434
11484WAT     H134694   5.161   9.389   4.481
11484WAT     H234695   5.227   9.320   4.349
11485WAT      O34696   0.931   7.583   9.525
11485WAT     H134697   0.948   7.662   9.585
11485WAT     H234698   0.947   7.499   9.576
11486WAT      O34699   9.891   6.940   4.710
11486WAT     H134700   9.815   6.968   4.651
11486WAT     H234701   9.872   6.967   4.804
11487WAT      O34702   2.433   5.995   1.419
11487WAT     H134703   2.474   5.905   1.433
11487WAT     H234704   2.435   6.017   1.321
11488WAT      O34705   8.591   4.150   5.285
11488WAT     H134706   8.690   4.161   5.296
11488WAT     H234707   8.561   4.200   5.203
11489WAT      O34708   6.716   7.932   9.028
11489WAT     H134709   6.637   7.990   9.008
11489WAT     H234710   6.800   7.979   9.003
11490WAT      O34711   1.625   8.930   3.015
11490WAT     H134712   1.670   8.900   3.099
11490WAT     H234713   1.597   8.850   2.962
11491WAT      O34714   9.246   1.398   1.887
11491WAT     H134715   9.276   1.402   1.982
11491WAT     H234716   9.149   1.374   1.883
11492WAT      O34717   0.062   4.568   5.886
11492WAT     H134718  -0.025   4.560   5.934
11492WAT     H234719   0.063   4.654   5.834
11493WAT      O34720   2.336   7.800   9.829
11493WAT     H134721   2.348   7.810   9.730
11493WAT     H234722   2.358   7.886   9.875
11494WAT      O34723   0.672   2.489   3.193
11494WAT     H134724   0.705   2.506   3.286
11494WAT     H234725   0.573   2.494   3.192
11495WAT      O34726   6.611   2.043   6.020
11495WAT     H134727   6.534   1.999   5.972
11495WAT     H234728   6.629   1.994   6.105
11496WAT      O34729   4.668   0.878   6.530
11496WAT     H134730   4.597   0.879   6.460
11496WAT     H234731   4.726   0.959   6.520
11497WAT      O34732   8.188   9.160   2.600
11497WAT     H134733   8.173   9.204   2.689
11497WAT     H234734   8.117   9.190   2.536
11498WAT      O34735   7.510   8.032   9.208
11498WAT     H134736   7.526   7.954   9.269
11498WAT     H234737   7.412   8.050   9.203
11499WAT      O34738   8.546   7.453   4.416
11499WAT     H134739   8.523   7.482   4.508
11499WAT     H234740   8.621   7.387   4.419
11500WAT      O34741   6.377   3.747   1.586
11500WAT     H134742   6.285   3.749   1.548
11500WAT     H234743   6.444   3.747   1.512
11501WAT      O34744   5.390   7.426   6.315
11501WAT     H134745   5.457   7.352   6.317
11501WAT     H234746   5.344   7.429   6.226
11502WAT      O34747   3.105   3.694   9.077
11502WAT     H134748   3.007   3.709   9.059
11502WAT     H234749   3.152   3.675   8.991
11503WAT      O34750   1.281   7.593   5.384
11503WAT     H134751   1.304   7.495   5.385
11503WAT     H234752   1.201   7.609   5.442
11504WAT      O34753   5.536   1.875   1.134
11504WAT     H134754   5.537   1.834   1.042
11504WAT     H234755   5.575   1.811   1.200
11505WAT      O34756   1.557   2.216   4.956
11505WAT     H134757   1.636   2.159   4.935
11505WAT     H234758   1.558   2.240   5.054
11506WAT      O34759   5.709   8.878   2.045
11506WAT     H134760   5.642   8.867   1.972
11506WAT     H234761   5.711   8.796   2.102
11507WAT      O34762   6.077   3.909   9.495
11507WAT     H134763   6.055   3.919   9.593
11507WAT     H234764   6.176   3.902   9.484
11508WAT      O34765   7.210   5.284   9.286
11508WAT     H134766   7.147   5.318   9.355
11508WAT     H234767   7.259   5.204   9.322
11509WAT      O34768   2.334   4.179   4.399
11509WAT     H134769   2.254   4.234   4.423
11509WAT     H234770   2.315   4.127   4.315
11510WAT      O34771   0.106   4.527   1.324
11510WAT     H134772   0.180   4.487   1.270
11510WAT     H234773   0.141   4.552   1.414
11511WAT      O34774   6.021   3.359   0.488
11511WAT     H134775   6.063   3.271   0.508
11511WAT     H234776   6.049   3.426   0.556
11512WAT      O34777   6.213   0.427   2.440
11512WAT     H134778   6.274   0.491   2.392
11512WAT     H234779   6.203   0.344   2.385
11513WAT      O34780   2.794   3.506   5.906
11513WAT     H134781   2.752   3.445   5.974
11513WAT     H234782   2.756   3.486   5.816
11514WAT      O34783   2.626   0.226   4.908
11514WAT     H134784   2.680   0.197   4.829
11514WAT     H234785   2.680   0.212   4.991
11515WAT      O34786   3.294   3.280   8.173
11515WAT     H134787   3.382   3.267   8.127
11515WAT     H234788   3.251   3.191   8.189
11516WAT      O34789   2.931   6.642   7.183
11516WAT     H134790   3.030   6.629   7.181
11516WAT     H234791   2.900   6.652   7.278
11517WAT      O34792   8.616   3.696   1.009
11517WAT     H134793   8.547   3.689   1.081
11517WAT     H234794   8.589   3.638   0.932
11518WAT      O34795   4.707   2.393   1.537
11518WAT     H134796   4.704   2.469   1.472
11518WAT     H234797   4.711   2.307   1.487
11519WAT      O34798   8.979   3.373   4.465
11519WAT     H134799   9.038   3.370   4.384
11519WAT     H234800   8.884   3.382   4.436
11520WAT      O34801   5.187   6.555   1.804
11520WAT     H134802   5.167   6.458   1.819
11520WAT     H234803   5.285   6.566   1.785
11521WAT      O34804   2.912   5.734   3.390
11521WAT     H134805   3.009   5.730   3.414
11521WAT     H234806   2.898   5.803   3.319
11522WAT      O34807   1.772   2.179   7.830
11522WAT     H134808   1.778   2.181   7.930
11522WAT     H234809   1.690   2.128   7.802
11523WAT      O34810   2.719   2.126   9.102
11523WAT     H134811   2.743   2.223   9.104
11523WAT     H234812   2.630   2.112   9.146
11524WAT      O34813   8.202   4.124   3.859
11524WAT     H134814   8.203   4.101   3.956
11524WAT     H234815   8.294   4.112   3.821
11525WAT      O34816   0.941   0.816   2.764
11525WAT     H134817   0.930   0.760   2.682
11525WAT     H234818   1.036   0.849   2.769
11526WAT      O34819   0.085   6.863   1.845
11526WAT     H134820   0.050   6.775   1.878
11526WAT     H234821   0.088   6.862   1.745
11527WAT      O34822   0.334   5.779   4.277
11527WAT     H134823   0.370   5.762   4.369
11527WAT     H234824   0.236   5.796   4.282
11528WAT      O34825   4.481   2.144   3.232
11528WAT     H134826   4.506   2.235   3.267
11528WAT     H234827   4.561   2.085   3.234
11529WAT      O34828   2.715   5.539   1.928
11529WAT     H134829   2.790   5.589   1.972
11529WAT     H234830   2.687   5.463   1.986
11530WAT      O34831   4.356   4.814   0.658
11530WAT     H134832   4.265   4.785   0.627
11530WAT     H234833   4.405   4.735   0.695
11531WAT      O34834   0.236   1.176   5.493
11531WAT     H134835   0.163   1.111   5.517
11531WAT     H234836   0.201   1.269   5.502
11532WAT      O34837   0.400   6.271   1.651
11532WAT     H134838   0.329   6.228   1.707
11532WAT     H234839   0.357   6.331   1.584
11533WAT      O34840   7.701   2.059   3.101
11533WAT     H134841   7.698   2.147   3.054
11533WAT     H234842   7.786   2.052   3.154
11534WAT      O34843   1.535   4.850   7.898
11534WAT     H134844   1.633   4.830   7.912
11534WAT     H234845   1.507   4.819   7.807
11535WAT      O34846   8.472   9.317   7.986
11535WAT     H134847   8.535   9.267   8.044
11535WAT     H234848   8.494   9.299   7.890
11536WAT      O34849   7.004   9.378   3.374
11536WAT     H134850   7.062   9.301   3.351
11536WAT     H234851   6.910   9.346   3.391
11537WAT      O34852   3.051   8.659   2.813
11537WAT     H134853   3.012   8.673   2.721
11537WAT     H234854   3.005   8.719   2.878
11538WAT      O34855   1.858   7.194   9.122
11538WAT     H134856   1.832   7.283   9.084
11538WAT     H234857   1.812   7.180   9.209
11539WAT      O34858   9.080   3.608   4.112
11539WAT     H134859   9.156   3.643   4.167
11539WAT     H234860   9.088   3.643   4.018
11540WAT      O34861   3.352   7.801   2.201
11540WAT     H134862   3.347   7.702   2.215
11540WAT     H234863   3.439   7.835   2.234
11541WAT      O34864   3.170   3.623   4.026
11541WAT     H134865   3.115   3.543   4.002
11541WAT     H234866   3.134   3.665   4.110
11542WAT      O34867   0.041   2.438   6.296
11542WAT     H134868   0.128   2.452   6.343
11542WAT     H234869   0.033   2.343   6.266
11543WAT      O34870   0.599   6.744   5.228
11543WAT     H134871   0.566   6.649   5.221
11543WAT     H234872   0.521   6.806   5.222
11544WAT      O34873   9.054   1.749   3.363
11544WAT     H134874   9.147   1.728   3.331
11544WAT     H234875   9.011   1.814   3.300
11545WAT      O34876   4.408   2.872   7.394
11545WAT     H134877   4.309   2.884   7.402
11545WAT     H234878   4.443   2.929   7.320
11546WAT      O34879   5.088   5.231   6.852
11546WAT     H134880   4.998   5.235   6.896
11546WAT     H234881   5.138   5.316   6.869
11547WAT      O34882   6.193   5.819   0.818
11547WAT     H134883   6.174   5.722   0.827
11547WAT     H234884   6.158   5.868   0.898
11548WAT      O34885   7.129   8.871   4.974
11548WAT     H134886   7.109   8.784   5.020
11548WAT     H234887   7.220   8.903   5.002
11549WAT      O34888   2.396   9.757   6.694
11549WAT     H134889   2.467   9.688   6.685
11549WAT     H234890   2.436   9.848   6.686
11550WAT      O34891   3.470   8.198   2.415
11550WAT     H134892   3.427   8.229   2.330
11550WAT     H234893   3.404   8.202   2.489
11551WAT      O34894   3.472   8.464   4.456
11551WAT     H134895   3.537   8.509   4.518
11551WAT     H234896   3.414   8.533   4.413
11552WAT      O34897   6.064   0.366   9.144
11552WAT     H134898   6.123   0.433   9.187
11552WAT     H234899   6.046   0.392   9.050
11553WAT      O34900   2.948   5.725   5.795
11553WAT     H134901   3.021   5.717   5.726
11553WAT     H234902   2.963   5.657   5.867
11554WAT      O34903   3.725   9.658   8.436
11554WAT     H134904   3.699   9.579   8.492
11554WAT     H234905   3.646   9.691   8.385
11555WAT      O34906   9.318   5.969   1.477
11555WAT     H134907   9.412   5.999   1.498
11555WAT     H234908   9.253   6.034   1.516
11556WAT      O34909   0.223   8.566   2.105
11556WAT     H134910   0.125   8.579   2.122
11556WAT     H234911   0.238   8.474   2.067
11557WAT      O34912   0.187   1.141   0.410
11557WAT     H134913   0.237   1.181   0.334
11557WAT     H234914   0.228   1.053   0.434
11558WAT      O34915   2.741   3.786   0.640
11558WAT     H134916   2.790   3.706   0.675
11558WAT     H234917   2.802   3.865   0.641
11559WAT      O34918   0.114   7.954   1.729
11559WAT     H134919   0.119   8.039   1.677
11559WAT     H234920   0.063   7.886   1.677
11560WAT      O34921   6.104   4.922   6.180
11560WAT     H134922   6.169   4.847   6.192
11560WAT     H234923   6.012   4.885   6.167
11561WAT      O34924   3.544   1.715   9.389
11561WAT     H134925   3.464   1.775   9.399
11561WAT     H234926   3.513   1.619   9.387
11562WAT      O34927   0.374   2.297   3.976
11562WAT     H134928   0.276   2.314   3.985
11562WAT     H234929   0.389   2.227   3.906
11563WAT      O34930   2.913   1.334   1.802
11563WAT     H134931   2.936   1.288   1.888
11563WAT     H234932   2.894   1.431   1.820
11564WAT      O34933   8.156   2.793   0.538
11564WAT     H134934   8.102   2.874   0.516
11564WAT     H234935   8.161   2.782   0.637
11565WAT      O34936   2.969   5.464   4.491
11565WAT     H134937   2.923   5.517   4.420
11565WAT     H234938   3.043   5.411   4.451
11566WAT      O34939   3.640   0.505   9.875
11566WAT     H134940   3.675   0.414   9.855
11566WAT     H234941   3.715   0.571   9.872
11567WAT      O34942   9.160   3.895   4.552
11567WAT     H134943   9.258   3.914   4.540
11567WAT     H234944   9.107   3.972   4.518
11568WAT      O34945   4.993   0.426   8.480
11568WAT     H134946   5.069   0.487   8.460
11568WAT     H234947   4.906   0.473   8.461
11569WAT      O34948   5.062   1.970   2.019
11569WAT     H134949   5.028   2.059   1.990
11569WAT     H234950   4.989   1.918   2.063
11570WAT      O34951   1.629   4.135   1.444
11570WAT     H134952   1.708   4.076   1.460
11570WAT     H234953   1.584   4.155   1.532
11571WAT      O34954   6.587   8.758   8.059
11571WAT     H134955   6.535   8.678   8.088
11571WAT     H234956   6.532   8.812   7.994
11572WAT      O34957   5.842   5.287   2.613
11572WAT     H134958   5.804   5.205   2.655
11572WAT     H234959   5.791   5.367   2.644
11573WAT      O34960   5.278   1.405   9.110
11573WAT     H134961   5.327   1.345   9.173
11573WAT     H234962   5.202   1.355   9.070
11574WAT      O34963   7.368   0.273   2.962
11574WAT     H134964   7.420   0.318   2.890
11574WAT     H234965   7.419   0.277   3.048
11575WAT      O34966   3.831   5.279   6.416
11575WAT     H134967   3.793   5.335   6.490
11575WAT     H234968   3.906   5.328   6.372
11576WAT      O34969   5.586   0.018   6.615
11576WAT     H134970   5.676  -0.022   6.630
11576WAT     H234971   5.538  -0.034   6.544
11577WAT      O34972   1.887   2.927   2.746
11577WAT     H134973   1.808   2.874   2.716
11577WAT     H234974   1.863   2.981   2.826
11578WAT      O34975   3.279   9.701   8.867
11578WAT     H134976   3.202   9.646   8.900
11578WAT     H234977   3.271   9.711   8.767
11579WAT      O34978   4.019   4.789   7.314
11579WAT     H134979   4.113   4.755   7.318
11579WAT     H234980   4.006   4.861   7.381
11580WAT      O34981   3.474   4.684   2.789
11580WAT     H134982   3.436   4.745   2.720
11580WAT     H234983   3.421   4.599   2.792
11581WAT      O34984   6.429   4.538   0.897
11581WAT     H134985   6.434   4.610   0.966
11581WAT     H234986   6.519   4.525   0.855
11582WAT      O34987   3.283   0.540   8.546
11582WAT     H134988   3.328   0.473   8.606
11582WAT     H234989   3.239   0.610   8.602
11583WAT      O34990   6.465   7.922   7.828
11583WAT     H134991   6.503   7.831   7.809
11583WAT     H234992   6.387   7.938   7.768
11584WAT      O34993   7.041   8.112   0.866
11584WAT     H134994   7.102   8.171   0.813
11584WAT     H234995   6.950   8.113   0.824
11585WAT      O34996   3.156   3.419   8.808
11585WAT     H134997   3.173   3.354   8.882
11585WAT     H234998   3.170   3.512   8.842
11586WAT      O34999   2.938   1.866   3.503
11586WAT     H135000   2.914   1.860   3.599
11586WAT     H235001   2.904   1.785   3.455
11587WAT      O35002   9.699   8.299   1.671
11587WAT     H135003   9.676   8.202   1.667
11587WAT     H235004   9.781   8.311   1.728
11588WAT      O35005   5.975   6.337   2.682
11588WAT     H135006   6.005   6.281   2.759
11588WAT     H235007   6.016   6.427   2.688
11589WAT      O35008   0.954   5.007   1.708
11589WAT     H135009   1.005   4.924   1.730
11589WAT     H235010   0.857   4.986   1.701
11590WAT      O35011   4.126   4.645   8.638
11590WAT     H135012   4.137   4.546   8.637
11590WAT     H235013   4.179   4.684   8.714
11591WAT      O35014   0.886   2.415   2.051
11591WAT     H135015   0.912   2.344   2.116
11591WAT     H235016   0.868   2.374   1.962
11592WAT      O35017   8.421   8.457   8.523
11592WAT     H135018   8.333   8.449   8.476
11592WAT     H235019   8.457   8.550   8.511
11593WAT      O35020   2.283   7.192   8.588
11593WAT     H135021   2.199   7.192   8.642
11593WAT     H235022   2.338   7.112   8.614
11594WAT      O35023   2.423   0.783   1.563
11594WAT     H135024   2.500   0.727   1.535
11594WAT     H235025   2.451   0.842   1.639
11595WAT      O35026   0.884   2.012   6.382
11595WAT     H135027   0.799   1.979   6.423
11595WAT     H235028   0.958   2.006   6.449
11596WAT      O35029   7.914   2.503   0.284
11596WAT     H135030   7.990   2.470   0.229
11596WAT     H235031   7.921   2.467   0.377
11597WAT      O35032   3.559   2.428   3.699
11597WAT     H135033   3.562   2.389   3.791
11597WAT     H235034   3.579   2.526   3.703
11598WAT      O35035   0.454   9.673   7.657
11598WAT     H135036   0.418   9.598   7.713
11598WAT     H235037   0.390   9.750   7.659
11599WAT      O35038   1.925   7.006   5.558
11599WAT     H135039   1.984   7.009   5.640
11599WAT     H235040   1.936   6.917   5.513
11600WAT      O35041   9.100   0.278   1.675
11600WAT     H135042   9.017   0.226   1.653
11600WAT     H235043   9.143   0.239   1.756
11601WAT      O35044   1.848   3.953   4.246
11601WAT     H135045   1.908   3.983   4.320
11601WAT     H235046   1.902   3.912   4.173
11602WAT      O35047   8.481   0.671   1.889
11602WAT     H135048   8.391   0.629   1.877
11602WAT     H235049   8.552   0.603   1.873
11603WAT      O35050   9.487   5.937   3.848
11603WAT     H135051   9.511   5.937   3.945
11603WAT     H235052   9.388   5.944   3.838
11604WAT      O35053   1.335   6.556   6.362
11604WAT     H135054   1.383   6.642   6.378
11604WAT     H235055   1.310   6.549   6.266
11605WAT      O35056   3.733   3.060   0.915
11605WAT     H135057   3.782   3.072   1.001
11605WAT     H235058   3.655   3.122   0.912
11606WAT      O35059   4.206   8.437   8.280
11606WAT     H135060   4.193   8.347   8.237
11606WAT     H235061   4.145   8.503   8.237
11607WAT      O35062   1.096   1.812   2.998
11607WAT     H135063   1.111   1.852   2.907
11607WAT     H235064   1.184   1.785   3.037
11608WAT      O35065   8.711   5.244   2.487
11608WAT     H135066   8.807   5.260   2.509
11608WAT     H235067   8.668   5.329   2.458
11609WAT      O35068   4.646   9.784   8.904
11609WAT     H135069   4.587   9.773   8.825
11609WAT     H235070   4.735   9.742   8.886
11610WAT      O35071   2.586   3.703   8.599
11610WAT     H135072   2.603   3.627   8.537
11610WAT     H235073   2.526   3.770   8.555
11611WAT      O35074   9.098   3.520   0.098
11611WAT     H135075   9.196   3.506   0.087
11611WAT     H235076   9.051   3.432   0.094
11612WAT      O35077   3.289   7.320   7.463
11612WAT     H135078   3.232   7.322   7.545
11612WAT     H235079   3.299   7.413   7.427
11613WAT      O35080   8.108   0.572   6.355
11613WAT     H135081   8.062   0.643   6.302
11613WAT     H235082   8.207   0.579   6.341
11614WAT      O35083   0.330   4.550   0.906
11614WAT     H135084   0.337   4.499   0.821
11614WAT     H235085   0.251   4.611   0.902
11615WAT      O35086   7.385   8.687   8.598
11615WAT     H135087   7.323   8.749   8.646
11615WAT     H235088   7.334   8.609   8.562
11616WAT      O35089   5.064   1.059   2.561
11616WAT     H135090   5.026   0.976   2.603
11616WAT     H235091   5.123   1.106   2.627
11617WAT      O35092   0.378   2.576   6.789
11617WAT     H135093   0.304   2.564   6.722
11617WAT     H235094   0.363   2.661   6.839
11618WAT      O35095   1.137   1.563   8.320
11618WAT     H135096   1.129   1.468   8.349
11618WAT     H235097   1.233   1.591   8.324
11619WAT      O35098   8.036   4.393   5.117
11619WAT     H135099   7.989   4.336   5.185
11619WAT     H235100   8.061   4.337   5.039
11620WAT      O35101   4.296   1.054   0.679
11620WAT     H135102   4.366   1.003   0.630
11620WAT     H235103   4.221   0.993   0.704
11621WAT      O35104   6.263   4.192   5.271
11621WAT     H135105   6.305   4.120   5.215
11621WAT     H235106   6.236   4.268   5.212
11622WAT      O35107   2.517   7.473   8.253
11622WAT     H135108   2.462   7.408   8.306
11622WAT     H235109   2.600   7.427   8.220
11623WAT      O35110   8.985   1.880   4.310
11623WAT     H135111   9.076   1.875   4.267
11623WAT     H235112   8.948   1.787   4.319
11624WAT      O35113   9.000   0.667   4.527
11624WAT     H135114   8.998   0.587   4.467
11624WAT     H235115   9.056   0.647   4.607
11625WAT      O35116   9.313   4.275   1.263
11625WAT     H135117   9.344   4.341   1.332
11625WAT     H235118   9.362   4.189   1.274
11626WAT      O35119   9.150   4.566   8.061
11626WAT     H135120   9.120   4.589   8.153
11626WAT     H235121   9.189   4.647   8.017
11627WAT      O35122   8.923   4.511   7.883
11627WAT     H135123   8.892   4.575   7.813
11627WAT     H235124   8.999   4.551   7.933
11628WAT      O35125   8.854   1.805   0.910
11628WAT     H135126   8.940   1.802   0.858
11628WAT     H235127   8.838   1.716   0.953
11629WAT      O35128   9.091   3.056   6.879
11629WAT     H135129   9.140   2.980   6.922
11629WAT     H235130   9.030   3.021   6.808
11630WAT      O35131   2.235   1.357   3.367
11630WAT     H135132   2.219   1.282   3.304
11630WAT     H235133   2.154   1.373   3.423
11631WAT      O35134   9.501   0.581   7.266
11631WAT     H135135   9.480   0.673   7.301
11631WAT     H235136   9.553   0.530   7.335
11632WAT      O35137   7.247   2.421   8.531
11632WAT     H135138   7.178   2.366   8.578
11632WAT     H235139   7.325   2.436   8.591
11633WAT      O35140   4.054   8.175   7.397
11633WAT     H135141   4.048   8.087   7.445
11633WAT     H235142   4.116   8.166   7.320
11634WAT      O35143   8.367   7.466   8.629
11634WAT     H135144   8.457   7.508   8.616
11634WAT     H235145   8.354   7.444   8.726
11635WAT      O35146   8.231   7.454   0.688
11635WAT     H135147   8.322   7.434   0.650
11635WAT     H235148   8.168   7.381   0.661
11636WAT      O35149   1.278   5.562   9.563
11636WAT     H135150   1.188   5.574   9.521
11636WAT     H235151   1.318   5.475   9.533
11637WAT      O35152   7.709   6.756   3.357
11637WAT     H135153   7.733   6.684   3.292
11637WAT     H235154   7.778   6.828   3.356
11638WAT      O35155   1.350   4.799   8.089
11638WAT     H135156   1.401   4.807   8.003
11638WAT     H235157   1.256   4.829   8.074
11639WAT      O35158   3.958   3.912   5.155
11639WAT     H135159   3.917   4.003   5.149
11639WAT     H235160   3.910   3.859   5.225
11640WAT      O35161   7.255   1.533   8.081
11640WAT     H135162   7.236   1.436   8.065
11640WAT     H235163   7.343   1.557   8.040
11641WAT      O35164   1.886   5.981   0.602
11641WAT     H135165   1.816   5.996   0.532
11641WAT     H235166   1.977   5.987   0.560
11642WAT      O35167   4.732   3.077   0.321
11642WAT     H135168   4.812   3.109   0.371
11642WAT     H235169   4.738   3.109   0.226
11643WAT      O35170   4.683   3.278   9.255
11643WAT     H135171   4.739   3.208   9.210
11643WAT     H235172   4.691   3.267   9.354
11644WAT      O35173   5.636   5.477   7.890
11644WAT     H135174   5.582   5.548   7.936
11644WAT     H235175   5.662   5.509   7.799
11645WAT      O35176   3.683   4.487   0.721
11645WAT     H135177   3.664   4.583   0.742
11645WAT     H235178   3.625   4.458   0.644
11646WAT      O35179   1.606   0.333   6.133
11646WAT     H135180   1.566   0.383   6.057
11646WAT     H235181   1.681   0.276   6.100
11647WAT      O35182   3.062   0.109   2.469
11647WAT     H135183   3.023   0.148   2.553
11647WAT     H235184   3.010   0.143   2.390
11648WAT      O35185   7.523   1.234   3.250
11648WAT     H135186   7.564   1.162   3.194
11648WAT     H235187   7.561   1.323   3.223
11649WAT      O35188   7.815   4.305   8.014
11649WAT     H135189   7.860   4.373   8.073
11649WAT     H235190   7.839   4.213   8.045
11650WAT      O35191   3.830   8.267   7.333
11650WAT     H135192   3.926   8.238   7.335
11650WAT     H235193   3.778   8.206   7.273
11651WAT      O35194   7.039   8.879   0.240
11651WAT     H135195   7.046   8.961   0.297
11651WAT     H235196   7.068   8.799   0.291
11652WAT      O35197   1.028   5.038   9.349
11652WAT     H135198   1.089   4.963   9.373
11652WAT     H235199   1.075   5.125   9.359
11653WAT      O35200   3.021   2.010   5.210
11653WAT     H135201   3.068   1.992   5.124
11653WAT     H235202   3.076   1.975   5.286
11654WAT      O35203   2.479   3.704   4.177
11654WAT     H135204   2.380   3.720   4.179
11654WAT     H235205   2.502   3.650   4.095
11655WAT      O35206   7.735   8.118   2.904
11655WAT     H135207   7.683   8.040   2.940
11655WAT     H235208   7.684   8.202   2.921
11656WAT      O35209   2.287   3.058   1.257
11656WAT     H135210   2.362   3.081   1.319
11656WAT     H235211   2.308   2.972   1.210
11657WAT      O35212   9.214   2.645   1.908
11657WAT     H135213   9.228   2.547   1.897
11657WAT     H235214   9.119   2.668   1.890
11658WAT      O35215   1.585   3.354   6.570
11658WAT     H135216   1.610   3.315   6.658
11658WAT     H235217   1.487   3.376   6.570
11659WAT      O35218   0.964   9.424   1.916
11659WAT     H135219   0.894   9.398   1.848
11659WAT     H235220   1.015   9.503   1.882
11660WAT      O35221   2.263   2.408   1.338
11660WAT     H135222   2.351   2.449   1.362
11660WAT     H235223   2.274   2.352   1.256
11661WAT      O35224   1.551   6.432   8.952
11661WAT     H135225   1.453   6.445   8.971
11661WAT     H235226   1.562   6.369   8.876
11662WAT      O35227   7.340   5.940   5.353
11662WAT     H135228   7.306   5.873   5.419
11662WAT     H235229   7.266   6.004   5.330
11663WAT      O35230   6.777   7.306   6.883
11663WAT     H135231   6.827   7.269   6.805
11663WAT     H235232   6.739   7.395   6.859
11664WAT      O35233   3.036   1.513   9.796
11664WAT     H135234   3.014   1.544   9.889
11664WAT     H235235   3.005   1.581   9.730
11665WAT      O35236   5.292   0.646   5.372
11665WAT     H135237   5.201   0.635   5.413
11665WAT     H235238   5.287   0.715   5.300
11666WAT      O35239   0.658   0.462   9.160
11666WAT     H135240   0.635   0.554   9.191
11666WAT     H235241   0.651   0.399   9.237
11667WAT      O35242   8.291   2.441   8.219
11667WAT     H135243   8.302   2.536   8.191
11667WAT     H235244   8.317   2.432   8.316
11668WAT      O35245   4.596   2.408   3.592
11668WAT     H135246   4.551   2.412   3.681
11668WAT     H235247   4.671   2.474   3.590
11669WAT      O35248   2.614   8.622   6.248
11669WAT     H135249   2.684   8.649   6.314
11669WAT     H235250   2.582   8.529   6.269
11670WAT      O35251   4.646   5.507   4.988
11670WAT     H135252   4.602   5.450   4.918
11670WAT     H235253   4.690   5.585   4.945
11671WAT      O35254   2.278   1.997   3.334
11671WAT     H135255   2.207   1.932   3.362
11671WAT     H235256   2.259   2.028   3.241
11672WAT      O35257   1.810   3.901   3.486
11672WAT     H135258   1.776   3.843   3.560
11672WAT     H235259   1.891   3.859   3.445
11673WAT      O35260   2.436   3.685   1.378
11673WAT     H135261   2.448   3.769   1.431
11673WAT     H235262   2.523   3.635   1.376
11674WAT      O35263   0.166   0.160   9.618
11674WAT     H135264   0.091   0.193   9.559
11674WAT     H235265   0.244   0.133   9.562
11675WAT      O35266   4.217   6.371   1.199
11675WAT     H135267   4.248   6.287   1.244
11675WAT     H235268   4.203   6.353   1.102
11676WAT      O35269   9.474   5.761   9.114
11676WAT     H135270   9.471   5.799   9.207
11676WAT     H235271   9.418   5.678   9.110
11677WAT      O35272   1.001   4.894   6.537
11677WAT     H135273   0.983   4.946   6.620
11677WAT     H235274   0.984   4.952   6.457
11678WAT      O35275   6.576   4.319   6.721
11678WAT     H135276   6.599   4.294   6.815
11678WAT     H235277   6.545   4.238   6.672
11679WAT      O35278   9.283   3.938   3.846
11679WAT     H135279   9.210   3.880   3.813
11679WAT     H235280   9.261   3.969   3.939
11680WAT      O35281   1.373   0.490   2.980
11680WAT     H135282   1.366   0.429   2.902
11680WAT     H235283   1.282   0.507   3.017
11681WAT      O35284   7.025   2.041   2.940
11681WAT     H135285   7.019   1.946   2.909
11681WAT     H235286   6.935   2.071   2.972
11682WAT      O35287   1.603   0.692   1.254
11682WAT     H135288   1.647   0.617   1.204
11682WAT     H235289   1.657   0.714   1.335
11683WAT      O35290   2.555   5.695   1.737
11683WAT     H135291   2.618   5.636   1.787
11683WAT     H235292   2.465   5.690   1.781
11684WAT      O35293   7.588   0.905   6.087
11684WAT     H135294   7.654   0.926   6.014
11684WAT     H235295   7.522   0.979   6.095
11685WAT      O35296   5.278   9.805   8.986
11685WAT     H135297   5.304   9.889   9.034
11685WAT     H235298   5.336   9.793   8.906
11686WAT      O35299   9.020   9.440   2.578
11686WAT     H135300   9.007   9.531   2.539
11686WAT     H235301   8.934   9.408   2.616
11687WAT      O35302   8.274   6.329   5.991
11687WAT     H135303   8.305   6.401   5.929
11687WAT     H235304   8.262   6.244   5.940
11688WAT      O35305   2.149   4.298   9.480
11688WAT     H135306   2.059   4.309   9.439
11688WAT     H235307   2.217   4.345   9.424
11689WAT      O35308   6.763   1.244   8.977
11689WAT     H135309   6.692   1.182   8.942
11689WAT     H235310   6.723   1.334   8.994
11690WAT      O35311   4.146   4.089   6.315
11690WAT     H135312   4.212   4.019   6.288
11690WAT     H235313   4.056   4.066   6.277
11691WAT      O35314   5.104   2.005   4.118
11691WAT     H135315   5.061   2.094   4.134
11691WAT     H235316   5.161   2.010   4.037
11692WAT      O35317   1.440   8.913   7.864
11692WAT     H135318   1.351   8.923   7.910
11692WAT     H235319   1.443   8.973   7.784
11693WAT      O35320   5.891   7.087   4.439
11693WAT     H135321   5.829   7.009   4.430
11693WAT     H235322   5.869   7.155   4.370
11694WAT      O35323   8.020   5.195   5.783
11694WAT     H135324   8.080   5.229   5.856
11694WAT     H235325   7.986   5.272   5.729
11695WAT      O35326   6.634   2.757   7.869
11695WAT     H135327   6.631   2.854   7.845
11695WAT     H235328   6.541   2.720   7.871
11696WAT      O35329   2.016   8.249   7.232
11696WAT     H135330   1.916   8.251   7.221
11696WAT     H235331   2.059   8.286   7.149
11697WAT      O35332   1.544   4.033   3.451
11697WAT     H135333   1.519   3.948   3.496
11697WAT     H235334   1.633   4.022   3.406
11698WAT      O35335   4.656   8.762   7.986
11698WAT     H135336   4.720   8.750   8.061
11698WAT     H235337   4.652   8.678   7.932
11699WAT      O35338   0.120   3.014   2.797
11699WAT     H135339   0.096   3.047   2.706
11699WAT     H235340   0.186   3.076   2.839
11700WAT      O35341   1.031   5.101   4.066
11700WAT     H135342   1.029   5.191   4.110
11700WAT     H235343   1.027   5.113   3.966
11701WAT      O35344   6.183   9.551   8.274
11701WAT     H135345   6.184   9.455   8.302
11701WAT     H235346   6.112   9.600   8.325
11702WAT      O35347   9.617   4.340   9.103
11702WAT     H135348   9.665   4.254   9.121
11702WAT     H235349   9.607   4.391   9.188
11703WAT      O35350   7.736   9.229   8.751
11703WAT     H135351   7.805   9.240   8.822
11703WAT     H235352   7.646   9.258   8.786
11704WAT      O35353   9.721   1.699   8.821
11704WAT     H135354   9.772   1.613   8.811
11704WAT     H235355   9.639   1.696   8.763
11705WAT      O35356   3.047   1.431   6.599
11705WAT     H135357   2.983   1.481   6.658
11705WAT     H235358   3.076   1.347   6.644
11706WAT      O35359   5.631   1.986   4.131
11706WAT     H135360   5.647   2.085   4.130
11706WAT     H235361   5.605   1.958   4.224
11707WAT      O35362   7.243   4.891   6.405
11707WAT     H135363   7.213   4.896   6.501
11707WAT     H235364   7.257   4.795   6.379
11708WAT      O35365   9.263   5.252   4.523
11708WAT     H135366   9.312   5.339   4.523
11708WAT     H235367   9.181   5.259   4.465
11709WAT      O35368   9.152   0.425   4.217
11709WAT     H135369   9.212   0.354   4.256
11709WAT     H235370   9.198   0.470   4.141
11710WAT      O35371   5.272   2.790   4.242
11710WAT     H135372   5.350   2.728   4.233
11710WAT     H235373   5.211   2.757   4.314
11711WAT      O35374   7.725   3.234   0.349
11711WAT     H135375   7.735   3.138   0.374
11711WAT     H235376   7.816   3.275   0.336
11712WAT      O35377   2.525   5.761   1.477
11712WAT     H135378   2.531   5.736   1.574
11712WAT     H235379   2.502   5.681   1.423
11713WAT      O35380   3.589   3.530   6.249
11713WAT     H135381   3.558   3.552   6.341
11713WAT     H235382   3.536   3.453   6.213
11714WAT      O35383   6.422   1.844   1.669
11714WAT     H135384   6.326   1.846   1.641
11714WAT     H235385   6.452   1.750   1.682
11715WAT      O35386   1.790   3.345   7.945
11715WAT     H135387   1.821   3.311   7.857
11715WAT     H235388   1.691   3.335   7.951
11716WAT      O35389   3.952   3.198   3.431
11716WAT     H135390   4.002   3.283   3.415
11716WAT     H235391   3.893   3.178   3.352
11717WAT      O35392   8.849   1.932   3.150
11717WAT     H135393   8.888   1.850   3.107
11717WAT     H235394   8.797   1.984   3.082
11718WAT      O35395   0.792   0.136   6.726
11718WAT     H135396   0.823   0.114   6.634
11718WAT     H235397   0.692   0.128   6.731
11719WAT      O35398   0.081   0.899   7.830
11719WAT     H135399   0.167   0.869   7.790
11719WAT     H235400   0.085   0.889   7.929
11720WAT      O35401   4.296   6.845   8.522
11720WAT     H135402   4.238   6.919   8.556
11720WAT     H235403   4.269   6.759   8.565
11721WAT      O35404   5.287   4.767   5.902
11721WAT     H135405   5.224   4.829   5.948
11721WAT     H235406   5.241   4.723   5.825
11722WAT      O35407   3.619   1.990   9.643
11722WAT     H135408   3.656   1.898   9.628
11722WAT     H235409   3.587   1.998   9.737
11723WAT      O35410   4.898   0.883   5.919
11723WAT     H135411   4.864   0.905   5.828
11723WAT     H235412   4.887   0.962   5.979
11724WAT      O35413   6.428   6.071   3.609
11724WAT     H135414   6.460   6.150   3.661
11724WAT     H235415   6.479   5.990   3.637
11725WAT      O35416   0.815   5.838   9.706
11725WAT     H135417   0.804   5.907   9.777
11725WAT     H235418   0.807   5.881   9.616
11726WAT      O35419   3.361   0.007   1.145
11726WAT     H135420   3.422  -0.054   1.094
11726WAT     H235421   3.355   0.095   1.098
11727WAT      O35422   4.608   1.815   7.400
11727WAT     H135423   4.638   1.839   7.307
11727WAT     H235424   4.538   1.880   7.429
11728WAT      O35425   7.944   3.053   7.241
11728WAT     H135426   7.995   2.980   7.286
11728WAT     H235427   7.886   3.014   7.170
11729WAT      O35428   6.190   6.775   2.064
11729WAT     H135429   6.225   6.823   1.983
11729WAT     H235430   6.137   6.839   2.120
11730WAT      O35431   2.673   2.232   2.791
11730WAT     H135432   2.619   2.159   2.832
11730WAT     H235433   2.749   2.192   2.739
11731WAT      O35434   4.619   1.101   7.644
11731WAT     H135435   4.654   1.081   7.736
11731WAT     H235436   4.520   1.095   7.645
11732WAT      O35437   7.050   3.930   9.568
11732WAT     H135438   7.149   3.915   9.569
11732WAT     H235439   7.007   3.859   9.513
11733WAT      O35440   9.167   8.721   7.958
11733WAT     H135441   9.108   8.759   8.029
11733WAT     H235442   9.250   8.684   8.000
11734WAT      O35443   6.595   3.695   1.439
11734WAT     H135444   6.615   3.702   1.341
11734WAT     H235445   6.679   3.678   1.489
11735WAT      O35446   1.182   7.559   7.809
11735WAT     H135447   1.220   7.650   7.828
11735WAT     H235448   1.196   7.500   7.888
11736WAT      O35449   9.171   0.425   9.246
11736WAT     H135450   9.198   0.382   9.333
11736WAT     H235451   9.221   0.382   9.171
11737WAT      O35452   0.292   8.454   7.462
11737WAT     H135453   0.310   8.549   7.436
11737WAT     H235454   0.336   8.393   7.396
11738WAT      O35455   5.815   9.183   9.400
11738WAT     H135456   5.783   9.091   9.421
11738WAT     H235457   5.736   9.244   9.390
11739WAT      O35458   0.065   1.513   1.609
11739WAT     H135459  -0.033   1.518   1.591
11739WAT     H235460   0.110   1.467   1.532
11740WAT      O35461   9.285   5.041   4.807
11740WAT     H135462   9.211   4.984   4.773
11740WAT     H235463   9.333   4.993   4.880
11741WAT      O35464   4.810   1.932   1.328
11741WAT     H135465   4.837   1.942   1.232
11741WAT     H235466   4.887   1.896   1.381
11742WAT      O35467   7.511   1.506   0.398
11742WAT     H135468   7.598   1.484   0.442
11742WAT     H235469   7.515   1.482   0.301
11743WAT      O35470   3.194   6.847   3.080
11743WAT     H135471   3.146   6.854   3.168
11743WAT     H235472   3.129   6.823   3.008
11744WAT      O35473   4.800   7.467   7.595
11744WAT     H135474   4.743   7.509   7.525
11744WAT     H235475   4.893   7.502   7.588
11745WAT      O35476   3.072   7.331   1.799
11745WAT     H135477   3.147   7.358   1.860
11745WAT     H235478   2.994   7.299   1.854
11746WAT      O35479   6.700   8.346   4.514
11746WAT     H135480   6.716   8.436   4.473
11746WAT     H235481   6.657   8.358   4.603
11747WAT      O35482   4.863   6.683   7.358
11747WAT     H135483   4.835   6.644   7.446
11747WAT     H235484   4.957   6.718   7.366
11748WAT      O35485   2.316   5.124   1.447
11748WAT     H135486   2.319   5.034   1.491
11748WAT     H235487   2.350   5.193   1.512
11749WAT      O35488   6.614   4.408   5.316
11749WAT     H135489   6.593   4.401   5.219
11749WAT     H235490   6.698   4.462   5.328
11750WAT      O35491   1.545   2.260   1.515
11750WAT     H135492   1.563   2.204   1.435
11750WAT     H235493   1.451   2.293   1.512
11751WAT      O35494   7.639   5.986   5.001
11751WAT     H135495   7.642   6.007   4.903
11751WAT     H235496   7.731   5.991   5.039
11752WAT      O35497   1.314   7.796   1.929
11752WAT     H135498   1.363   7.788   1.843
11752WAT     H235499   1.302   7.705   1.969
11753WAT      O35500   8.216   3.102   1.981
11753WAT     H135501   8.316   3.114   1.984
11753WAT     H235502   8.177   3.134   2.068
11754WAT      O35503   3.313   3.827   3.660
11754WAT     H135504   3.398   3.776   3.655
11754WAT     H235505   3.293   3.849   3.755
11755WAT      O35506   7.994   6.355   7.577
11755WAT     H135507   8.048   6.437   7.560
11755WAT     H235508   7.967   6.352   7.673
11756WAT      O35509   1.660   2.460   3.006
11756WAT     H135510   1.706   2.371   3.002
11756WAT     H235511   1.580   2.460   2.947
11757WAT      O35512   4.427   8.205   4.722
11757WAT     H135513   4.515   8.252   4.725
11757WAT     H235514   4.433   8.121   4.776
11758WAT      O35515   9.499   5.329   2.281
11758WAT     H135516   9.432   5.400   2.259
11758WAT     H235517   9.520   5.333   2.379
11759WAT      O35518   7.369   8.427   5.642
11759WAT     H135519   7.406   8.412   5.734
11759WAT     H235520   7.271   8.444   5.648
11760WAT      O35521   8.203   3.445   2.855
11760WAT     H135522   8.121   3.411   2.899
11760WAT     H235523   8.243   3.373   2.798
11761WAT      O35524   1.059   0.883   6.107
11761WAT     H135525   1.139   0.857   6.162
11761WAT     H235526   1.073   0.974   6.068
11762WAT      O35527   5.635   9.569   1.371
11762WAT     H135528   5.720   9.612   1.402
11762WAT     H235529   5.649   9.528   1.281
11763WAT      O35530   5.616   9.471   5.767
11763WAT     H135531   5.573   9.479   5.677
11763WAT     H235532   5.561   9.519   5.835
11764WAT      O35533   3.159   4.046   7.730
11764WAT     H135534   3.220   3.976   7.693
11764WAT     H235535   3.111   4.008   7.809
11765WAT      O35536   1.486   0.331   0.402
11765WAT     H135537   1.557   0.367   0.341
11765WAT     H235538   1.465   0.237   0.376
11766WAT      O35539   9.725   2.690   0.356
11766WAT     H135540   9.669   2.644   0.286
11766WAT     H235541   9.673   2.767   0.394
11767WAT      O35542   4.144   2.733   9.869
11767WAT     H135543   4.109   2.667   9.803
11767WAT     H235544   4.074   2.753   9.937
11768WAT      O35545   5.383   1.523   4.107
11768WAT     H135546   5.317   1.598   4.118
11768WAT     H235547   5.415   1.495   4.197
11769WAT      O35548   7.604   0.227   3.439
11769WAT     H135549   7.579   0.132   3.418
11769WAT     H235550   7.621   0.276   3.353
11770WAT      O35551   2.072   3.422   5.382
11770WAT     H135552   2.075   3.512   5.425
11770WAT     H235553   2.138   3.418   5.307
11771WAT      O35554   8.169   1.233   3.362
11771WAT     H135555   8.185   1.279   3.449
11771WAT     H235556   8.154   1.135   3.379
11772WAT      O35557   5.772   7.320   7.341
11772WAT     H135558   5.684   7.364   7.321
11772WAT     H235559   5.844   7.364   7.287
11773WAT      O35560   7.967   9.791   5.605
11773WAT     H135561   7.997   9.781   5.511
11773WAT     H235562   7.987   9.707   5.656
11774WAT      O35563   2.431   7.528   6.245
11774WAT     H135564   2.396   7.523   6.338
11774WAT     H235565   2.355   7.532   6.181
11775WAT      O35566   9.288   6.908   2.132
11775WAT     H135567   9.281   7.007   2.139
11775WAT     H235568   9.367   6.884   2.075
11776WAT      O35569   1.699   1.258   3.324
11776WAT     H135570   1.741   1.256   3.233
11776WAT     H235571   1.771   1.253   3.394
11777WAT      O35572   5.159   9.129   6.517
11777WAT     H135573   5.087   9.065   6.545
11777WAT     H235574   5.210   9.159   6.598
11778WAT      O35575   5.334   6.486   4.622
11778WAT     H135576   5.309   6.510   4.716
11778WAT     H235577   5.430   6.457   4.619
11779WAT      O35578   9.064   5.579   0.539
11779WAT     H135579   9.040   5.595   0.443
11779WAT     H235580   9.019   5.496   0.572
11780WAT      O35581   7.101   9.307   8.557
11780WAT     H135582   7.090   9.326   8.460
11780WAT     H235583   7.113   9.393   8.606
11781WAT      O35584   5.239   6.937   9.260
11781WAT     H135585   5.320   6.891   9.224
11781WAT     H235586   5.223   6.908   9.354
11782WAT      O35587   0.759   7.789   8.651
11782WAT     H135588   0.835   7.745   8.700
11782WAT     H235589   0.793   7.871   8.606
11783WAT      O35590   7.905   9.765   3.023
11783WAT     H135591   7.839   9.694   2.996
11783WAT     H235592   7.984   9.762   2.961
11784WAT      O35593   2.070   1.225   5.892
11784WAT     H135594   1.975   1.252   5.905
11784WAT     H235595   2.091   1.146   5.950
11785WAT      O35596   3.277   9.600   4.772
11785WAT     H135597   3.278   9.687   4.722
11785WAT     H235598   3.284   9.525   4.707
11786WAT      O35599   2.447   7.453   8.695
11786WAT     H135600   2.502   7.406   8.626
11786WAT     H235601   2.503   7.523   8.739
11787WAT      O35602   8.493   2.320   8.829
11787WAT     H135603   8.482   2.222   8.808
11787WAT     H235604   8.413   2.370   8.795
11788WAT      O35605   5.727   3.256   1.065
11788WAT     H135606   5.793   3.278   0.994
11788WAT     H235607   5.664   3.185   1.032
11789WAT      O35608   0.436   5.802   0.577
11789WAT     H135609   0.433   5.835   0.671
11789WAT     H235610   0.487   5.715   0.574
11790WAT      O35611   0.251   3.840   0.254
11790WAT     H135612   0.264   3.840   0.155
11790WAT     H235613   0.185   3.769   0.279
11791WAT      O35614   7.987   0.743   1.817
11791WAT     H135615   7.918   0.701   1.875
11791WAT     H235616   7.947   0.769   1.730
11792WAT      O35617   6.297   0.308   3.837
11792WAT     H135618   6.267   0.376   3.903
11792WAT     H235619   6.221   0.246   3.816
11793WAT      O35620   2.621   7.998   6.070
11793WAT     H135621   2.557   8.016   5.995
11793WAT     H235622   2.575   7.943   6.140
11794WAT      O35623   4.009   3.181   2.742
11794WAT     H135624   4.101   3.220   2.729
11794WAT     H235625   3.950   3.210   2.667
11795WAT      O35626   3.685   8.210   4.108
11795WAT     H135627   3.706   8.160   4.024
11795WAT     H235628   3.765   8.264   4.136
11796WAT      O35629   3.133   6.662   4.447
11796WAT     H135630   3.038   6.662   4.417
11796WAT     H235631   3.165   6.567   4.458
11797WAT      O35632   1.679   7.315   6.917
11797WAT     H135633   1.775   7.330   6.896
11797WAT     H235634   1.624   7.390   6.878
11798WAT      O35635   8.706   3.679   9.875
11798WAT     H135636   8.777   3.697   9.943
11798WAT     H235637   8.716   3.587   9.839
11799WAT      O35638   2.458   3.624   9.736
11799WAT     H135639   2.505   3.536   9.744
11799WAT     H235640   2.522   3.692   9.701
11800WAT      O35641   8.113   6.578   7.220
11800WAT     H135642   8.049   6.550   7.148
11800WAT     H235643   8.201   6.600   7.179
11801WAT      O35644   7.844   2.138   4.042
11801WAT     H135645   7.838   2.231   4.079
11801WAT     H235646   7.798   2.134   3.953
11802WAT      O35647   7.367   8.941   2.805
11802WAT     H135648   7.278   8.950   2.850
11802WAT     H235649   7.359   8.967   2.709
11803WAT      O35650   2.002   6.647   6.668
11803WAT     H135651   2.040   6.567   6.715
11803WAT     H235652   2.076   6.708   6.641
11804WAT      O35653   3.526   4.183   5.634
11804WAT     H135654   3.609   4.205   5.686
11804WAT     H235655   3.447   4.223   5.680
11805WAT      O35656   8.962   0.329   3.949
11805WAT     H135657   8.935   0.360   4.040
11805WAT     H235658   8.883   0.289   3.902
11806WAT      O35659   6.016   7.236   8.989
11806WAT     H135660   5.959   7.275   9.061
11806WAT     H235661   6.112   7.238   9.017
11807WAT      O35662   2.851   7.031   9.545
11807WAT     H135663   2.874   7.082   9.462
11807WAT     H235664   2.924   6.966   9.566
11808WAT      O35665   4.527   6.095   9.634
11808WAT     H135666   4.435   6.056   9.622
11808WAT     H235667   4.568   6.111   9.545
11809WAT      O35668   6.947   3.208   2.620
11809WAT     H135669   6.899   3.136   2.570
11809WAT     H235670   6.992   3.168   2.700
11810WAT      O35671   5.465   2.269   1.952
11810WAT     H135672   5.526   2.346   1.934
11810WAT     H235673   5.388   2.271   1.888
11811WAT      O35674   6.196   8.449   8.809
11811WAT     H135675   6.176   8.440   8.711
11811WAT     H235676   6.295   8.451   8.822
11812WAT      O35677   3.559   1.310   0.401
11812WAT     H135678   3.609   1.269   0.325
11812WAT     H235679   3.595   1.402   0.419
11813WAT      O35680   9.033   2.255   7.382
11813WAT     H135681   8.959   2.232   7.319
11813WAT     H235682   9.096   2.177   7.389
11814WAT      O35683   0.758   6.426   9.208
11814WAT     H135684   0.661   6.407   9.193
11814WAT     H235685   0.775   6.434   9.307
11815WAT      O35686   0.455   3.350   4.883
11815WAT     H135687   0.364   3.371   4.847
11815WAT     H235688   0.503   3.435   4.905
11816WAT      O35689   2.951   9.506   5.618
11816WAT     H135690   3.051   9.501   5.614
11816WAT     H235691   2.924   9.582   5.676
11817WAT      O35692   8.149   5.203   4.545
11817WAT     H135693   8.154   5.254   4.631
11817WAT     H235694   8.192   5.256   4.472
11818WAT      O35695   9.486   5.577   3.474
11818WAT     H135696   9.486   5.653   3.539
11818WAT     H235697   9.551   5.508   3.505
11819WAT      O35698   1.766   2.711   8.949
11819WAT     H135699   1.761   2.616   8.980
11819WAT     H235700   1.808   2.768   9.020
11820WAT      O35701   7.844   8.321   0.407
11820WAT     H135702   7.861   8.257   0.482
11820WAT     H235703   7.747   8.343   0.404
11821WAT      O35704   1.318   8.226   1.510
11821WAT     H135705   1.294   8.309   1.560
11821WAT     H235706   1.282   8.147   1.560
11822WAT      O35707   3.673   2.977   6.362
11822WAT     H135708   3.675   2.949   6.266
11822WAT     H235709   3.578   2.988   6.391
11823WAT      O35710   5.511   7.693   9.124
11823WAT     H135711   5.423   7.721   9.162
11823WAT     H235712   5.495   7.635   9.044
11824WAT      O35713   3.447   0.919   2.280
11824WAT     H135714   3.462   0.865   2.197
11824WAT     H235715   3.371   0.983   2.265
11825WAT      O35716   3.037   1.452   5.284
11825WAT     H135717   3.068   1.403   5.366
11825WAT     H235718   3.097   1.530   5.268
11826WAT      O35719   6.661   2.514   6.765
11826WAT     H135720   6.757   2.543   6.760
11826WAT     H235721   6.609   2.582   6.816
11827WAT      O35722   5.347   5.333   3.985
11827WAT     H135723   5.329   5.281   3.901
11827WAT     H235724   5.349   5.431   3.963
11828WAT      O35725   3.293   6.546   0.710
11828WAT     H135726   3.363   6.483   0.676
11828WAT     H235727   3.263   6.515   0.801
11829WAT      O35728   1.817   3.219   4.703
11829WAT     H135729   1.873   3.175   4.634
11829WAT     H235730   1.748   3.154   4.736
11830WAT      O35731   8.223   5.224   3.531
11830WAT     H135732   8.191   5.263   3.618
11830WAT     H235733   8.322   5.237   3.523
11831WAT      O35734   8.177   4.024   6.075
11831WAT     H135735   8.153   3.936   6.035
11831WAT     H235736   8.121   4.041   6.156
11832WAT      O35737   1.904   2.828   6.255
11832WAT     H135738   1.898   2.731   6.279
11832WAT     H235739   1.856   2.882   6.324
11833WAT      O35740   1.631   7.841   3.551
11833WAT     H135741   1.609   7.926   3.598
11833WAT     H235742   1.641   7.858   3.453
11834WAT      O35743   6.262   2.306   7.833
11834WAT     H135744   6.350   2.345   7.862
11834WAT     H235745   6.267   2.206   7.837
11835WAT      O35746   7.456   6.664   4.469
11835WAT     H135747   7.459   6.734   4.541
11835WAT     H235748   7.525   6.685   4.400
11836WAT      O35749   2.112   8.410   0.922
11836WAT     H135750   2.033   8.461   0.890
11836WAT     H235751   2.153   8.456   1.001
11837WAT      O35752   8.784   6.515   3.390
11837WAT     H135753   8.823   6.525   3.482
11837WAT     H235754   8.684   6.514   3.397
11838WAT      O35755   1.627   8.369   9.772
11838WAT     H135756   1.677   8.455   9.769
11838WAT     H235757   1.629   8.326   9.681
11839WAT      O35758   0.394   7.578   7.688
11839WAT     H135759   0.365   7.652   7.627
11839WAT     H235760   0.360   7.491   7.653
11840WAT      O35761   3.109   7.846   1.624
11840WAT     H135762   3.047   7.809   1.555
11840WAT     H235763   3.129   7.942   1.603
11841WAT      O35764   4.428   1.412   0.956
11841WAT     H135765   4.337   1.426   0.918
11841WAT     H235766   4.438   1.467   1.039
11842WAT      O35767   6.177   0.137   9.757
11842WAT     H135768   6.131   0.165   9.841
11842WAT     H235769   6.256   0.196   9.741
11843WAT      O35770   7.736   0.789   7.322
11843WAT     H135771   7.776   0.775   7.413
11843WAT     H235772   7.674   0.713   7.302
11844WAT      O35773   8.514   7.123   9.076
11844WAT     H135774   8.588   7.109   9.010
11844WAT     H235775   8.536   7.202   9.134
11845WAT      O35776   2.528   4.625   5.680
11845WAT     H135777   2.473   4.690   5.732
11845WAT     H235778   2.563   4.669   5.597
11846WAT      O35779   2.889   0.616   9.603
11846WAT     H135780   2.931   0.626   9.513
11846WAT     H235781   2.862   0.521   9.617
11847WAT      O35782   0.488   0.220   7.415
11847WAT     H135783   0.403   0.194   7.369
11847WAT     H235784   0.480   0.201   7.513
11848WAT      O35785   6.344   5.206   5.553
11848WAT     H135786   6.269   5.140   5.543
11848WAT     H235787   6.419   5.164   5.605
11849WAT      O35788   1.610   6.370   3.499
11849WAT     H135789   1.655   6.289   3.461
11849WAT     H235790   1.678   6.430   3.541
11850WAT      O35791   5.190   7.904   8.847
11850WAT     H135792   5.197   7.804   8.848
11850WAT     H235793   5.185   7.936   8.752
11851WAT      O35794   9.430   2.599   3.622
11851WAT     H135795   9.390   2.512   3.651
11851WAT     H235796   9.519   2.612   3.667
11852WAT      O35797   9.556   8.585   5.674
11852WAT     H135798   9.463   8.587   5.711
11852WAT     H235799   9.619   8.623   5.742
11853WAT      O35800   2.126   2.854   7.391
11853WAT     H135801   2.218   2.859   7.430
11853WAT     H235802   2.133   2.835   7.293
11854WAT      O35803   3.438   7.273   3.809
11854WAT     H135804   3.483   7.234   3.729
11854WAT     H235805   3.400   7.363   3.786
11855WAT      O35806   7.930   2.394   0.539
11855WAT     H135807   8.029   2.394   0.552
11855WAT     H235808   7.887   2.335   0.607
11856WAT      O35809   2.912   1.352   3.477
11856WAT     H135810   2.948   1.343   3.384
11856WAT     H235811   2.862   1.269   3.502
11857WAT      O35812   8.657   1.400   1.699
11857WAT     H135813   8.586   1.372   1.633
11857WAT     H235814   8.738   1.430   1.649
11858WAT      O35815   1.310   9.477   9.372
11858WAT     H135816   1.246   9.546   9.406
11858WAT     H235817   1.278   9.444   9.283
11859WAT      O35818   7.048   2.934   1.044
11859WAT     H135819   6.956   2.930   1.005
11859WAT     H235820   7.062   2.856   1.104
11860WAT      O35821   1.394   7.852   7.490
11860WAT     H135822   1.324   7.802   7.439
11860WAT     H235823   1.484   7.816   7.469
11861WAT      O35824   3.624   9.710   0.561
11861WAT     H135825   3.633   9.713   0.661
11861WAT     H235826   3.574   9.627   0.534
11862WAT      O35827   8.903   0.731   3.013
11862WAT     H135828   8.858   0.649   2.978
11862WAT     H235829   9.000   0.712   3.029
11863WAT      O35830   3.496   2.793   4.091
11863WAT     H135831   3.595   2.781   4.098
11863WAT     H235832   3.465   2.858   4.161
11864WAT      O35833   1.537   8.435   7.273
11864WAT     H135834   1.540   8.535   7.272
11864WAT     H235835   1.462   8.404   7.215
11865WAT      O35836   0.599   9.521   8.894
11865WAT     H135837   0.595   9.607   8.842
11865WAT     H235838   0.506   9.492   8.918
11866WAT      O35839   8.150   0.136   3.239
11866WAT     H135840   8.145   0.209   3.172
11866WAT     H235841   8.243   0.097   3.240
11867WAT      O35842   8.822   1.004   2.717
11867WAT     H135843   8.737   0.952   2.701
11867WAT     H235844   8.840   1.063   2.638
11868WAT      O35845   1.610   5.400   5.860
11868WAT     H135846   1.670   5.357   5.929
11868WAT     H235847   1.662   5.468   5.809
11869WAT      O35848   4.923   3.777   6.585
11869WAT     H135849   4.944   3.832   6.505
11869WAT     H235850   4.973   3.690   6.580
11870WAT      O35851   1.502   9.116   3.700
11870WAT     H135852   1.468   9.210   3.695
11870WAT     H235853   1.424   9.052   3.700
11871WAT      O35854   4.108   8.537   2.649
11871WAT     H135855   4.085   8.534   2.552
11871WAT     H235856   4.203   8.509   2.661
11872WAT      O35857   3.042   4.419   0.139
11872WAT     H135858   3.034   4.507   0.093
11872WAT     H235859   3.086   4.431   0.228
11873WAT      O35860   6.872   0.309   3.289
11873WAT     H135861   6.940   0.283   3.221
11873WAT     H235862   6.911   0.302   3.381
11874WAT      O35863   6.217   4.338   3.787
11874WAT     H135864   6.123   4.332   3.821
11874WAT     H235865   6.272   4.265   3.827
11875WAT      O35866   1.428   9.408   8.837
11875WAT     H135867   1.504   9.406   8.773
11875WAT     H235868   1.379   9.495   8.828
11876WAT      O35869   0.397   8.958   2.157
11876WAT     H135870   0.469   9.006   2.108
11876WAT     H235871   0.438   8.896   2.225
11877WAT      O35872   3.177   1.226   6.697
11877WAT     H135873   3.170   1.166   6.776
11877WAT     H235874   3.266   1.272   6.698
11878WAT      O35875   7.233   7.771   2.638
11878WAT     H135876   7.312   7.829   2.657
11878WAT     H235877   7.263   7.678   2.619
11879WAT      O35878   6.292   0.694   3.735
11879WAT     H135879   6.211   0.674   3.679
11879WAT     H235880   6.276   0.777   3.788
11880WAT      O35881   8.496   7.046   5.459
11880WAT     H135882   8.543   7.067   5.545
11880WAT     H235883   8.399   7.070   5.468
11881WAT      O35884   6.882   0.822   5.139
11881WAT     H135885   6.915   0.798   5.231
11881WAT     H235886   6.947   0.788   5.071
11882WAT      O35887   5.085   3.324   5.410
11882WAT     H135888   5.141   3.338   5.328
11882WAT     H235889   5.023   3.247   5.395
11883WAT      O35890   3.379   6.288   2.214
11883WAT     H135891   3.450   6.352   2.245
11883WAT     H235892   3.327   6.257   2.293
11884WAT      O35893   1.301   3.313   9.156
11884WAT     H135894   1.255   3.387   9.205
11884WAT     H235895   1.325   3.241   9.221
11885WAT      O35896   9.321   9.184   5.552
11885WAT     H135897   9.266   9.132   5.486
11885WAT     H235898   9.344   9.126   5.630
11886WAT      O35899   4.007   8.081   5.171
11886WAT     H135900   3.939   8.154   5.162
11886WAT     H235901   3.979   8.003   5.116
11887WAT      O35902   8.835   5.914   0.802
11887WAT     H135903   8.836   5.999   0.854
11887WAT     H235904   8.877   5.841   0.855
11888WAT      O35905   5.848   2.351   4.961
11888WAT     H135906   5.846   2.343   4.861
11888WAT     H235907   5.861   2.261   5.002
11889WAT      O35908   0.914   6.461   7.414
11889WAT     H135909   0.842   6.502   7.470
11889WAT     H235910   0.984   6.529   7.395
11890WAT      O35911   2.629   8.419   1.922
11890WAT     H135912   2.597   8.496   1.978
11890WAT     H235913   2.587   8.335   1.955
11891WAT      O35914   7.798   0.235   7.188
11891WAT     H135915   7.872   0.239   7.255
11891WAT     H235916   7.711   0.222   7.234
11892WAT      O35917   9.143   1.200   6.099
11892WAT     H135918   9.174   1.293   6.076
11892WAT     H235919   9.213   1.134   6.072
11893WAT      O35920   9.798   8.512   4.650
11893WAT     H135921   9.889   8.548   4.670
11893WAT     H235922   9.735   8.587   4.631
11894WAT      O35923   1.502   8.602   8.558
11894WAT     H135924   1.474   8.661   8.482
11894WAT     H235925   1.446   8.520   8.560
11895WAT      O35926   5.677   2.374   3.561
11895WAT     H135927   5.752   2.439   3.549
11895WAT     H235928   5.700   2.310   3.634
11896WAT      O35929   1.191   9.796   7.530
11896WAT     H135930   1.235   9.711   7.560
11896WAT     H235931   1.238   9.873   7.571
11897WAT      O35932   6.490   1.379   8.295
11897WAT     H135933   6.495   1.437   8.377
11897WAT     H235934   6.477   1.436   8.214
11898WAT      O35935   0.194   7.658   3.091
11898WAT     H135936   0.146   7.744   3.112
11898WAT     H235937   0.163   7.624   3.003
11899WAT      O35938   2.521   7.260   6.406
11899WAT     H135939   2.477   7.186   6.456
11899WAT     H235940   2.461   7.340   6.405
11900WAT      O35941   7.516   5.257   4.073
11900WAT     H135942   7.536   5.314   4.152
11900WAT     H235943   7.579   5.279   3.998
11901WAT      O35944   4.181   0.887   7.631
11901WAT     H135945   4.258   0.883   7.568
11901WAT     H235946   4.135   0.798   7.632
11902WAT      O35947   2.179   1.406   6.552
11902WAT     H135948   2.110   1.472   6.523
11902WAT     H235949   2.176   1.326   6.492
11903WAT      O35950   3.879   6.109   5.478
11903WAT     H135951   3.908   6.127   5.384
11903WAT     H235952   3.798   6.164   5.499
11904WAT      O35953   1.913   8.311   4.644
11904WAT     H135954   1.863   8.339   4.562
11904WAT     H235955   1.971   8.233   4.622
11905WAT      O35956   3.023   0.691   1.165
11905WAT     H135957   2.961   0.745   1.223
11905WAT     H235958   2.987   0.598   1.156
11906WAT      O35959   8.796   8.415   2.136
11906WAT     H135960   8.820   8.352   2.210
11906WAT     H235961   8.697   8.429   2.136
11907WAT      O35962   3.186   2.769   5.586
11907WAT     H135963   3.096   2.785   5.627
11907WAT     H235964   3.256   2.820   5.637
11908WAT      O35965   6.004   8.902   7.068
11908WAT     H135966   5.979   8.960   6.991
11908WAT     H235967   5.960   8.813   7.058
11909WAT      O35968   6.581   6.411   6.125
11909WAT     H135969   6.533   6.324   6.138
11909WAT     H235970   6.562   6.447   6.034
11910WAT      O35971   1.927   6.134   9.304
11910WAT     H135972   1.953   6.038   9.309
11910WAT     H235973   1.913   6.160   9.208
11911WAT      O35974   7.772   7.439   1.073
11911WAT     H135975   7.841   7.508   1.095
11911WAT     H235976   7.748   7.446   0.976
11912WAT      O35977   1.006   5.190   5.468
11912WAT     H135978   0.987   5.093   5.480
11912WAT     H235979   1.026   5.232   5.557
11913WAT      O35980   6.321   3.745   7.377
11913WAT     H135981   6.241   3.699   7.339
11913WAT     H235982   6.295   3.836   7.409
11914WAT      O35983   5.792   0.606   6.288
11914WAT     H135984   5.847   0.674   6.239
11914WAT     H235985   5.699   0.608   6.253
11915WAT      O35986   1.535   8.055   7.629
11915WAT     H135987   1.595   8.019   7.701
11915WAT     H235988   1.488   7.980   7.584
11916WAT      O35989   9.589   7.890   7.888
11916WAT     H135990   9.592   7.987   7.863
11916WAT     H235991   9.605   7.881   7.987
11917WAT      O35992   7.606   9.561   6.365
11917WAT     H135993   7.627   9.560   6.267
11917WAT     H235994   7.564   9.474   6.391
11918WAT      O35995   2.205   0.041   9.505
11918WAT     H135996   2.226  -0.010   9.589
11918WAT     H235997   2.243   0.134   9.512
11919WAT      O35998   4.278   0.439   6.889
11919WAT     H135999   4.186   0.454   6.924
11919WAT     H236000   4.329   0.381   6.953
11920WAT      O36001   5.859   1.707   7.002
11920WAT     H136002   5.894   1.794   6.966
11920WAT     H236003   5.760   1.715   7.015
11921WAT      O36004   7.450   2.392   7.253
11921WAT     H136005   7.382   2.320   7.258
11921WAT     H236006   7.489   2.396   7.161
11922WAT      O36007   6.148   1.707   6.101
11922WAT     H136008   6.126   1.769   6.025
11922WAT     H236009   6.247   1.689   6.102
11923WAT      O36010   4.177   8.640   7.730
11923WAT     H136011   4.236   8.587   7.791
11923WAT     H236012   4.090   8.593   7.717
11924WAT      O36013   5.291   7.484   3.200
11924WAT     H136014   5.254   7.551   3.264
11924WAT     H236015   5.216   7.443   3.148
11925WAT      O36016   2.383   1.158   7.959
11925WAT     H136017   2.369   1.126   7.865
11925WAT     H236018   2.294   1.164   8.004
11926WAT      O36019   1.943   3.801   5.287
11926WAT     H136020   2.038   3.774   5.301
11926WAT     H236021   1.906   3.753   5.208
11927WAT      O36022   8.395   2.767   8.944
11927WAT     H136023   8.340   2.692   8.907
11927WAT     H236024   8.372   2.852   8.895
11928WAT      O36025   7.494   0.205   7.269
11928WAT     H136026   7.431   0.141   7.313
11928WAT     H236027   7.468   0.298   7.293
11929WAT      O36028   5.470   0.072   2.933
11929WAT     H136029   5.541   0.085   2.864
11929WAT     H236030   5.507   0.092   3.024
11930WAT      O36031   2.368   4.617   8.877
11930WAT     H136032   2.412   4.602   8.788
11930WAT     H236033   2.276   4.654   8.862
11931WAT      O36034   7.523   9.349   5.947
11931WAT     H136035   7.508   9.310   5.856
11931WAT     H236036   7.434   9.363   5.992
11932WAT      O36037   3.938   4.891   0.359
11932WAT     H136038   4.024   4.932   0.328
11932WAT     H236039   3.882   4.869   0.280
11933WAT      O36040   8.603   7.183   3.849
11933WAT     H136041   8.602   7.277   3.815
11933WAT     H236042   8.569   7.181   3.943
11934WAT      O36043   9.287   8.073   4.738
11934WAT     H136044   9.200   8.099   4.695
11934WAT     H236045   9.358   8.069   4.668
11935WAT      O36046   0.669   8.063   8.328
11935WAT     H136047   0.744   7.996   8.331
11935WAT     H236048   0.669   8.116   8.413
11936WAT      O36049   7.319   0.689   9.463
11936WAT     H136050   7.348   0.595   9.477
11936WAT     H236051   7.285   0.701   9.370
11937WAT      O36052   5.949   9.326   2.924
11937WAT     H136053   5.959   9.230   2.949
11937WAT     H236054   5.963   9.337   2.825
11938WAT      O36055   6.424   3.745   2.189
11938WAT     H136056   6.360   3.728   2.264
11938WAT     H236057   6.382   3.810   2.125
11939WAT      O36058   3.717   6.392   5.719
11939WAT     H136059   3.698   6.364   5.625
11939WAT     H236060   3.787   6.464   5.720
11940WAT      O36061   2.466   6.348   5.063
11940WAT     H136062   2.489   6.361   4.967
11940WAT     H236063   2.510   6.419   5.118
11941WAT      O36064   7.433   9.814   9.609
11941WAT     H136065   7.495   9.886   9.642
11941WAT     H236066   7.364   9.796   9.678
11942WAT      O36067   7.893   3.065   1.272
11942WAT     H136068   7.897   2.976   1.318
11942WAT     H236069   7.911   3.138   1.338
11943WAT      O36070   6.359   6.548   3.135
11943WAT     H136071   6.429   6.478   3.149
11943WAT     H236072   6.329   6.583   3.224
11944WAT      O36073   8.083   7.607   2.571
11944WAT     H136074   8.107   7.651   2.657
11944WAT     H236075   8.072   7.676   2.500
11945WAT      O36076   3.020   3.311   4.901
11945WAT     H136077   3.031   3.373   4.979
11945WAT     H236078   3.094   3.244   4.902
11946WAT      O36079   9.811   4.788   1.139
11946WAT     H136080   9.814   4.790   1.039
11946WAT     H236081   9.904   4.798   1.175
11947WAT      O36082   8.170   4.438   0.028
11947WAT     H136083   8.265   4.434   0.059
11947WAT     H236084   8.117   4.368   0.077
11948WAT      O36085   2.432   7.631   7.943
11948WAT     H136086   2.462   7.663   8.033
11948WAT     H236087   2.508   7.583   7.898
11949WAT      O36088   6.246   7.202   1.506
11949WAT     H136089   6.189   7.119   1.501
11949WAT     H236090   6.192   7.281   1.479
11950WAT      O36091   7.357   7.952   0.582
11950WAT     H136092   7.428   8.011   0.545
11950WAT     H236093   7.267   7.990   0.560
11951WAT      O36094   1.839   1.853   8.503
11951WAT     H136095   1.855   1.853   8.602
11951WAT     H236096   1.919   1.816   8.456
11952WAT      O36097   1.014   2.371   3.433
11952WAT     H136098   0.980   2.283   3.398
11952WAT     H236099   1.063   2.419   3.360
11953WAT      O36100   7.195   3.609   5.170
11953WAT     H136101   7.286   3.577   5.194
11953WAT     H236102   7.173   3.578   5.077
11954WAT      O36103   9.839   2.911   1.225
11954WAT     H136104   9.758   2.967   1.212
11954WAT     H236105   9.818   2.836   1.288
11955WAT      O36106   1.336   7.653   7.219
11955WAT     H136107   1.260   7.716   7.235
11955WAT     H236108   1.305   7.579   7.158
11956WAT      O36109   3.631   5.293   1.043
11956WAT     H136110   3.661   5.374   1.094
11956WAT     H236111   3.648   5.308   0.946
11957WAT      O36112   3.383   9.366   0.176
11957WAT     H136113   3.447   9.294   0.201
11957WAT     H236114   3.295   9.326   0.151
11958WAT      O36115   1.290   4.588   1.915
11958WAT     H136116   1.379   4.619   1.884
11958WAT     H236117   1.298   4.496   1.955
11959WAT      O36118   8.767   4.631   6.519
11959WAT     H136119   8.831   4.688   6.466
11959WAT     H236120   8.765   4.539   6.480
11960WAT      O36121   5.689   2.698   5.520
11960WAT     H136122   5.669   2.795   5.505
11960WAT     H236123   5.743   2.663   5.443
11961WAT      O36124   2.237   8.397   4.500
11961WAT     H136125   2.174   8.362   4.431
11961WAT     H236126   2.261   8.324   4.564
11962WAT      O36127   5.249   3.943   6.067
11962WAT     H136128   5.291   3.931   6.157
11962WAT     H236129   5.301   4.012   6.015
11963WAT      O36130   5.715   0.885   7.640
11963WAT     H136131   5.653   0.847   7.708
11963WAT     H236132   5.800   0.831   7.639
11964WAT      O36133   6.558   1.452   0.224
11964WAT     H136134   6.501   1.370   0.220
11964WAT     H236135   6.603   1.457   0.313
11965WAT      O36136   4.220   4.638   2.118
11965WAT     H136137   4.292   4.569   2.129
11965WAT     H236138   4.222   4.701   2.196
11966WAT      O36139   9.202   2.972   9.071
11966WAT     H136140   9.209   2.924   9.158
11966WAT     H236141   9.107   2.973   9.041
11967WAT      O36142   2.526   7.137   6.819
11967WAT     H136143   2.608   7.162   6.871
11967WAT     H236144   2.482   7.058   6.862
11968WAT      O36145   6.085   1.089   0.975
11968WAT     H136146   6.177   1.126   0.988
11968WAT     H236147   6.017   1.157   1.004
11969WAT      O36148   1.215   7.948   8.929
11969WAT     H136149   1.266   7.924   8.847
11969WAT     H236150   1.126   7.902   8.928
11970WAT      O36151   4.202   1.597   5.445
11970WAT     H136152   4.122   1.647   5.412
11970WAT     H236153   4.267   1.661   5.486
11971WAT      O36154   0.391   0.347   2.729
11971WAT     H136155   0.449   0.315   2.804
11971WAT     H236156   0.392   0.447   2.726
11972WAT      O36157   2.688   7.431   6.613
11972WAT     H136158   2.739   7.360   6.662
11972WAT     H236159   2.631   7.388   6.542
11973WAT      O36160   8.988   9.413   5.404
11973WAT     H136161   8.975   9.344   5.474
11973WAT     H236162   8.925   9.489   5.420
11974WAT      O36163   8.388   2.042   4.114
11974WAT     H136164   8.303   2.063   4.067
11974WAT     H236165   8.463   2.095   4.073
11975WAT      O36166   0.950   5.633   7.914
11975WAT     H136167   0.900   5.660   7.832
11975WAT     H236168   0.987   5.715   7.959
11976WAT      O36169   5.857   2.588   2.713
11976WAT     H136170   5.788   2.635   2.767
11976WAT     H236171   5.876   2.499   2.754
11977WAT      O36172   2.390   0.427   1.603
11977WAT     H136173   2.420   0.480   1.683
11977WAT     H236174   2.291   0.419   1.604
11978WAT      O36175   6.403   2.454   6.612
11978WAT     H136176   6.383   2.516   6.536
11978WAT     H236177   6.476   2.493   6.669
11979WAT      O36178   3.506   4.302   1.065
11979WAT     H136179   3.563   4.277   0.987
11979WAT     H236180   3.531   4.393   1.098
11980WAT      O36181   4.009   1.416   0.053
11980WAT     H136182   3.926   1.383   0.008
11980WAT     H236183   4.089   1.374   0.010
11981WAT      O36184   7.568   3.242   3.487
11981WAT     H136185   7.529   3.263   3.577
11981WAT     H236186   7.667   3.234   3.494
11982WAT      O36187   5.993   2.030   9.807
11982WAT     H136188   5.967   2.012   9.902
11982WAT     H236189   6.092   2.044   9.801
11983WAT      O36190   6.692   4.153   7.660
11983WAT     H136191   6.735   4.162   7.570
11983WAT     H236192   6.702   4.060   7.693
11984WAT      O36193   2.181   2.534   0.263
11984WAT     H136194   2.156   2.470   0.336
11984WAT     H236195   2.113   2.529   0.190
11985WAT      O36196   0.625   9.146   8.908
11985WAT     H136197   0.566   9.166   8.987
11985WAT     H236198   0.604   9.054   8.873
11986WAT      O36199   1.268   3.979   7.669
11986WAT     H136200   1.265   4.078   7.686
11986WAT     H236201   1.309   3.932   7.747
11987WAT      O36202   4.019   8.842   7.097
11987WAT     H136203   3.964   8.917   7.132
11987WAT     H236204   3.983   8.755   7.131
11988WAT      O36205   5.008   1.900   7.341
11988WAT     H136206   4.991   1.989   7.298
11988WAT     H236207   5.022   1.913   7.439
11989WAT      O36208   5.268   7.769   1.696
11989WAT     H136209   5.283   7.776   1.795
11989WAT     H236210   5.223   7.682   1.676
11990WAT      O36211   2.491   1.281   0.823
11990WAT     H136212   2.554   1.271   0.746
11990WAT     H236213   2.502   1.371   0.864
11991WAT      O36214   2.568   0.239   2.738
11991WAT     H136215   2.519   0.255   2.824
11991WAT     H236216   2.574   0.141   2.722
11992WAT      O36217   2.797   9.782   3.610
11992WAT     H136218   2.773   9.694   3.569
11992WAT     H236219   2.890   9.808   3.582
11993WAT      O36220   8.791   7.166   1.709
11993WAT     H136221   8.693   7.157   1.724
11993WAT     H236222   8.823   7.090   1.652
11994WAT      O36223   8.350   3.603   5.157
11994WAT     H136224   8.378   3.519   5.111
11994WAT     H236225   8.266   3.586   5.208
11995WAT      O36226   5.969   6.440   0.134
11995WAT     H136227   5.973   6.439   0.034
11995WAT     H236228   6.004   6.527   0.168
11996WAT      O36229   2.733   3.682   8.808
11996WAT     H136230   2.672   3.686   8.729
11996WAT     H236231   2.719   3.596   8.857
11997WAT      O36232   0.523   9.372   4.472
11997WAT     H136233   0.608   9.353   4.522
11997WAT     H236234   0.445   9.336   4.523
11998WAT      O36235   3.281   3.295   2.277
11998WAT     H136236   3.304   3.224   2.211
11998WAT     H236237   3.364   3.340   2.309
11999WAT      O36238   5.143   1.650   3.419
11999WAT     H136239   5.142   1.573   3.355
11999WAT     H236240   5.067   1.642   3.482
12000WAT      O36241   6.128   9.840   5.120
12000WAT     H136242   6.099   9.758   5.170
12000WAT     H236243   6.173   9.813   5.035
12001WAT      O36244   6.185   9.354   2.632
12001WAT     H136245   6.199   9.414   2.553
12001WAT     H236246   6.127   9.277   2.605
12002WAT      O36247   5.680   5.426   6.816
12002WAT     H136248   5.595   5.398   6.771
12002WAT     H236249   5.662   5.504   6.876
12003WAT      O36250   4.543   2.104   2.855
12003WAT     H136251   4.534   2.123   2.758
12003WAT     H236252   4.621   2.155   2.892
12004WAT      O36253   9.851   5.131   8.008
12004WAT     H136254   9.925   5.088   7.956
12004WAT     H236255   9.838   5.225   7.975
12005WAT      O36256   8.664   0.481   1.817
12005WAT     H136257   8.706   0.513   1.733
12005WAT     H236258   8.580   0.430   1.796
12006WAT      O36259   8.897   3.548   5.689
12006WAT     H136260   8.906   3.486   5.611
12006WAT     H236261   8.832   3.510   5.755
12007WAT      O36262   0.265   6.389   4.624
12007WAT     H136263   0.238   6.367   4.718
12007WAT     H236264   0.199   6.350   4.560
12008WAT      O36265   0.238   9.115   7.694
12008WAT     H136266   0.335   9.139   7.691
12008WAT     H236267   0.183   9.195   7.671
12009WAT      O36268   7.888   6.150   3.098
12009WAT     H136269   7.915   6.212   3.172
12009WAT     H236270   7.825   6.081   3.133
12010WAT      O36271   8.494   8.096   5.908
12010WAT     H136272   8.589   8.122   5.920
12010WAT     H236273   8.448   8.095   5.996
12011WAT      O36274   3.523   8.332   9.819
12011WAT     H136275   3.607   8.370   9.780
12011WAT     H236276   3.539   8.239   9.851
12012WAT      O36277   2.715   3.580   3.407
12012WAT     H136278   2.798   3.635   3.409
12012WAT     H236279   2.738   3.486   3.382
12013WAT      O36280   8.359   7.750   7.117
12013WAT     H136281   8.428   7.700   7.065
12013WAT     H236282   8.270   7.705   7.106
12014WAT      O36283   8.275   3.354   3.187
12014WAT     H136284   8.212   3.301   3.131
12014WAT     H236285   8.224   3.399   3.261
12015WAT      O36286   7.129   2.884   2.082
12015WAT     H136287   7.223   2.871   2.051
12015WAT     H236288   7.071   2.907   2.004
12016WAT      O36289   0.805   3.400   2.149
12016WAT     H136290   0.743   3.346   2.207
12016WAT     H236291   0.752   3.461   2.091
12017WAT      O36292   5.865   2.469   1.016
12017WAT     H136293   5.924   2.394   0.984
12017WAT     H236294   5.776   2.432   1.042
12018WAT      O36295   5.206   5.625   0.772
12018WAT     H136296   5.205   5.525   0.760
12018WAT     H236297   5.136   5.666   0.713
12019WAT      O36298   3.595   3.934   8.909
12019WAT     H136299   3.560   3.973   8.994
12019WAT     H236300   3.694   3.949   8.903
12020WAT      O36301   4.605   9.715   3.587
12020WAT     H136302   4.533   9.715   3.517
12020WAT     H236303   4.689   9.677   3.548
12021WAT      O36304   9.770   3.038   7.599
12021WAT     H136305   9.774   3.137   7.604
12021WAT     H236306   9.739   3.001   7.687
12022WAT      O36307   0.476   9.645   4.316
12022WAT     H136308   0.403   9.677   4.377
12022WAT     H236309   0.449   9.557   4.276
12023WAT      O36310   2.663   2.661   7.673
12023WAT     H136311   2.585   2.690   7.729
12023WAT     H236312   2.629   2.612   7.593
12024WAT      O36313   0.304   4.321   9.094
12024WAT     H136314   0.230   4.384   9.070
12024WAT     H236315   0.329   4.266   9.014
12025WAT      O36316   6.691   8.875   3.383
12025WAT     H136317   6.776   8.838   3.420
12025WAT     H236318   6.710   8.917   3.294
12026WAT      O36319   1.853   1.610   4.093
12026WAT     H136320   1.838   1.537   4.026
12026WAT     H236321   1.932   1.586   4.151
12027WAT      O36322   8.573   3.411   9.334
12027WAT     H136323   8.599   3.335   9.394
12027WAT     H236324   8.550   3.490   9.389
12028WAT      O36325   4.505   6.817   3.464
12028WAT     H136326   4.485   6.830   3.561
12028WAT     H236327   4.579   6.752   3.453
12029WAT      O36328   5.906   4.222   7.006
12029WAT     H136329   5.857   4.309   7.005
12029WAT     H236330   5.855   4.155   7.060
12030WAT      O36331   7.446   1.353   9.753
12030WAT     H136332   7.450   1.453   9.754
12030WAT     H236333   7.530   1.317   9.711
12031WAT      O36334   1.697   6.755   5.356
12031WAT     H136335   1.621   6.740   5.419
12031WAT     H236336   1.688   6.845   5.312
12032WAT      O36337   4.138   0.325   3.003
12032WAT     H136338   4.202   0.329   3.080
12032WAT     H236339   4.183   0.361   2.921
12033WAT      O36340   9.303   6.429   0.668
12033WAT     H136341   9.399   6.440   0.646
12033WAT     H236342   9.247   6.460   0.592
12034WAT      O36343   2.564   6.354   2.322
12034WAT     H136344   2.589   6.450   2.311
12034WAT     H236345   2.491   6.330   2.259
12035WAT      O36346   6.466   7.099   0.921
12035WAT     H136347   6.436   7.179   0.869
12035WAT     H236348   6.399   7.025   0.910
12036WAT      O36349   0.298   2.171   1.394
12036WAT     H136350   0.350   2.236   1.339
12036WAT     H236351   0.327   2.078   1.372
12037WAT      O36352   4.000   8.123   0.451
12037WAT     H136353   4.051   8.049   0.495
12037WAT     H236354   4.049   8.209   0.463
12038WAT      O36355   5.198   3.423   5.936
12038WAT     H136356   5.176   3.488   6.010
12038WAT     H236357   5.114   3.398   5.889
12039WAT      O36358   2.656   7.525   1.065
12039WAT     H136359   2.748   7.537   1.101
12039WAT     H236360   2.630   7.605   1.011
12040WAT      O36361   0.050   8.341   6.367
12040WAT     H136362   0.050   8.431   6.324
12040WAT     H236363  -0.003   8.344   6.452
12041WAT      O36364   5.676   0.650   2.094
12041WAT     H136365   5.641   0.645   2.000
12041WAT     H236366   5.599   0.648   2.158
12042WAT      O36367   8.243   3.151   0.581
12042WAT     H136368   8.297   3.200   0.650
12042WAT     H236369   8.196   3.075   0.624
12043WAT      O36370   6.978   4.080   5.779
12043WAT     H136371   7.049   4.069   5.709
12043WAT     H236372   7.014   4.136   5.854
12044WAT      O36373   3.644   5.403   9.655
12044WAT     H136374   3.621   5.306   9.656
12044WAT     H236375   3.743   5.414   9.662
12045WAT      O36376   2.017   2.787   3.283
12045WAT     H136377   2.116   2.773   3.280
12045WAT     H236378   1.997   2.883   3.298
12046WAT      O36379   9.665   1.684   2.317
12046WAT     H136380   9.723   1.603   2.325
12046WAT     H236381   9.570   1.658   2.329
12047WAT      O36382   1.550   1.193   8.035
12047WAT     H136383   1.499   1.135   8.099
12047WAT     H236384   1.516   1.287   8.042
12048WAT      O36385   3.886   6.938   8.215
12048WAT     H136386   3.900   6.931   8.313
12048WAT     H236387   3.787   6.940   8.195
12049WAT      O36388   5.709   7.559   5.179
12049WAT     H136389   5.806   7.574   5.199
12049WAT     H236390   5.662   7.528   5.261
12050WAT      O36391   3.566   6.083   9.379
12050WAT     H136392   3.474   6.043   9.371
12050WAT     H236393   3.586   6.102   9.475
12051WAT      O36394   8.358   1.148   7.816
12051WAT     H136395   8.372   1.096   7.901
12051WAT     H236396   8.434   1.212   7.804
12052WAT      O36397   6.573   0.079   8.490
12052WAT     H136398   6.552   0.159   8.546
12052WAT     H236399   6.632   0.017   8.542
12053WAT      O36400   2.082   1.998   5.541
12053WAT     H136401   2.009   1.997   5.609
12053WAT     H236402   2.049   1.956   5.456
12054WAT      O36403   1.691   7.435   7.774
12054WAT     H136404   1.616   7.488   7.735
12054WAT     H236405   1.778   7.468   7.737
12055WAT      O36406   9.222   8.848   2.958
12055WAT     H136407   9.287   8.801   2.899
12055WAT     H236408   9.216   8.801   3.046
12056WAT      O36409   8.703   4.595   0.339
12056WAT     H136410   8.611   4.575   0.306
12056WAT     H236411   8.755   4.642   0.268
12057WAT      O36412   5.290   0.954   9.161
12057WAT     H136413   5.304   0.990   9.253
12057WAT     H236414   5.223   0.880   9.163
12058WAT      O36415   0.662   2.884   2.505
12058WAT     H136416   0.748   2.904   2.551
12058WAT     H236417   0.586   2.902   2.568
12059WAT      O36418   5.443   6.069   2.236
12059WAT     H136419   5.369   6.119   2.191
12059WAT     H236420   5.403   6.009   2.306
12060WAT      O36421   5.364   8.955   3.356
12060WAT     H136422   5.377   8.856   3.345
12060WAT     H236423   5.444   9.003   3.322
12061WAT      O36424   3.681   2.295   6.183
12061WAT     H136425   3.718   2.282   6.275
12061WAT     H236426   3.709   2.385   6.148
12062WAT      O36427   9.672   4.423   9.365
12062WAT     H136428   9.711   4.348   9.418
12062WAT     H236429   9.630   4.489   9.428
12063WAT      O36430   3.450   5.614   3.360
12063WAT     H136431   3.498   5.693   3.399
12063WAT     H236432   3.471   5.532   3.413
12064WAT      O36433   4.488   4.628   0.799
12064WAT     H136434   4.582   4.630   0.831
12064WAT     H236435   4.426   4.638   0.876
12065WAT      O36436   4.138   5.064   7.119
12065WAT     H136437   4.201   5.053   7.196
12065WAT     H236438   4.147   4.987   7.057
12066WAT      O36439   8.023   0.395   5.935
12066WAT     H136440   8.042   0.299   5.916
12066WAT     H236441   7.977   0.403   6.024
12067WAT      O36442   4.358   6.324   2.284
12067WAT     H136443   4.308   6.362   2.362
12067WAT     H236444   4.419   6.394   2.246
12068WAT      O36445   9.441   7.143   1.574
12068WAT     H136446   9.429   7.178   1.667
12068WAT     H236447   9.365   7.081   1.551
12069WAT      O36448   4.459   1.851   3.677
12069WAT     H136449   4.523   1.904   3.732
12069WAT     H236450   4.501   1.829   3.589
12070WAT      O36451   9.139   3.330   6.872
12070WAT     H136452   9.212   3.336   6.941
12070WAT     H236453   9.111   3.234   6.862
12071WAT      O36454   2.854   7.345   4.698
12071WAT     H136455   2.816   7.434   4.720
12071WAT     H236456   2.782   7.286   4.662
12072WAT      O36457   1.581   2.980   2.663
12072WAT     H136458   1.590   2.929   2.577
12072WAT     H236459   1.604   3.076   2.647
12073WAT      O36460   0.110   8.768   5.042
12073WAT     H136461   0.060   8.685   5.065
12073WAT     H236462   0.156   8.804   5.123
12074WAT      O36463   2.284   1.874   2.938
12074WAT     H136464   2.229   1.791   2.928
12074WAT     H236465   2.379   1.854   2.914
12075WAT      O36466   1.398   9.048   8.841
12075WAT     H136467   1.386   9.139   8.800
12075WAT     H236468   1.360   8.979   8.779
12076WAT      O36469   9.350   8.253   4.191
12076WAT     H136470   9.333   8.312   4.270
12076WAT     H236471   9.266   8.246   4.137
12077WAT      O36472   0.083   7.548   6.680
12077WAT     H136473   0.095   7.625   6.742
12077WAT     H236474   0.154   7.550   6.609
12078WAT      O36475   0.231   3.806   6.489
12078WAT     H136476   0.284   3.724   6.512
12078WAT     H236477   0.280   3.858   6.419
12079WAT      O36478   8.920   3.790   9.718
12079WAT     H136479   8.927   3.728   9.640
12079WAT     H236480   8.871   3.743   9.792
12080WAT      O36481   6.164   3.814   5.819
12080WAT     H136482   6.218   3.871   5.758
12080WAT     H236483   6.132   3.733   5.770
12081WAT      O36484   7.454   3.513   0.589
12081WAT     H136485   7.466   3.417   0.563
12081WAT     H236486   7.397   3.559   0.521
12082WAT      O36487   9.672   7.678   6.155
12082WAT     H136488   9.603   7.675   6.227
12082WAT     H236489   9.630   7.653   6.067
12083WAT      O36490   5.702   2.094   0.866
12083WAT     H136491   5.753   2.130   0.788
12083WAT     H236492   5.635   2.161   0.897
12084WAT      O36493   7.415   7.684   9.176
12084WAT     H136494   7.457   7.736   9.250
12084WAT     H236495   7.327   7.725   9.152
12085WAT      O36496   7.784   5.539   8.713
12085WAT     H136497   7.873   5.555   8.670
12085WAT     H236498   7.712   5.547   8.645
12086WAT      O36499   8.257   0.843   5.356
12086WAT     H136500   8.262   0.799   5.446
12086WAT     H236501   8.326   0.915   5.350
12087WAT      O36502   3.550   6.586   3.871
12087WAT     H136503   3.631   6.645   3.872
12087WAT     H236504   3.473   6.637   3.834
12088WAT      O36505   3.482   2.265   2.636
12088WAT     H136506   3.581   2.255   2.626
12088WAT     H236507   3.461   2.361   2.655
12089WAT      O36508   7.820   0.660   2.027
12089WAT     H136509   7.817   0.720   2.106
12089WAT     H236510   7.727   0.646   1.992
12090WAT      O36511   6.716   7.339   9.691
12090WAT     H136512   6.726   7.245   9.657
12090WAT     H236513   6.778   7.352   9.769
12091WAT      O36514   7.158   2.502   5.050
12091WAT     H136515   7.143   2.563   4.972
12091WAT     H236516   7.097   2.423   5.044
12092WAT      O36517   3.654   6.310   5.459
12092WAT     H136518   3.569   6.258   5.456
12092WAT     H236519   3.661   6.367   5.377
12093WAT      O36520   1.859   1.998   6.679
12093WAT     H136521   1.791   1.926   6.692
12093WAT     H236522   1.936   1.983   6.741
12094WAT      O36523   0.201   3.538   9.833
12094WAT     H136524   0.202   3.479   9.913
12094WAT     H236525   0.215   3.633   9.861
12095WAT      O36526   1.107   4.228   3.349
12095WAT     H136527   1.191   4.218   3.296
12095WAT     H236528   1.073   4.138   3.376
12096WAT      O36529   3.027   0.304   0.974
12096WAT     H136530   2.976   0.357   0.906
12096WAT     H236531   3.006   0.338   1.066
12097WAT      O36532   5.432   6.377   6.458
12097WAT     H136533   5.376   6.333   6.529
12097WAT     H236534   5.466   6.308   6.395
12098WAT      O36535   2.312   7.327   4.405
12098WAT     H136536   2.396   7.291   4.366
12098WAT     H236537   2.331   7.415   4.449
12099WAT      O36538   3.581   0.007   7.676
12099WAT     H136539   3.653   0.002   7.607
12099WAT     H236540   3.580  -0.078   7.729
12100WAT      O36541   1.038   4.824   7.300
12100WAT     H136542   1.078   4.749   7.248
12100WAT     H236543   1.091   4.907   7.284
12101WAT      O36544   7.311   9.169   1.184
12101WAT     H136545   7.370   9.233   1.234
12101WAT     H236546   7.341   9.164   1.089
12102WAT      O36547   9.344   4.138   5.943
12102WAT     H136548   9.280   4.178   6.008
12102WAT     H236549   9.332   4.183   5.854
12103WAT      O36550   4.202   3.422   0.570
12103WAT     H136551   4.161   3.332   0.555
12103WAT     H236552   4.146   3.492   0.527
12104WAT      O36553   7.989   3.495   3.641
12104WAT     H136554   7.946   3.515   3.729
12104WAT     H236555   8.068   3.436   3.655
12105WAT      O36556   8.609   5.264   3.190
12105WAT     H136557   8.596   5.166   3.201
12105WAT     H236558   8.533   5.302   3.138
12106WAT      O36559   7.010   7.541   9.724
12106WAT     H136560   6.950   7.501   9.655
12106WAT     H236561   7.063   7.470   9.769
12107WAT      O36562   6.578   3.179   3.141
12107WAT     H136563   6.653   3.183   3.074
12107WAT     H236564   6.560   3.084   3.165
12108WAT      O36565   9.144   4.425   2.419
12108WAT     H136566   9.205   4.454   2.344
12108WAT     H236567   9.152   4.490   2.494
12109WAT      O36568   7.771   4.430   5.116
12109WAT     H136569   7.865   4.461   5.100
12109WAT     H236570   7.735   4.473   5.198
12110WAT      O36571   8.007   3.942   8.634
12110WAT     H136572   7.972   3.873   8.570
12110WAT     H236573   8.056   4.012   8.583
12111WAT      O36574   1.444   7.211   7.841
12111WAT     H136575   1.428   7.130   7.785
12111WAT     H236576   1.461   7.289   7.782
12112WAT      O36577   3.512   2.515   4.789
12112WAT     H136578   3.438   2.459   4.751
12112WAT     H236579   3.486   2.611   4.784
12113WAT      O36580   6.826   8.382   6.765
12113WAT     H136581   6.784   8.324   6.835
12113WAT     H236582   6.922   8.358   6.755
12114WAT      O36583   0.199   6.400   8.992
12114WAT     H136584   0.246   6.346   9.062
12114WAT     H236585   0.115   6.353   8.966
12115WAT      O36586   4.729   1.701   1.879
12115WAT     H136587   4.647   1.729   1.829
12115WAT     H236588   4.808   1.748   1.841
12116WAT      O36589   2.737   4.467   5.022
12116WAT     H136590   2.819   4.443   5.075
12116WAT     H236591   2.758   4.466   4.925
12117WAT      O36592   7.924   7.703   3.887
12117WAT     H136593   7.893   7.782   3.940
12117WAT     H236594   7.937   7.731   3.791
12118WAT      O36595   7.001   8.854   5.991
12118WAT     H136596   7.002   8.920   6.066
12118WAT     H236597   7.090   8.852   5.946
12119WAT      O36598   2.877   4.227   9.296
12119WAT     H136599   2.844   4.240   9.202
12119WAT     H236600   2.837   4.297   9.355
12120WAT      O36601   8.000   3.562   9.399
12120WAT     H136602   7.923   3.526   9.346
12120WAT     H236603   8.026   3.496   9.469
12121WAT      O36604   6.522   1.043   2.161
12121WAT     H136605   6.569   1.116   2.210
12121WAT     H236606   6.471   0.986   2.225
12122WAT      O36607   2.005   4.171   7.591
12122WAT     H136608   1.909   4.144   7.581
12122WAT     H236609   2.061   4.120   7.526
12123WAT      O36610   0.234   1.350   2.881
12123WAT     H136611   0.153   1.375   2.828
12123WAT     H236612   0.208   1.339   2.977
12124WAT      O36613   4.049   3.555   8.995
12124WAT     H136614   3.973   3.581   9.055
12124WAT     H236615   4.068   3.458   9.006
12125WAT      O36616   4.711   2.676   5.435
12125WAT     H136617   4.724   2.690   5.533
12125WAT     H236618   4.613   2.665   5.416
12126WAT      O36619   0.172   4.939   8.510
12126WAT     H136620   0.162   5.016   8.573
12126WAT     H236621   0.257   4.948   8.458
12127WAT      O36622   7.262   4.952   8.710
12127WAT     H136623   7.312   4.899   8.778
12127WAT     H236624   7.166   4.958   8.736
12128WAT      O36625   8.226   5.125   9.018
12128WAT     H136626   8.246   5.133   8.920
12128WAT     H236627   8.127   5.127   9.032
12129WAT      O36628   1.326   9.404   9.093
12129WAT     H136629   1.253   9.472   9.092
12129WAT     H236630   1.344   9.374   8.999
12130WAT      O36631   2.148   3.392   4.573
12130WAT     H136632   2.118   3.312   4.521
12130WAT     H236633   2.098   3.395   4.660
12131WAT      O36634   3.560   8.597   6.292
12131WAT     H136635   3.487   8.546   6.336
12131WAT     H236636   3.644   8.589   6.346
12132WAT      O36637   3.478   8.192   3.367
12132WAT     H136638   3.500   8.256   3.293
12132WAT     H236639   3.401   8.228   3.420
12133WAT      O36640   0.209   9.252   9.809
12133WAT     H136641   0.189   9.281   9.903
12133WAT     H236642   0.197   9.153   9.801
12134WAT      O36643   8.746   5.872   3.539
12134WAT     H136644   8.703   5.959   3.565
12134WAT     H236645   8.723   5.802   3.607
12135WAT      O36646   0.024   4.815   8.739
12135WAT     H136647   0.074   4.840   8.656
12135WAT     H236648  -0.044   4.745   8.717
12136WAT      O36649   8.961   6.501   6.620
12136WAT     H136650   8.980   6.589   6.575
12136WAT     H236651   8.884   6.511   6.682
12137WAT      O36652   0.127   6.164   4.081
12137WAT     H136653   0.063   6.111   4.137
12137WAT     H236654   0.220   6.146   4.112
12138WAT      O36655   0.619   4.019   8.670
12138WAT     H136656   0.669   3.933   8.670
12138WAT     H236657   0.599   4.047   8.764
12139WAT      O36658   2.133   6.132   5.804
12139WAT     H136659   2.214   6.190   5.799
12139WAT     H236660   2.151   6.044   5.759
12140WAT      O36661   8.319   3.170   9.512
12140WAT     H136662   8.410   3.212   9.508
12140WAT     H236663   8.309   3.123   9.600
12141WAT      O36664   8.452   0.172   3.025
12141WAT     H136665   8.456   0.108   3.102
12141WAT     H236666   8.506   0.253   3.047
12142WAT      O36667   8.387   2.128   0.843
12142WAT     H136668   8.433   2.213   0.821
12142WAT     H236669   8.447   2.071   0.901
12143WAT      O36670   3.344   1.829   1.061
12143WAT     H136671   3.393   1.755   1.015
12143WAT     H236672   3.283   1.791   1.130
12144WAT      O36673   9.845   0.443   2.804
12144WAT     H136674   9.752   0.461   2.836
12144WAT     H236675   9.843   0.377   2.729
12145WAT      O36676   7.421   6.680   7.964
12145WAT     H136677   7.470   6.696   7.878
12145WAT     H236678   7.389   6.586   7.967
12146WAT      O36679   3.797   0.639   6.721
12146WAT     H136680   3.749   0.594   6.646
12146WAT     H236681   3.733   0.654   6.797
12147WAT      O36682   3.783   6.186   0.282
12147WAT     H136683   3.754   6.097   0.317
12147WAT     H236684   3.704   6.248   0.278
12148WAT      O36685   2.506   4.349   9.526
12148WAT     H136686   2.458   4.306   9.450
12148WAT     H236687   2.561   4.280   9.574
12149WAT      O36688   4.646   9.239   5.043
12149WAT     H136689   4.628   9.226   5.140
12149WAT     H236690   4.642   9.150   4.996
12150WAT      O36691   4.550   8.171   5.540
12150WAT     H136692   4.523   8.196   5.633
12150WAT     H236693   4.498   8.090   5.511
12151WAT      O36694   5.134   1.704   8.815
12151WAT     H136695   5.053   1.650   8.835
12151WAT     H236696   5.123   1.748   8.726
12152WAT      O36697   9.078   2.430   2.257
12152WAT     H136698   9.176   2.444   2.244
12152WAT     H236699   9.029   2.454   2.173
12153WAT      O36700   0.733   0.603   4.230
12153WAT     H136701   0.637   0.601   4.199
12153WAT     H236702   0.757   0.696   4.257
12154WAT      O36703   4.272   9.186   9.488
12154WAT     H136704   4.338   9.220   9.555
12154WAT     H236705   4.258   9.255   9.417
12155WAT      O36706   9.060   0.712   2.144
12155WAT     H136707   9.046   0.655   2.225
12155WAT     H236708   9.075   0.807   2.173
12156WAT      O36709   1.136   4.685   8.524
12156WAT     H136710   1.177   4.594   8.516
12156WAT     H236711   1.077   4.687   8.605
12157WAT      O36712   6.338   9.115   4.595
12157WAT     H136713   6.277   9.036   4.597
12157WAT     H236714   6.427   9.090   4.633
12158WAT      O36715   5.555   0.992   8.095
12158WAT     H136716   5.594   0.963   8.182
12158WAT     H236717   5.493   0.921   8.061
12159WAT      O36718   7.928   6.640   1.388
12159WAT     H136719   7.940   6.595   1.476
12159WAT     H236720   7.997   6.712   1.378
12160WAT      O36721   7.607   5.196   4.930
12160WAT     H136722   7.525   5.167   4.881
12160WAT     H236723   7.673   5.121   4.932
12161WAT      O36724   2.615   6.628   5.458
12161WAT     H136725   2.652   6.707   5.507
12161WAT     H236726   2.589   6.557   5.523
12162WAT      O36727   0.603   0.676   3.388
12162WAT     H136728   0.700   0.652   3.391
12162WAT     H236729   0.547   0.593   3.398
12163WAT      O36730   4.036   1.900   5.007
12163WAT     H136731   4.008   1.991   5.035
12163WAT     H236732   3.974   1.832   5.047
12164WAT      O36733   4.908   4.649   5.880
12164WAT     H136734   4.845   4.683   5.810
12164WAT     H236735   4.989   4.611   5.836
12165WAT      O36736   1.231   5.419   6.705
12165WAT     H136737   1.273   5.457   6.622
12165WAT     H236738   1.285   5.445   6.785
12166WAT      O36739   3.646   0.502   1.767
12166WAT     H136740   3.645   0.455   1.855
12166WAT     H236741   3.552   0.525   1.740
12167WAT      O36742   7.629   6.914   3.065
12167WAT     H136743   7.559   6.847   3.089
12167WAT     H236744   7.609   7.001   3.111
12168WAT      O36745   0.635   6.202   9.576
12168WAT     H136746   0.675   6.154   9.655
12168WAT     H236747   0.536   6.184   9.574
12169WAT      O36748   1.447   0.814   3.497
12169WAT     H136749   1.499   0.747   3.549
12169WAT     H236750   1.507   0.888   3.467
12170WAT      O36751   1.442   7.191   2.510
12170WAT     H136752   1.494   7.272   2.482
12170WAT     H236753   1.472   7.112   2.457
12171WAT      O36754   3.798   1.390   2.796
12171WAT     H136755   3.819   1.386   2.699
12171WAT     H236756   3.729   1.320   2.818
12172WAT      O36757   7.763   6.425   5.439
12172WAT     H136758   7.681   6.376   5.472
12172WAT     H236759   7.812   6.462   5.518
12173WAT      O36760   0.206   8.682   7.159
12173WAT     H136761   0.295   8.683   7.204
12173WAT     H236762   0.216   8.708   7.063
12174WAT      O36763   3.534   6.060   4.686
12174WAT     H136764   3.623   6.089   4.653
12174WAT     H236765   3.481   6.021   4.611
12175WAT      O36766   4.669   7.050   3.513
12175WAT     H136767   4.698   7.118   3.446
12175WAT     H236768   4.620   6.977   3.466
12176WAT      O36769   2.110   2.699   0.469
12176WAT     H136770   2.129   2.662   0.378
12176WAT     H236771   2.144   2.793   0.475
12177WAT      O36772   0.720   8.220   5.237
12177WAT     H136773   0.760   8.228   5.145
12177WAT     H236774   0.665   8.301   5.257
12178WAT      O36775   8.130   5.406   3.098
12178WAT     H136776   8.038   5.413   3.059
12178WAT     H236777   8.135   5.327   3.158
12179WAT      O36778   8.283   9.275   5.039
12179WAT     H136779   8.287   9.302   5.135
12179WAT     H236780   8.241   9.185   5.031
12180WAT      O36781   0.067   6.094   8.355
12180WAT     H136782   0.158   6.083   8.396
12180WAT     H236783   0.027   6.181   8.384
12181WAT      O36784   3.277   7.447   1.959
12181WAT     H136785   3.341   7.373   1.934
12181WAT     H236786   3.329   7.529   1.980
12182WAT      O36787   3.557   7.227   7.837
12182WAT     H136788   3.469   7.272   7.821
12182WAT     H236789   3.545   7.128   7.826
12183WAT      O36790   8.057   5.475   6.772
12183WAT     H136791   8.116   5.553   6.789
12183WAT     H236792   8.061   5.412   6.849
12184WAT      O36793   8.430   6.487   4.566
12184WAT     H136794   8.482   6.428   4.626
12184WAT     H236795   8.411   6.439   4.480
12185WAT      O36796   4.059   0.017   0.254
12185WAT     H136797   4.120  -0.049   0.209
12185WAT     H236798   4.047  -0.008   0.350
12186WAT      O36799   2.533   8.510   7.415
12186WAT     H136800   2.484   8.423   7.410
12186WAT     H236801   2.536   8.541   7.510
12187WAT      O36802   8.089   5.808   3.017
12187WAT     H136803   8.041   5.731   2.974
12187WAT     H236804   8.188   5.791   3.014
12188WAT      O36805   1.769   4.020   5.684
12188WAT     H136806   1.677   4.054   5.665
12188WAT     H236807   1.834   4.095   5.675
12189WAT      O36808   7.622   4.790   8.117
12189WAT     H136809   7.673   4.812   8.200
12189WAT     H236810   7.686   4.776   8.041
12190WAT      O36811   1.411   4.309   9.870
12190WAT     H136812   1.359   4.271   9.793
12190WAT     H236813   1.372   4.277   9.956
12191WAT      O36814   8.131   2.085   4.930
12191WAT     H136815   8.085   2.161   4.883
12191WAT     H236816   8.217   2.065   4.883
12192WAT      O36817   9.450   2.790   7.722
12192WAT     H136818   9.433   2.839   7.807
12192WAT     H236819   9.411   2.841   7.645
12193WAT      O36820   1.697   0.385   2.717
12193WAT     H136821   1.616   0.365   2.662
12193WAT     H236822   1.728   0.302   2.764
12194WAT      O36823   3.608   0.693   8.418
12194WAT     H136824   3.704   0.669   8.405
12194WAT     H236825   3.574   0.741   8.337
12195WAT      O36826   3.924   8.685   4.079
12195WAT     H136827   3.870   8.688   3.996
12195WAT     H236828   4.011   8.639   4.061
12196WAT      O36829   7.751   4.668   2.603
12196WAT     H136830   7.701   4.754   2.602
12196WAT     H236831   7.832   4.677   2.661
12197WAT      O36832   2.800   5.180   9.105
12197WAT     H136833   2.830   5.215   9.193
12197WAT     H236834   2.841   5.090   9.089
12198WAT      O36835   3.342   0.483   0.792
12198WAT     H136836   3.243   0.494   0.795
12198WAT     H236837   3.385   0.574   0.793
12199WAT      O36838   3.994   8.438   7.564
12199WAT     H136839   4.079   8.386   7.563
12199WAT     H236840   3.981   8.482   7.476
12200WAT      O36841   0.564   3.333   6.005
12200WAT     H136842   0.533   3.428   6.001
12200WAT     H236843   0.487   3.271   5.992
12201WAT      O36844   1.897   4.767   3.410
12201WAT     H136845   1.833   4.740   3.482
12201WAT     H236846   1.989   4.738   3.435
12202WAT      O36847   4.271   3.695   5.998
12202WAT     H136848   4.309   3.732   5.914
12202WAT     H236849   4.252   3.769   6.062
12203WAT      O36850   3.370   2.677   2.166
12203WAT     H136851   3.377   2.760   2.110
12203WAT     H236852   3.295   2.687   2.232
12204WAT      O36853   3.236   3.899   1.746
12204WAT     H136854   3.278   3.940   1.827
12204WAT     H236855   3.204   3.807   1.768
12205WAT      O36856   3.539   4.176   3.815
12205WAT     H136857   3.533   4.104   3.885
12205WAT     H236858   3.468   4.160   3.745
12206WAT      O36859   4.117   3.163   0.313
12206WAT     H136860   4.201   3.175   0.366
12206WAT     H236861   4.134   3.188   0.217
12207WAT      O36862   0.479   1.282   6.174
12207WAT     H136863   0.382   1.257   6.176
12207WAT     H236864   0.531   1.213   6.124
12208WAT      O36865   5.693   5.990   5.410
12208WAT     H136866   5.605   5.959   5.375
12208WAT     H236867   5.711   5.948   5.499
12209WAT      O36868   0.628   6.164   2.500
12209WAT     H136869   0.640   6.251   2.452
12209WAT     H236870   0.705   6.104   2.480
12210WAT      O36871   8.969   0.887   6.958
12210WAT     H136872   9.061   0.925   6.955
12210WAT     H236873   8.960   0.817   6.887
12211WAT      O36874   4.832   1.098   6.498
12211WAT     H136875   4.835   1.154   6.581
12211WAT     H236876   4.777   1.146   6.429
12212WAT      O36877   8.355   3.894   0.376
12212WAT     H136878   8.350   3.940   0.465
12212WAT     H236879   8.266   3.857   0.352
12213WAT      O36880   4.968   1.710   1.130
12213WAT     H136881   4.980   1.661   1.216
12213WAT     H236882   5.053   1.705   1.077
12214WAT      O36883   5.511   6.141   7.029
12214WAT     H136884   5.499   6.226   7.081
12214WAT     H236885   5.491   6.157   6.933
12215WAT      O36886   0.805   5.538   0.376
12215WAT     H136887   0.790   5.440   0.390
12215WAT     H236888   0.901   5.554   0.353
12216WAT      O36889   6.252   5.730   6.553
12216WAT     H136890   6.266   5.697   6.646
12216WAT     H236891   6.328   5.698   6.495
12217WAT      O36892   8.606   7.350   1.553
12217WAT     H136893   8.697   7.356   1.595
12217WAT     H236894   8.578   7.254   1.548
12218WAT      O36895   1.712   4.180   7.784
12218WAT     H136896   1.635   4.145   7.732
12218WAT     H236897   1.788   4.114   7.780
12219WAT      O36898   6.480   4.352   4.090
12219WAT     H136899   6.417   4.423   4.058
12219WAT     H236900   6.559   4.349   4.029
12220WAT      O36901   6.034   6.868   2.296
12220WAT     H136902   5.996   6.959   2.308
12220WAT     H236903   5.960   6.803   2.276
12221WAT      O36904   7.139   1.302   4.523
12221WAT     H136905   7.042   1.299   4.549
12221WAT     H236906   7.191   1.353   4.592
12222WAT      O36907   6.108   7.220   5.920
12222WAT     H136908   6.025   7.258   5.961
12222WAT     H236909   6.143   7.146   5.977
12223WAT      O36910   1.995   8.652   4.758
12223WAT     H136911   1.911   8.693   4.723
12223WAT     H236912   2.061   8.644   4.683
12224WAT      O36913   7.432   2.439   1.192
12224WAT     H136914   7.473   2.476   1.109
12224WAT     H236915   7.452   2.341   1.198
12225WAT      O36916   0.009   7.699   8.489
12225WAT     H136917   0.083   7.760   8.461
12225WAT     H236918   0.030   7.606   8.461
12226WAT      O36919   2.198   6.838   9.759
12226WAT     H136920   2.166   6.922   9.803
12226WAT     H236921   2.161   6.759   9.807
12227WAT      O36922   1.770   1.251   5.334
12227WAT     H136923   1.802   1.332   5.285
12227WAT     H236924   1.683   1.221   5.297
12228WAT      O36925   7.251   2.078   0.669
12228WAT     H136926   7.262   1.997   0.728
12228WAT     H236927   7.254   2.161   0.724
12229WAT      O36928   9.150   3.869   8.471
12229WAT     H136929   9.197   3.813   8.540
12229WAT     H236930   9.159   3.966   8.495
12230WAT      O36931   4.687   2.734   8.642
12230WAT     H136932   4.682   2.675   8.562
12230WAT     H236933   4.608   2.795   8.644
12231WAT      O36934   5.349   1.916   6.897
12231WAT     H136935   5.410   1.978   6.945
12231WAT     H236936   5.286   1.874   6.962
12232WAT      O36937   5.729   5.032   5.119
12232WAT     H136938   5.760   5.127   5.107
12232WAT     H236939   5.658   5.011   5.052
12233WAT      O36940   6.566   0.808   5.230
12233WAT     H136941   6.492   0.845   5.173
12233WAT     H236942   6.652   0.853   5.205
12234WAT      O36943   5.653   1.496   3.398
12234WAT     H136944   5.648   1.571   3.332
12234WAT     H236945   5.641   1.531   3.490
12235WAT      O36946   3.009   6.751   5.149
12235WAT     H136947   2.970   6.799   5.228
12235WAT     H236948   3.043   6.817   5.083
12236WAT      O36949   7.010   7.898   2.762
12236WAT     H136950   6.971   7.954   2.689
12236WAT     H236951   7.080   7.838   2.723
12237WAT      O36952   2.878   1.528   6.797
12237WAT     H136953   2.868   1.448   6.857
12237WAT     H236954   2.828   1.606   6.837
12238WAT      O36955   4.280   0.812   1.875
12238WAT     H136956   4.238   0.822   1.784
12238WAT     H236957   4.219   0.849   1.944
12239WAT      O36958   9.401   8.225   6.636
12239WAT     H136959   9.385   8.283   6.716
12239WAT     H236960   9.444   8.140   6.666
12240WAT      O36961   4.854   1.073   4.880
12240WAT     H136962   4.856   1.173   4.872
12240WAT     H236963   4.763   1.040   4.854
12241WAT      O36964   5.240   4.639   7.277
12241WAT     H136965   5.204   4.547   7.292
12241WAT     H236966   5.326   4.650   7.327
12242WAT      O36967   1.836   9.632   3.820
12242WAT     H136968   1.912   9.696   3.834
12242WAT     H236969   1.836   9.564   3.894
12243WAT      O36970   0.040   1.223   7.043
12243WAT     H136971  -0.032   1.231   6.976
12243WAT     H236972   0.050   1.127   7.071
12244WAT      O36973   9.531   6.495   7.080
12244WAT     H136974   9.512   6.485   7.178
12244WAT     H236975   9.599   6.427   7.052
12245WAT      O36976   9.208   1.489   7.568
12245WAT     H136977   9.180   1.563   7.507
12245WAT     H236978   9.306   1.474   7.559
12246WAT      O36979   5.611   1.211   1.455
12246WAT     H136980   5.558   1.208   1.540
12246WAT     H236981   5.646   1.304   1.441
12247WAT      O36982   2.615   5.747   0.460
12247WAT     H136983   2.564   5.662   0.472
12247WAT     H236984   2.593   5.810   0.535
12248WAT      O36985   3.983   3.400   0.828
12248WAT     H136986   3.900   3.346   0.817
12248WAT     H236987   4.046   3.382   0.753
12249WAT      O36988   6.229   7.423   2.341
12249WAT     H136989   6.297   7.491   2.314
12249WAT     H236990   6.258   7.379   2.426
12250WAT      O36991   1.208   8.116   2.572
12250WAT     H136992   1.149   8.041   2.604
12250WAT     H236993   1.198   8.125   2.473
12251WAT      O36994   8.092   4.099   1.032
12251WAT     H136995   8.003   4.059   1.052
12251WAT     H236996   8.165   4.043   1.071
12252WAT      O36997   3.693   0.086   5.516
12252WAT     H136998   3.689   0.127   5.607
12252WAT     H236999   3.609   0.035   5.498
12253WAT      O37000   5.462   0.067   0.235
12253WAT     H137001   5.481   0.116   0.321
12253WAT     H237002   5.393   0.116   0.183
12254WAT      O37003   6.797   8.304   8.857
12254WAT     H137004   6.807   8.404   8.863
12254WAT     H237005   6.752   8.270   8.939
12255WAT      O37006   1.761   8.799   2.424
12255WAT     H137007   1.780   8.894   2.447
12255WAT     H237008   1.801   8.739   2.494
12256WAT      O37009   5.125   1.200   8.652
12256WAT     H137010   5.144   1.236   8.560
12256WAT     H237011   5.209   1.200   8.706
12257WAT      O37012   7.065   4.499   2.021
12257WAT     H137013   7.027   4.514   1.930
12257WAT     H237014   7.088   4.402   2.033
12258WAT      O37015   7.571   9.603   9.529
12258WAT     H137016   7.506   9.677   9.547
12258WAT     H237017   7.533   9.543   9.459
12259WAT      O37018   3.151   6.566   5.989
12259WAT     H137019   3.086   6.615   6.048
12259WAT     H237020   3.166   6.618   5.905
12260WAT      O37021   0.603   3.524   1.675
12260WAT     H137022   0.614   3.620   1.653
12260WAT     H237023   0.612   3.469   1.592
12261WAT      O37024   3.307   7.172   9.533
12261WAT     H137025   3.310   7.146   9.437
12261WAT     H237026   3.222   7.139   9.574
12262WAT      O37027   3.814   5.892   7.215
12262WAT     H137028   3.747   5.824   7.244
12262WAT     H237029   3.835   5.879   7.118
12263WAT      O37030   9.767   6.253   7.582
12263WAT     H137031   9.683   6.205   7.606
12263WAT     H237032   9.846   6.200   7.613
12264WAT      O37033   1.442   0.759   2.950
12264WAT     H137034   1.355   0.798   2.980
12264WAT     H237035   1.437   0.659   2.955
12265WAT      O37036   2.737   4.285   6.387
12265WAT     H137037   2.724   4.318   6.480
12265WAT     H237038   2.829   4.308   6.356
12266WAT      O37039   9.124   1.235   4.130
12266WAT     H137040   9.040   1.250   4.079
12266WAT     H237041   9.104   1.182   4.213
12267WAT      O37042   8.452   3.651   8.867
12267WAT     H137043   8.368   3.705   8.876
12267WAT     H237044   8.468   3.600   8.952
12268WAT      O37045   0.583   8.885   8.316
12268WAT     H137046   0.628   8.823   8.380
12268WAT     H237047   0.539   8.959   8.365
12269WAT      O37048   0.763   8.530   3.573
12269WAT     H137049   0.840   8.471   3.595
12269WAT     H237050   0.716   8.496   3.491
12270WAT      O37051   7.171   3.626   7.139
12270WAT     H137052   7.097   3.650   7.076
12270WAT     H237053   7.255   3.610   7.087
12271WAT      O37054   5.259   7.074   2.777
12271WAT     H137055   5.270   7.157   2.832
12271WAT     H237056   5.247   7.099   2.681
12272WAT      O37057   1.169   4.993   2.356
12272WAT     H137058   1.138   4.945   2.274
12272WAT     H237059   1.094   5.046   2.394
12273WAT      O37060   0.212   8.870   2.851
12273WAT     H137061   0.212   8.855   2.753
12273WAT     H237062   0.233   8.784   2.899
12274WAT      O37063   1.253   8.468   4.185
12274WAT     H137064   1.249   8.432   4.092
12274WAT     H237065   1.274   8.394   4.249
12275WAT      O37066   8.811   6.876   6.467
12275WAT     H137067   8.719   6.892   6.432
12275WAT     H237068   8.857   6.963   6.482
12276WAT      O37069   1.037   9.484   6.130
12276WAT     H137070   1.101   9.561   6.135
12276WAT     H237071   0.963   9.507   6.067
12277WAT      O37072   6.478   4.336   1.255
12277WAT     H137073   6.422   4.325   1.173
12277WAT     H237074   6.567   4.295   1.241
12278WAT      O37075   7.130   1.499   8.882
12278WAT     H137076   7.077   1.485   8.799
12278WAT     H237077   7.084   1.566   8.940
12279WAT      O37078   2.784   6.326   7.478
12279WAT     H137079   2.784   6.324   7.378
12279WAT     H237080   2.691   6.314   7.512
12280WAT      O37081   9.500   2.484   1.472
12280WAT     H137082   9.475   2.581   1.469
12280WAT     H237083   9.432   2.435   1.527
12281WAT      O37084   1.225   7.755   6.571
12281WAT     H137085   1.270   7.844   6.571
12281WAT     H237086   1.175   7.742   6.485
12282WAT      O37087   5.432   2.470   0.407
12282WAT     H137088   5.334   2.481   0.386
12282WAT     H237089   5.471   2.559   0.430
12283WAT      O37090   4.083   9.059   4.818
12283WAT     H137091   3.998   9.111   4.824
12283WAT     H237092   4.074   8.973   4.868
12284WAT      O37093   0.396   3.989   9.309
12284WAT     H137094   0.302   3.993   9.276
12284WAT     H237095   0.398   3.996   9.408
12285WAT      O37096   6.932   1.625   0.271
12285WAT     H137097   6.843   1.631   0.316
12285WAT     H237098   6.994   1.693   0.311
12286WAT      O37099   8.531   7.466   5.479
12286WAT     H137100   8.609   7.485   5.540
12286WAT     H237101   8.452   7.440   5.534
12287WAT      O37102   2.996   6.256   6.536
12287WAT     H137103   2.922   6.320   6.518
12287WAT     H237104   3.021   6.259   6.632
12288WAT      O37105   6.716   3.978   8.421
12288WAT     H137106   6.634   3.986   8.365
12288WAT     H237107   6.751   3.885   8.416
12289WAT      O37108   0.525   3.018   6.676
12289WAT     H137109   0.499   2.997   6.771
12289WAT     H237110   0.616   2.980   6.658
12290WAT      O37111   3.548   6.898   8.971
12290WAT     H137112   3.505   6.867   9.056
12290WAT     H237113   3.624   6.837   8.948
12291WAT      O37114   8.703   6.879   3.463
12291WAT     H137115   8.651   6.804   3.504
12291WAT     H237116   8.690   6.962   3.518
12292WAT      O37117   3.721   5.886   9.105
12292WAT     H137118   3.758   5.879   9.012
12292WAT     H237119   3.652   5.958   9.107
12293WAT      O37120   4.865   9.221   4.783
12293WAT     H137121   4.814   9.163   4.720
12293WAT     H237122   4.865   9.180   4.874
12294WAT      O37123   8.090   7.657   3.451
12294WAT     H137124   8.098   7.655   3.351
12294WAT     H237125   8.077   7.751   3.482
12295WAT      O37126   5.337   2.218   6.233
12295WAT     H137127   5.384   2.131   6.248
12295WAT     H237128   5.375   2.287   6.295
12296WAT      O37129   5.298   3.130   2.188
12296WAT     H137130   5.221   3.149   2.249
12296WAT     H237131   5.379   3.177   2.221
12297WAT      O37132   5.486   8.236   3.057
12297WAT     H137133   5.573   8.202   3.022
12297WAT     H237134   5.450   8.173   3.125
12298WAT      O37135   8.989   2.356   9.294
12298WAT     H137136   8.913   2.350   9.229
12298WAT     H237137   8.953   2.352   9.387
12299WAT      O37138   5.563   1.403   8.146
12299WAT     H137139   5.510   1.324   8.176
12299WAT     H237140   5.501   1.480   8.130
12300WAT      O37141   2.675   3.918   7.957
12300WAT     H137142   2.677   3.978   8.037
12300WAT     H237143   2.719   3.964   7.880
12301WAT      O37144   4.371   0.299   0.697
12301WAT     H137145   4.462   0.341   0.690
12301WAT     H237146   4.381   0.200   0.705
12302WAT      O37147   1.656   7.038   1.366
12302WAT     H137148   1.570   7.064   1.322
12302WAT     H237149   1.732   7.065   1.308
12303WAT      O37150   1.745   3.754   2.837
12303WAT     H137151   1.781   3.694   2.908
12303WAT     H237152   1.817   3.815   2.804
12304WAT      O37153   1.448   1.827   7.877
12304WAT     H137154   1.459   1.773   7.961
12304WAT     H237155   1.409   1.916   7.899
12305WAT      O37156   7.873   6.294   0.447
12305WAT     H137157   7.827   6.378   0.417
12305WAT     H237158   7.821   6.252   0.521
12306WAT      O37159   6.272   3.071   6.731
12306WAT     H137160   6.341   3.140   6.754
12306WAT     H237161   6.243   3.083   6.637
12307WAT      O37162   2.493   6.529   0.904
12307WAT     H137163   2.534   6.439   0.894
12307WAT     H237164   2.538   6.594   0.843
12308WAT      O37165   9.062   3.749   1.577
12308WAT     H137166   9.065   3.824   1.643
12308WAT     H237167   9.123   3.675   1.607
12309WAT      O37168   4.715   6.123   8.095
12309WAT     H137169   4.691   6.103   8.000
12309WAT     H237170   4.755   6.041   8.137
12310WAT      O37171   6.378   6.776   4.240
12310WAT     H137172   6.327   6.840   4.297
12310WAT     H237173   6.476   6.798   4.244
12311WAT      O37174   1.929   9.567   7.683
12311WAT     H137175   1.934   9.641   7.616
12311WAT     H237176   2.016   9.518   7.685
12312WAT      O37177   2.514   0.861   4.021
12312WAT     H137178   2.440   0.876   3.955
12312WAT     H237179   2.577   0.938   4.018
12313WAT      O37180   8.732   5.196   4.772
12313WAT     H137181   8.711   5.269   4.707
12313WAT     H237182   8.826   5.207   4.805
12314WAT      O37183   3.729   0.178   8.298
12314WAT     H137184   3.725   0.198   8.200
12314WAT     H237185   3.791   0.102   8.314
12315WAT      O37186   2.138   5.232   3.727
12315WAT     H137187   2.115   5.184   3.643
12315WAT     H237188   2.232   5.265   3.723
12316WAT      O37189   8.797   7.274   0.825
12316WAT     H137190   8.862   7.210   0.784
12316WAT     H237191   8.728   7.299   0.758
12317WAT      O37192   5.215   2.138   5.742
12317WAT     H137193   5.302   2.123   5.695
12317WAT     H237194   5.159   2.056   5.735
12318WAT      O37195   7.296   1.221   1.253
12318WAT     H137196   7.329   1.274   1.332
12318WAT     H237197   7.358   1.236   1.175
12319WAT      O37198   5.876   4.493   4.797
12319WAT     H137199   5.920   4.472   4.884
12319WAT     H237200   5.777   4.487   4.807
12320WAT      O37201   6.283   5.703   3.746
12320WAT     H137202   6.242   5.692   3.656
12320WAT     H237203   6.223   5.662   3.815
12321WAT      O37204   5.892   7.288   1.036
12321WAT     H137205   5.972   7.239   1.002
12321WAT     H237206   5.858   7.244   1.119
12322WAT      O37207   4.001   2.860   6.902
12322WAT     H137208   4.011   2.857   7.001
12322WAT     H237209   4.089   2.882   6.860
12323WAT      O37210   4.191   7.303   7.246
12323WAT     H137211   4.132   7.339   7.318
12323WAT     H237212   4.206   7.374   7.177
12324WAT      O37213   1.297   3.997   5.073
12324WAT     H137214   1.313   4.023   5.168
12324WAT     H237215   1.208   4.032   5.043
12325WAT      O37216   9.042   5.446   2.251
12325WAT     H137217   8.980   5.403   2.318
12325WAT     H237218   9.045   5.390   2.169
12326WAT      O37219   8.308   6.920   9.129
12326WAT     H137220   8.377   6.991   9.114
12326WAT     H237221   8.229   6.937   9.069
12327WAT      O37222   9.466   5.402   5.837
12327WAT     H137223   9.565   5.392   5.844
12327WAT     H237224   9.442   5.500   5.840
12328WAT      O37225   2.328   7.088   3.902
12328WAT     H137226   2.382   7.063   3.982
12328WAT     H237227   2.328   7.187   3.892
12329WAT      O37228   3.824   2.852   4.745
12329WAT     H137229   3.835   2.860   4.844
12329WAT     H237230   3.744   2.905   4.716
12330WAT      O37231   3.942   9.479   4.503
12330WAT     H137232   3.876   9.519   4.440
12330WAT     H237233   3.998   9.412   4.455
12331WAT      O37234   7.851   2.049   7.955
12331WAT     H137235   7.832   2.127   7.895
12331WAT     H237236   7.770   2.029   8.011
12332WAT      O37237   5.065   2.165   6.319
12332WAT     H137238   4.998   2.238   6.303
12332WAT     H237239   5.154   2.192   6.281
12333WAT      O37240   1.679   6.381   3.058
12333WAT     H137241   1.639   6.405   2.970
12333WAT     H237242   1.739   6.302   3.048
12334WAT      O37243   1.623   6.504   3.818
12334WAT     H137244   1.686   6.541   3.749
12334WAT     H237245   1.550   6.453   3.772
12335WAT      O37246   2.677   8.031   7.111
12335WAT     H137247   2.690   8.126   7.081
12335WAT     H237248   2.649   7.975   7.033
12336WAT      O37249   9.663   2.271   0.259
12336WAT     H137250   9.615   2.279   0.171
12336WAT     H237251   9.631   2.342   0.321
12337WAT      O37252   6.937   0.391   0.032
12337WAT     H137253   6.960   0.294   0.033
12337WAT     H237254   7.011   0.442  -0.011
12338WAT      O37255   5.945   5.497   3.749
12338WAT     H137256   5.921   5.536   3.838
12338WAT     H237257   5.887   5.537   3.679
12339WAT      O37258   6.108   1.463   0.578
12339WAT     H137259   6.119   1.374   0.533
12339WAT     H237260   6.048   1.453   0.657
12340WAT      O37261   1.866   4.945   6.090
12340WAT     H137262   1.828   4.913   6.004
12340WAT     H237263   1.929   5.022   6.073
12341WAT      O37264   7.478   9.327   8.819
12341WAT     H137265   7.459   9.377   8.904
12341WAT     H237266   7.395   9.278   8.790
12342WAT      O37267   0.526   6.317   0.171
12342WAT     H137268   0.540   6.220   0.149
12342WAT     H237269   0.480   6.362   0.095
12343WAT      O37270   2.812   9.162   3.209
12343WAT     H137271   2.878   9.123   3.146
12343WAT     H237272   2.740   9.208   3.157
12344WAT      O37273   5.871   5.000   9.555
12344WAT     H137274   5.870   4.983   9.653
12344WAT     H237275   5.925   4.929   9.510
12345WAT      O37276   2.932   2.399   0.068
12345WAT     H137277   2.939   2.474   0.133
12345WAT     H237278   3.010   2.337   0.080
12346WAT      O37279   7.012   8.806   2.614
12346WAT     H137280   6.921   8.766   2.621
12346WAT     H237281   7.081   8.735   2.625
12347WAT      O37282   1.989   4.533   3.182
12347WAT     H137283   1.997   4.605   3.113
12347WAT     H237284   2.079   4.516   3.223
12348WAT      O37285   7.473   0.762   6.371
12348WAT     H137286   7.483   0.795   6.278
12348WAT     H237287   7.541   0.690   6.388
12349WAT      O37288   7.370   9.481   9.324
12349WAT     H137289   7.311   9.558   9.345
12349WAT     H237290   7.314   9.398   9.315
12350WAT      O37291   4.838   2.999   2.363
12350WAT     H137292   4.835   2.899   2.360
12350WAT     H237293   4.841   3.029   2.458
12351WAT      O37294   0.974   5.694   1.515
12351WAT     H137295   0.955   5.778   1.464
12351WAT     H237296   1.068   5.663   1.495
12352WAT      O37297   1.282   6.359   5.661
12352WAT     H137298   1.232   6.287   5.612
12352WAT     H237299   1.232   6.383   5.745
12353WAT      O37300   8.787   2.946   4.060
12353WAT     H137301   8.856   2.939   3.988
12353WAT     H237302   8.775   2.856   4.102
12354WAT      O37303   8.047   5.396   1.902
12354WAT     H137304   8.119   5.336   1.937
12354WAT     H237305   7.995   5.348   1.831
12355WAT      O37306   3.116   1.299   8.018
12355WAT     H137307   3.168   1.293   8.103
12355WAT     H237308   3.175   1.334   7.945
12356WAT      O37309   2.985   7.464   6.576
12356WAT     H137310   2.950   7.530   6.509
12356WAT     H237311   2.909   7.418   6.621
12357WAT      O37312   0.076   2.631   8.104
12357WAT     H137313  -0.013   2.657   8.068
12357WAT     H237314   0.127   2.580   8.035
12358WAT      O37315   7.378   4.105   0.314
12358WAT     H137316   7.290   4.119   0.359
12358WAT     H237317   7.453   4.122   0.378
12359WAT      O37318   7.663   3.702   9.477
12359WAT     H137319   7.699   3.794   9.491
12359WAT     H237320   7.690   3.644   9.554
12360WAT      O37321   5.655   6.532   6.555
12360WAT     H137322   5.564   6.527   6.514
12360WAT     H237323   5.717   6.468   6.509
12361WAT      O37324   2.486   3.427   9.030
12361WAT     H137325   2.429   3.441   8.949
12361WAT     H237326   2.451   3.481   9.106
12362WAT      O37327   8.712   1.401   8.531
12362WAT     H137328   8.771   1.473   8.567
12362WAT     H237329   8.646   1.373   8.601
12363WAT      O37330   3.625   4.006   1.029
12363WAT     H137331   3.578   4.031   0.945
12363WAT     H237332   3.658   4.088   1.075
12364WAT      O37333   4.532   7.070   4.396
12364WAT     H137334   4.473   7.146   4.423
12364WAT     H237335   4.587   7.041   4.474
12365WAT      O37336   1.782   8.898   7.084
12365WAT     H137337   1.790   8.959   7.005
12365WAT     H237338   1.868   8.898   7.135
12366WAT      O37339   1.258   8.862   0.335
12366WAT     H137340   1.236   8.949   0.378
12366WAT     H237341   1.202   8.789   0.376
12367WAT      O37342   8.723   4.795   3.811
12367WAT     H137343   8.810   4.796   3.761
12367WAT     H237344   8.668   4.874   3.784
12368WAT      O37345   1.904   5.885   2.575
12368WAT     H137346   1.877   5.873   2.479
12368WAT     H237347   1.869   5.808   2.629
12369WAT      O37348   3.435   4.719   4.455
12369WAT     H137349   3.441   4.668   4.540
12369WAT     H237350   3.407   4.813   4.474
12370WAT      O37351   2.162   0.919   5.795
12370WAT     H137352   2.096   0.905   5.869
12370WAT     H237353   2.114   0.952   5.713
12371WAT      O37354   4.547   1.385   8.161
12371WAT     H137355   4.605   1.305   8.175
12371WAT     H237356   4.452   1.357   8.151
12372WAT      O37357   9.456   4.802   2.213
12372WAT     H137358   9.529   4.818   2.280
12372WAT     H237359   9.480   4.848   2.127
12373WAT      O37360   5.909   3.668   1.581
12373WAT     H137361   5.983   3.701   1.522
12373WAT     H237362   5.930   3.689   1.676
12374WAT      O37363   4.373   8.865   9.172
12374WAT     H137364   4.310   8.926   9.221
12374WAT     H237365   4.343   8.770   9.184
12375WAT      O37366   0.692   3.782   5.899
12375WAT     H137367   0.768   3.728   5.861
12375WAT     H237368   0.726   3.842   5.971
12376WAT      O37369   0.291   0.455   7.716
12376WAT     H137370   0.197   0.438   7.686
12376WAT     H237371   0.293   0.536   7.774
12377WAT      O37372   2.782   8.250   0.047
12377WAT     H137373   2.753   8.156   0.032
12377WAT     H237374   2.825   8.286  -0.036
12378WAT      O37375   8.220   7.290   4.742
12378WAT     H137376   8.308   7.279   4.789
12378WAT     H237377   8.235   7.294   4.643
12379WAT      O37378   0.193   9.414   5.165
12379WAT     H137379   0.266   9.386   5.227
12379WAT     H237380   0.105   9.383   5.202
12380WAT      O37381   6.961   8.214   3.555
12380WAT     H137382   6.974   8.276   3.633
12380WAT     H237383   7.050   8.181   3.524
12381WAT      O37384   0.250   9.739   4.447
12381WAT     H137385   0.225   9.724   4.543
12381WAT     H237386   0.170   9.725   4.389
12382WAT      O37387   2.171   7.160   5.467
12382WAT     H137388   2.221   7.140   5.382
12382WAT     H237389   2.090   7.102   5.472
12383WAT      O37390   8.548   8.097   0.241
12383WAT     H137391   8.545   8.001   0.215
12383WAT     H237392   8.580   8.105   0.335
12384WAT      O37393   7.126   7.155   2.792
12384WAT     H137394   7.203   7.092   2.793
12384WAT     H237395   7.088   7.163   2.884
12385WAT      O37396   0.363   7.783   3.570
12385WAT     H137397   0.288   7.804   3.632
12385WAT     H237398   0.327   7.764   3.479
12386WAT      O37399   6.388   3.532   5.876
12386WAT     H137400   6.334   3.579   5.947
12386WAT     H237401   6.350   3.441   5.861
12387WAT      O37402   6.752   3.179   2.918
12387WAT     H137403   6.840   3.157   2.877
12387WAT     H237404   6.679   3.138   2.864
12388WAT      O37405   4.717   8.431   5.104
12388WAT     H137406   4.700   8.529   5.096
12388WAT     H237407   4.800   8.407   5.054
12389WAT      O37408   8.948   8.862   0.629
12389WAT     H137409   9.047   8.867   0.619
12389WAT     H237410   8.914   8.950   0.663
12390WAT      O37411   9.596   8.661   0.675
12390WAT     H137412   9.597   8.730   0.603
12390WAT     H237413   9.673   8.676   0.738
12391WAT      O37414   6.393   9.059   0.526
12391WAT     H137415   6.423   8.974   0.569
12391WAT     H237416   6.294   9.064   0.527
12392WAT      O37417   5.232   7.218   4.288
12392WAT     H137418   5.230   7.140   4.351
12392WAT     H237419   5.326   7.241   4.266
12393WAT      O37420   7.479   5.373   1.630
12393WAT     H137421   7.496   5.403   1.724
12393WAT     H237422   7.411   5.301   1.630
12394WAT      O37423   5.983   4.053   0.373
12394WAT     H137424   5.974   4.103   0.459
12394WAT     H237425   5.915   4.087   0.308
12395WAT      O37426   2.656   0.606   5.821
12395WAT     H137427   2.726   0.555   5.871
12395WAT     H237428   2.668   0.704   5.837
12396WAT      O37429   3.335   8.232   8.163
12396WAT     H137430   3.396   8.213   8.086
12396WAT     H237431   3.316   8.148   8.213
12397WAT      O37432   5.595   4.976   9.884
12397WAT     H137433   5.546   4.948   9.966
12397WAT     H237434   5.547   5.052   9.840
12398WAT      O37435   0.977   9.758   4.202
12398WAT     H137436   0.975   9.675   4.257
12398WAT     H237437   0.923   9.829   4.246
12399WAT      O37438   4.330   5.422   0.288
12399WAT     H137439   4.423   5.388   0.306
12399WAT     H237440   4.288   5.369   0.215
12400WAT      O37441   0.795   1.612   7.605
12400WAT     H137442   0.815   1.515   7.590
12400WAT     H237443   0.827   1.638   7.697
12401WAT      O37444   8.081   9.390   9.862
12401WAT     H137445   8.136   9.307   9.875
12401WAT     H237446   7.991   9.377   9.902
12402WAT      O37447   0.941   0.430   4.524
12402WAT     H137448   0.914   0.352   4.581
12402WAT     H237449   0.865   0.494   4.517
12403WAT      O37450   0.527   4.574   5.557
12403WAT     H137451   0.549   4.640   5.486
12403WAT     H237452   0.432   4.545   5.548
12404WAT      O37453   5.094   2.438   5.496
12404WAT     H137454   5.181   2.434   5.447
12404WAT     H237455   5.018   2.428   5.431
12405WAT      O37456   5.924   1.810   4.595
12405WAT     H137457   5.896   1.792   4.501
12405WAT     H237458   6.019   1.841   4.597
12406WAT      O37459   7.263   5.727   1.937
12406WAT     H137460   7.213   5.671   1.871
12406WAT     H237461   7.298   5.809   1.892
12407WAT      O37462   4.260   9.015   5.463
12407WAT     H137463   4.165   9.032   5.437
12407WAT     H237464   4.321   9.055   5.395
12408WAT      O37465   7.511   8.686   6.727
12408WAT     H137466   7.423   8.698   6.772
12408WAT     H237467   7.496   8.673   6.629
12409WAT      O37468   4.917   9.236   2.106
12409WAT     H137469   4.857   9.180   2.164
12409WAT     H237470   4.963   9.177   2.040
12410WAT      O37471   3.923   6.284   8.351
12410WAT     H137472   3.890   6.198   8.314
12410WAT     H237473   3.931   6.277   8.451
12411WAT      O37474   3.635   3.311   0.309
12411WAT     H137475   3.584   3.376   0.364
12411WAT     H237476   3.627   3.334   0.212
12412WAT      O37477   9.436   5.107   0.455
12412WAT     H137478   9.526   5.149   0.466
12412WAT     H237479   9.437   5.047   0.375
12413WAT      O37480   2.460   8.213   4.338
12413WAT     H137481   2.504   8.124   4.323
12413WAT     H237482   2.395   8.231   4.263
12414WAT      O37483   3.715   9.463   3.093
12414WAT     H137484   3.640   9.522   3.125
12414WAT     H237485   3.729   9.478   2.995
12415WAT      O37486   7.579   6.486   1.034
12415WAT     H137487   7.654   6.506   1.096
12415WAT     H237488   7.615   6.444   0.951
12416WAT      O37489   2.538   1.085   1.445
12416WAT     H137490   2.466   1.069   1.376
12416WAT     H237491   2.621   1.118   1.399
12417WAT      O37492   3.074   9.088   8.320
12417WAT     H137493   3.171   9.078   8.345
12417WAT     H237494   3.067   9.110   8.223
12418WAT      O37495   6.719   2.332   8.135
12418WAT     H137496   6.772   2.318   8.218
12418WAT     H237497   6.733   2.426   8.102
12419WAT      O37498   4.323   7.896   7.827
12419WAT     H137499   4.420   7.911   7.809
12419WAT     H237500   4.271   7.974   7.795
12420WAT      O37501   0.305   6.834   3.418
12420WAT     H137502   0.369   6.904   3.384
12420WAT     H237503   0.280   6.772   3.343
12421WAT      O37504   0.969   3.125   3.148
12421WAT     H137505   1.031   3.083   3.214
12421WAT     H237506   1.015   3.200   3.101
12422WAT      O37507   4.835   5.241   9.475
12422WAT     H137508   4.800   5.331   9.447
12422WAT     H237509   4.881   5.198   9.398
12423WAT      O37510   8.494   7.686   0.554
12423WAT     H137511   8.587   7.678   0.520
12423WAT     H237512   8.435   7.619   0.508
12424WAT      O37513   0.398   2.193   6.579
12424WAT     H137514   0.414   2.169   6.483
12424WAT     H237515   0.312   2.244   6.587
12425WAT      O37516   7.628   5.768   2.171
12425WAT     H137517   7.718   5.755   2.130
12425WAT     H237518   7.592   5.857   2.147
12426WAT      O37519   7.318   3.182   3.981
12426WAT     H137520   7.349   3.222   4.068
12426WAT     H237521   7.233   3.227   3.952
12427WAT      O37522   3.131   4.587   9.037
12427WAT     H137523   3.105   4.597   8.941
12427WAT     H237524   3.212   4.528   9.044
12428WAT      O37525   1.456   8.367   6.850
12428WAT     H137526   1.512   8.287   6.874
12428WAT     H237527   1.510   8.450   6.863
12429WAT      O37528   2.469   7.109   5.060
12429WAT     H137529   2.517   7.185   5.016
12429WAT     H237530   2.445   7.040   4.991
12430WAT      O37531   9.471   8.878   4.181
12430WAT     H137532   9.570   8.887   4.189
12430WAT     H237533   9.449   8.794   4.131
12431WAT      O37534   3.120   6.654   6.355
12431WAT     H137535   3.149   6.745   6.325
12431WAT     H237536   3.195   6.589   6.342
12432WAT      O37537   1.397   6.812   6.119
12432WAT     H137538   1.342   6.892   6.095
12432WAT     H237539   1.416   6.813   6.218
12433WAT      O37540   2.048   4.728   9.171
12433WAT     H137541   1.969   4.671   9.151
12433WAT     H237542   2.018   4.815   9.210
12434WAT      O37543   4.224   9.809   3.152
12434WAT     H137544   4.224   9.713   3.182
12434WAT     H237545   4.136   9.830   3.109
12435WAT      O37546   9.277   6.403   7.015
12435WAT     H137547   9.252   6.465   6.941
12435WAT     H237548   9.374   6.416   7.038
12436WAT      O37549   7.365   4.781   2.759
12436WAT     H137550   7.375   4.682   2.759
12436WAT     H237551   7.426   4.821   2.827
12437WAT      O37552   3.336   8.822   5.315
12437WAT     H137553   3.253   8.794   5.363
12437WAT     H237554   3.363   8.913   5.346
12438WAT      O37555   1.180   0.665   6.505
12438WAT     H137556   1.224   0.711   6.582
12438WAT     H237557   1.081   0.659   6.521
12439WAT      O37558   6.751   6.070   2.760
12439WAT     H137559   6.678   6.125   2.719
12439WAT     H237560   6.711   5.996   2.814
12440WAT      O37561   4.964   5.888   6.829
12440WAT     H137562   5.007   5.870   6.917
12440WAT     H237563   5.030   5.929   6.766
12441WAT      O37564   3.318   3.510   5.367
12441WAT     H137565   3.354   3.537   5.456
12441WAT     H237566   3.358   3.567   5.296
12442WAT      O37567   8.512   1.025   7.205
12442WAT     H137568   8.445   1.075   7.260
12442WAT     H237569   8.604   1.042   7.241
12443WAT      O37570   7.706   5.190   0.927
12443WAT     H137571   7.685   5.093   0.933
12443WAT     H237572   7.660   5.239   1.002
12444WAT      O37573   2.898   0.377   0.752
12444WAT     H137574   2.965   0.337   0.690
12444WAT     H237575   2.884   0.473   0.728
12445WAT      O37576   7.784   2.679   4.708
12445WAT     H137577   7.770   2.760   4.651
12445WAT     H237578   7.700   2.625   4.711
12446WAT      O37579   9.539   3.418   8.831
12446WAT     H137580   9.625   3.376   8.802
12446WAT     H237581   9.546   3.517   8.825
12447WAT      O37582   1.286   2.516   2.103
12447WAT     H137583   1.216   2.538   2.171
12447WAT     H237584   1.307   2.418   2.108
12448WAT      O37585   7.957   5.457   4.204
12448WAT     H137586   8.044   5.470   4.251
12448WAT     H237587   7.895   5.403   4.261
12449WAT      O37588   7.323   1.082   2.720
12449WAT     H137589   7.290   1.128   2.637
12449WAT     H237590   7.305   1.139   2.800
12450WAT      O37591   6.010   6.521   2.953
12450WAT     H137592   5.920   6.479   2.944
12450WAT     H237593   6.029   6.577   2.872
12451WAT      O37594   8.641   5.748   2.753
12451WAT     H137595   8.593   5.675   2.803
12451WAT     H237596   8.604   5.837   2.781
12452WAT      O37597   9.551   9.069   2.072
12452WAT     H137598   9.548   9.121   2.157
12452WAT     H237599   9.497   8.985   2.082
12453WAT      O37600   9.153   4.734   2.868
12453WAT     H137601   9.185   4.826   2.844
12453WAT     H237602   9.131   4.731   2.965
12454WAT      O37603   9.078   3.750   3.288
12454WAT     H137604   8.999   3.810   3.274
12454WAT     H237605   9.048   3.665   3.330
12455WAT      O37606   2.607   2.615   8.184
12455WAT     H137607   2.538   2.546   8.205
12455WAT     H237608   2.619   2.622   8.085
12456WAT      O37609   3.876   7.161   1.785
12456WAT     H137610   3.841   7.243   1.740
12456WAT     H237611   3.806   7.090   1.784
12457WAT      O37612   5.790   2.383   8.614
12457WAT     H137613   5.767   2.447   8.688
12457WAT     H237614   5.836   2.303   8.651
12458WAT      O37615   0.809   2.598   1.376
12458WAT     H137616   0.789   2.685   1.331
12458WAT     H237617   0.908   2.585   1.380
12459WAT      O37618   4.931   4.208   5.846
12459WAT     H137619   4.851   4.269   5.841
12459WAT     H237620   4.961   4.202   5.941
12460WAT      O37621   8.470   9.512   2.255
12460WAT     H137622   8.561   9.541   2.288
12460WAT     H237623   8.464   9.412   2.260
12461WAT      O37624   4.628   8.956   9.146
12461WAT     H137625   4.657   8.888   9.079
12461WAT     H237626   4.533   8.939   9.171
12462WAT      O37627   2.274   0.030   2.311
12462WAT     H137628   2.314  -0.058   2.338
12462WAT     H237629   2.280   0.040   2.211
12463WAT      O37630   2.114   0.383   1.648
12463WAT     H137631   2.071   0.462   1.692
12463WAT     H237632   2.063   0.358   1.566
12464WAT      O37633   1.137   8.077   2.286
12464WAT     H137634   1.042   8.061   2.312
12464WAT     H237635   1.171   7.999   2.233
12465WAT      O37636   7.882   6.492   3.548
12465WAT     H137637   7.942   6.470   3.625
12465WAT     H237638   7.794   6.446   3.560
12466WAT      O37639   0.684   4.293   1.017
12466WAT     H137640   0.707   4.309   0.921
12466WAT     H237641   0.621   4.216   1.024
12467WAT      O37642   6.999   7.467   8.601
12467WAT     H137643   7.014   7.540   8.534
12467WAT     H237644   6.910   7.425   8.585
12468WAT      O37645   7.130   8.373   7.311
12468WAT     H137646   7.089   8.452   7.265
12468WAT     H237647   7.063   8.300   7.318
12469WAT      O37648   9.060   4.262   6.606
12469WAT     H137649   9.150   4.301   6.626
12469WAT     H237650   9.066   4.204   6.524
12470WAT      O37651   9.711   4.190   3.308
12470WAT     H137652   9.627   4.242   3.319
12470WAT     H237653   9.765   4.229   3.234
12471WAT      O37654   3.220   8.072   3.717
12471WAT     H137655   3.123   8.083   3.694
12471WAT     H237656   3.249   7.978   3.697
12472WAT      O37657   6.869   2.309   0.137
12472WAT     H137658   6.914   2.254   0.066
12472WAT     H237659   6.795   2.256   0.177
12473WAT      O37660   8.813   4.755   3.417
12473WAT     H137661   8.826   4.777   3.320
12473WAT     H237662   8.895   4.782   3.469
12474WAT      O37663   6.969   7.549   3.029
12474WAT     H137664   6.907   7.488   3.078
12474WAT     H237665   6.935   7.562   2.935
12475WAT      O37666   4.292   2.339   7.047
12475WAT     H137667   4.331   2.382   7.128
12475WAT     H237668   4.302   2.400   6.968
12476WAT      O37669   0.391   4.927   7.913
12476WAT     H137670   0.291   4.938   7.908
12476WAT     H237671   0.416   4.835   7.881
12477WAT      O37672   5.904   0.469   1.859
12477WAT     H137673   5.932   0.460   1.955
12477WAT     H237674   5.838   0.398   1.837
12478WAT      O37675   8.720   1.468   6.893
12478WAT     H137676   8.749   1.409   6.968
12478WAT     H237677   8.701   1.412   6.812
12479WAT      O37678   1.281   5.645   9.052
12479WAT     H137679   1.209   5.576   9.055
12479WAT     H237680   1.242   5.735   9.070
12480WAT      O37681   9.851   1.123   5.586
12480WAT     H137682   9.847   1.030   5.550
12480WAT     H237683   9.793   1.183   5.530
12481WAT      O37684   9.331   0.420   8.596
12481WAT     H137685   9.342   0.380   8.505
12481WAT     H237686   9.418   0.459   8.627
12482WAT      O37687   5.986   5.779   1.888
12482WAT     H137688   6.073   5.804   1.929
12482WAT     H237689   5.995   5.777   1.788
12483WAT      O37690   4.702   6.402   0.992
12483WAT     H137691   4.739   6.473   1.052
12483WAT     H237692   4.614   6.371   1.026
12484WAT      O37693   9.138   3.757   9.429
12484WAT     H137694   9.182   3.847   9.427
12484WAT     H237695   9.201   3.689   9.466
12485WAT      O37696   3.284   1.272   3.822
12485WAT     H137697   3.269   1.331   3.743
12485WAT     H237698   3.378   1.237   3.820
12486WAT      O37699   5.907   6.460   1.823
12486WAT     H137700   5.930   6.413   1.738
12486WAT     H237701   5.986   6.514   1.853
12487WAT      O37702   9.843   8.671   6.609
12487WAT     H137703   9.770   8.603   6.622
12487WAT     H237704   9.803   8.759   6.587
12488WAT      O37705   1.482   6.305   8.237
12488WAT     H137706   1.430   6.231   8.194
12488WAT     H237707   1.502   6.375   8.169
12489WAT      O37708   9.774   9.431   9.183
12489WAT     H137709   9.770   9.488   9.266
12489WAT     H237710   9.683   9.426   9.142
12490WAT      O37711   4.815   1.818   0.913
12490WAT     H137712   4.719   1.793   0.923
12490WAT     H237713   4.869   1.773   0.983
12491WAT      O37714   3.145   2.157   1.599
12491WAT     H137715   3.216   2.216   1.561
12491WAT     H237716   3.069   2.151   1.535
12492WAT      O37717   1.343   8.838   7.431
12492WAT     H137718   1.279   8.913   7.445
12492WAT     H237719   1.321   8.791   7.345
12493WAT      O37720   5.042   6.851   1.145
12493WAT     H137721   5.004   6.793   1.217
12493WAT     H237722   4.979   6.927   1.127
12494WAT      O37723   3.414   2.055   1.670
12494WAT     H137724   3.340   2.002   1.710
12494WAT     H237725   3.502   2.012   1.690
12495WAT      O37726   1.803   6.498   4.692
12495WAT     H137727   1.814   6.576   4.630
12495WAT     H237728   1.879   6.497   4.758
12496WAT      O37729   0.119   0.477   5.304
12496WAT     H137730   0.040   0.513   5.254
12496WAT     H237731   0.151   0.393   5.259
12497WAT      O37732   3.687   4.093   1.860
12497WAT     H137733   3.616   4.154   1.825
12497WAT     H237734   3.733   4.048   1.783
12498WAT      O37735   4.655   9.606   5.185
12498WAT     H137736   4.729   9.539   5.180
12498WAT     H237737   4.617   9.621   5.093
12499WAT      O37738   0.693   4.982   1.598
12499WAT     H137739   0.741   4.958   1.514
12499WAT     H237740   0.632   5.059   1.582
12500WAT      O37741   3.735   8.200   0.442
12500WAT     H137742   3.828   8.162   0.447
12500WAT     H237743   3.733   8.272   0.372
12501WAT      O37744   8.607   0.809   3.048
12501WAT     H137745   8.532   0.856   3.001
12501WAT     H237746   8.681   0.790   2.983
12502WAT      O37747   6.536   9.163   9.711
12502WAT     H137748   6.473   9.236   9.685
12502WAT     H237749   6.499   9.075   9.680
12503WAT      O37750   3.923   4.701   2.077
12503WAT     H137751   3.962   4.784   2.039
12503WAT     H237752   3.993   4.629   2.078
12504WAT      O37753   4.485   9.555   8.581
12504WAT     H137754   4.409   9.550   8.516
12504WAT     H237755   4.557   9.492   8.552
12505WAT      O37756   4.058   6.705   1.073
12505WAT     H137757   4.158   6.700   1.079
12505WAT     H237758   4.023   6.619   1.038
12506WAT      O37759   7.388   2.555   7.494
12506WAT     H137760   7.453   2.548   7.569
12506WAT     H237761   7.414   2.493   7.420
12507WAT      O37762   7.555   7.710   8.951
12507WAT     H137763   7.494   7.717   9.030
12507WAT     H237764   7.605   7.624   8.955
12508WAT      O37765   1.160   6.571   3.268
12508WAT     H137766   1.134   6.490   3.216
12508WAT     H237767   1.252   6.559   3.305
12509WAT      O37768   4.065   3.441   1.066
12509WAT     H137769   4.056   3.413   0.970
12509WAT     H237770   3.975   3.468   1.101
12510WAT      O37771   3.850   4.952   9.081
12510WAT     H137772   3.881   4.857   9.076
12510WAT     H237773   3.786   4.970   9.006
12511WAT      O37774   2.161   2.859   5.739
12511WAT     H137775   2.193   2.931   5.801
12511WAT     H237776   2.141   2.899   5.649
12512WAT      O37777   1.589   1.670   5.791
12512WAT     H137778   1.574   1.603   5.863
12512WAT     H237779   1.613   1.624   5.706
12513WAT      O37780   7.129   8.911   3.408
12513WAT     H137781   7.221   8.874   3.410
12513WAT     H237782   7.063   8.841   3.434
12514WAT      O37783   9.488   2.506   5.761
12514WAT     H137784   9.457   2.516   5.666
12514WAT     H237785   9.587   2.489   5.762
12515WAT      O37786   7.199   7.121   8.197
12515WAT     H137787   7.150   7.126   8.110
12515WAT     H237788   7.138   7.149   8.271
12516WAT      O37789   2.578   2.663   4.341
12516WAT     H137790   2.523   2.586   4.308
12516WAT     H237791   2.647   2.629   4.405
12517WAT      O37792   2.425   3.638   1.005
12517WAT     H137793   2.498   3.590   1.054
12517WAT     H237794   2.447   3.735   0.998
12518WAT      O37795   7.721   5.741   9.627
12518WAT     H137796   7.795   5.805   9.605
12518WAT     H237797   7.689   5.699   9.542
12519WAT      O37798   1.116   4.680   7.065
12519WAT     H137799   1.098   4.593   7.112
12519WAT     H237800   1.151   4.661   6.973
12520WAT      O37801   1.822   4.947   3.665
12520WAT     H137802   1.764   4.971   3.587
12520WAT     H237803   1.801   4.855   3.695
12521WAT      O37804   7.731   9.057   4.556
12521WAT     H137805   7.659   9.100   4.611
12521WAT     H237806   7.819   9.068   4.603
12522WAT      O37807   3.180   4.830   6.711
12522WAT     H137808   3.212   4.922   6.688
12522WAT     H237809   3.150   4.783   6.628
12523WAT      O37810   9.609   0.993   3.996
12523WAT     H137811   9.659   1.061   3.942
12523WAT     H237812   9.528   0.963   3.944
12524WAT      O37813   7.991   1.510   8.989
12524WAT     H137814   7.991   1.412   9.006
12524WAT     H237815   7.920   1.554   9.045
12525WAT      O37816   7.008   2.044   0.017
12525WAT     H137817   7.051   1.975  -0.041
12525WAT     H237818   7.076   2.083   0.080
12526WAT      O37819   1.814   2.111   8.105
12526WAT     H137820   1.863   2.198   8.104
12526WAT     H237821   1.879   2.035   8.096
12527WAT      O37822   7.613   0.393   0.157
12527WAT     H137823   7.572   0.470   0.108
12527WAT     H237824   7.540   0.334   0.191
12528WAT      O37825   2.859   1.014   9.348
12528WAT     H137826   2.946   1.018   9.297
12528WAT     H237827   2.878   1.000   9.445
12529WAT      O37828   4.993   4.931   0.255
12529WAT     H137829   5.031   4.966   0.340
12529WAT     H237830   4.919   4.991   0.224
12530WAT      O37831   6.705   8.311   8.405
12530WAT     H137832   6.665   8.306   8.496
12530WAT     H237833   6.800   8.341   8.411
12531WAT      O37834   2.312   9.316   4.359
12531WAT     H137835   2.381   9.388   4.368
12531WAT     H237836   2.352   9.228   4.384
12532WAT      O37837   7.380   5.719   9.518
12532WAT     H137838   7.473   5.692   9.493
12532WAT     H237839   7.316   5.686   9.449
12533WAT      O37840   7.416   1.232   3.764
12533WAT     H137841   7.428   1.323   3.725
12533WAT     H237842   7.468   1.165   3.711
12534WAT      O37843   1.793   3.134   8.942
12534WAT     H137844   1.731   3.209   8.962
12534WAT     H237845   1.810   3.129   8.844
12535WAT      O37846   5.796   6.603   4.155
12535WAT     H137847   5.723   6.663   4.186
12535WAT     H237848   5.881   6.656   4.144
12536WAT      O37849   1.694   8.924   6.421
12536WAT     H137850   1.602   8.963   6.427
12536WAT     H237851   1.755   8.987   6.373
12537WAT      O37852   6.441   2.584   8.443
12537WAT     H137853   6.504   2.634   8.384
12537WAT     H237854   6.462   2.487   8.440
12538WAT      O37855   7.179   2.666   4.143
12538WAT     H137856   7.155   2.759   4.115
12538WAT     H237857   7.266   2.641   4.102
12539WAT      O37858   2.497   5.122   7.020
12539WAT     H137859   2.541   5.202   6.980
12539WAT     H237860   2.509   5.123   7.120
12540WAT      O37861   8.997   1.939   7.075
12540WAT     H137862   8.943   1.888   7.142
12540WAT     H237863   9.094   1.920   7.090
12541WAT      O37864   8.335   6.748   0.157
12541WAT     H137865   8.425   6.770   0.194
12541WAT     H237866   8.338   6.751   0.057
12542WAT      O37867   1.458   3.503   6.326
12542WAT     H137868   1.476   3.598   6.349
12542WAT     H237869   1.406   3.460   6.399
12543WAT      O37870   5.948   4.521   2.859
12543WAT     H137871   6.007   4.444   2.839
12543WAT     H237872   5.853   4.490   2.866
12544WAT      O37873   7.922   2.382   5.994
12544WAT     H137874   8.015   2.350   6.013
12544WAT     H237875   7.871   2.387   6.080
12545WAT      O37876   6.162   4.855   5.246
12545WAT     H137877   6.078   4.849   5.299
12545WAT     H237878   6.150   4.806   5.159
12546WAT      O37879   6.613   7.366   7.485
12546WAT     H137880   6.514   7.371   7.469
12546WAT     H237881   6.660   7.426   7.420
12547WAT      O37882   9.691   4.502   5.982
12547WAT     H137883   9.622   4.437   6.015
12547WAT     H237884   9.666   4.534   5.891
12548WAT      O37885   0.523   7.851   6.602
12548WAT     H137886   0.582   7.815   6.530
12548WAT     H237887   0.494   7.776   6.662
12549WAT      O37888   9.726   1.744   1.151
12549WAT     H137889   9.686   1.733   1.060
12549WAT     H237890   9.756   1.839   1.162
12550WAT      O37891   7.057   0.540   3.196
12550WAT     H137892   7.054   0.448   3.157
12550WAT     H237893   7.151   0.562   3.221
12551WAT      O37894   9.011   2.081   5.982
12551WAT     H137895   9.092   2.086   6.040
12551WAT     H237896   8.929   2.077   6.039
12552WAT      O37897   1.390   0.889   4.602
12552WAT     H137898   1.297   0.927   4.602
12552WAT     H237899   1.405   0.838   4.687
12553WAT      O37900   4.698   7.212   9.318
12553WAT     H137901   4.796   7.233   9.321
12553WAT     H237902   4.669   7.204   9.222
12554WAT      O37903   0.886   8.907   8.939
12554WAT     H137904   0.974   8.865   8.960
12554WAT     H237905   0.886   9.002   8.969
12555WAT      O37906   2.551   5.281   4.897
12555WAT     H137907   2.615   5.248   4.967
12555WAT     H237908   2.463   5.302   4.940
12556WAT      O37909   8.353   1.355   4.464
12556WAT     H137910   8.253   1.363   4.465
12556WAT     H237911   8.384   1.309   4.547
12557WAT      O37912   4.318   0.741   9.856
12557WAT     H137913   4.379   0.666   9.833
12557WAT     H237914   4.256   0.759   9.779
12558WAT      O37915   0.008   8.301   4.504
12558WAT     H137916   0.038   8.246   4.582
12558WAT     H237917  -0.026   8.389   4.536
12559WAT      O37918   0.925   9.641   1.059
12559WAT     H137919   0.873   9.568   1.014
12559WAT     H237920   0.927   9.721   0.999
12560WAT      O37921   3.242   5.732   6.046
12560WAT     H137922   3.201   5.719   5.955
12560WAT     H237923   3.230   5.828   6.074
12561WAT      O37924   4.826   7.915   0.880
12561WAT     H137925   4.817   7.979   0.804
12561WAT     H237926   4.860   7.965   0.961
12562WAT      O37927   7.228   9.833   3.563
12562WAT     H137928   7.184   9.768   3.502
12562WAT     H237929   7.315   9.796   3.595
12563WAT      O37930   0.100   6.074   1.550
12563WAT     H137931   0.094   6.130   1.633
12563WAT     H237932   0.022   6.094   1.491
12564WAT      O37933   5.755   5.834   5.630
12564WAT     H137934   5.840   5.790   5.603
12564WAT     H237935   5.699   5.769   5.681
12565WAT      O37936   2.199   7.564   8.404
12565WAT     H137937   2.247   7.476   8.398
12565WAT     H237938   2.112   7.558   8.355
12566WAT      O37939   4.728   4.841   7.850
12566WAT     H137940   4.733   4.940   7.862
12566WAT     H237941   4.779   4.814   7.769
12567WAT      O37942   3.290   3.259   4.209
12567WAT     H137943   3.318   3.354   4.221
12567WAT     H237944   3.199   3.257   4.167
12568WAT      O37945   5.484   3.305   6.436
12568WAT     H137946   5.409   3.309   6.370
12568WAT     H237947   5.455   3.251   6.515
12569WAT      O37948   9.839   8.407   6.938
12569WAT     H137949   9.831   8.505   6.922
12569WAT     H237950   9.921   8.388   6.991
12570WAT      O37951   7.153   0.231   9.541
12570WAT     H137952   7.229   0.228   9.477
12570WAT     H237953   7.184   0.267   9.629
12571WAT      O37954   5.426   1.203   0.470
12571WAT     H137955   5.521   1.235   0.478
12571WAT     H237956   5.421   1.131   0.401
12572WAT      O37957   7.972   9.139   2.238
12572WAT     H137958   7.925   9.054   2.215
12572WAT     H237959   7.963   9.157   2.336
12573WAT      O37960   5.788   2.440   4.352
12573WAT     H137961   5.697   2.482   4.359
12573WAT     H237962   5.830   2.437   4.442
12574WAT      O37963   7.408   1.985   5.697
12574WAT     H137964   7.493   2.021   5.658
12574WAT     H237965   7.370   1.916   5.635
12575WAT      O37966   8.873   1.518   6.538
12575WAT     H137967   8.942   1.499   6.468
12575WAT     H237968   8.844   1.613   6.530
12576WAT      O37969   6.724   5.532   8.337
12576WAT     H137970   6.777   5.610   8.304
12576WAT     H237971   6.776   5.485   8.409
12577WAT      O37972   0.726   2.182   6.250
12577WAT     H137973   0.720   2.258   6.316
12577WAT     H237974   0.797   2.118   6.279
12578WAT      O37975   2.396   4.411   3.480
12578WAT     H137976   2.487   4.431   3.442
12578WAT     H237977   2.405   4.344   3.553
12579WAT      O37978   7.293   2.947   9.767
12579WAT     H137979   7.204   2.950   9.721
12579WAT     H237980   7.312   3.036   9.807
12580WAT      O37981   8.483   5.055   8.429
12580WAT     H137982   8.383   5.062   8.421
12580WAT     H237983   8.521   5.143   8.457
12581WAT      O37984   3.400   2.985   9.398
12581WAT     H137985   3.341   3.066   9.392
12581WAT     H237986   3.412   2.961   9.494
12582WAT      O37987   4.212   1.363   4.434
12582WAT     H137988   4.164   1.276   4.427
12582WAT     H237989   4.271   1.362   4.515
12583WAT      O37990   8.500   2.879   8.416
12583WAT     H137991   8.423   2.853   8.358
12583WAT     H237992   8.537   2.798   8.460
12584WAT      O37993   9.775   6.134   1.384
12584WAT     H137994   9.700   6.116   1.449
12584WAT     H237995   9.766   6.073   1.306
12585WAT      O37996   7.589   4.905   9.762
12585WAT     H137997   7.687   4.882   9.763
12585WAT     H237998   7.579   5.004   9.754
12586WAT      O37999   0.363   3.129   5.993
12586WAT     H138000   0.343   3.067   6.068
12586WAT     H238001   0.339   3.086   5.906
12587WAT      O38002   3.877   5.935   9.690
12587WAT     H138003   3.787   5.935   9.734
12587WAT     H238004   3.934   5.864   9.731
12588WAT      O38005   2.972   6.070   9.187
12588WAT     H138006   2.873   6.081   9.188
12588WAT     H238007   3.014   6.137   9.249
12589WAT      O38008   1.587   7.612   1.467
12589WAT     H138009   1.631   7.523   1.465
12589WAT     H238010   1.627   7.668   1.540
12590WAT      O38011   2.262   5.911   2.030
12590WAT     H138012   2.210   5.927   1.946
12590WAT     H238013   2.279   5.999   2.076
12591WAT      O38014   4.580   8.685   3.559
12591WAT     H138015   4.507   8.747   3.586
12591WAT     H238016   4.546   8.620   3.491
12592WAT      O38017   5.980   0.202   3.965
12592WAT     H138018   6.053   0.221   4.031
12592WAT     H238019   5.892   0.201   4.012
12593WAT      O38020   1.599   5.946   9.133
12593WAT     H138021   1.696   5.942   9.109
12593WAT     H238022   1.569   5.857   9.167
12594WAT      O38023   6.396   4.811   9.783
12594WAT     H138024   6.475   4.786   9.728
12594WAT     H238025   6.404   4.906   9.811
12595WAT      O38026   5.740   1.422   4.631
12595WAT     H138027   5.755   1.476   4.548
12595WAT     H238028   5.642   1.421   4.653
12596WAT      O38029   2.482   6.705   3.394
12596WAT     H138030   2.396   6.721   3.443
12596WAT     H238031   2.509   6.609   3.406
12597WAT      O38032   7.525   9.679   4.426
12597WAT     H138033   7.563   9.620   4.498
12597WAT     H238034   7.500   9.623   4.347
12598WAT      O38035   9.561   7.304   1.372
12598WAT     H138036   9.516   7.238   1.432
12598WAT     H238037   9.493   7.357   1.322
12599WAT      O38038   1.682   9.176   0.201
12599WAT     H138039   1.586   9.200   0.217
12599WAT     H238040   1.714   9.116   0.274
12600WAT      O38041   2.623   4.992   5.815
12600WAT     H138042   2.671   5.080   5.808
12600WAT     H238043   2.544   4.992   5.754
12601WAT      O38044   6.358   0.856   4.569
12601WAT     H138045   6.386   0.801   4.490
12601WAT     H238046   6.314   0.940   4.538
12602WAT      O38047   4.969   5.781   0.997
12602WAT     H138048   5.011   5.711   1.055
12602WAT     H238049   5.029   5.801   0.920
12603WAT      O38050   6.251   7.744   0.981
12603WAT     H138051   6.177   7.702   0.929
12603WAT     H238052   6.326   7.768   0.918
12604WAT      O38053   9.135   6.732   4.783
12604WAT     H138054   9.166   6.657   4.841
12604WAT     H238055   9.091   6.695   4.701
12605WAT      O38056   4.122   8.542   1.741
12605WAT     H138057   4.128   8.635   1.776
12605WAT     H238058   4.032   8.504   1.760
12606WAT      O38059   0.843   8.507   4.315
12606WAT     H138060   0.786   8.522   4.396
12606WAT     H238061   0.786   8.473   4.240
12607WAT      O38062   8.752   4.198   5.746
12607WAT     H138063   8.703   4.285   5.744
12607WAT     H238064   8.689   4.123   5.724
12608WAT      O38065   9.462   3.162   4.635
12608WAT     H138066   9.378   3.213   4.657
12608WAT     H238067   9.437   3.077   4.589
12609WAT      O38068   6.857   9.694   7.047
12609WAT     H138069   6.823   9.656   7.133
12609WAT     H238070   6.792   9.762   7.013
12610WAT      O38071   6.557   4.682   9.498
12610WAT     H138072   6.642   4.725   9.530
12610WAT     H238073   6.569   4.583   9.493
12611WAT      O38074   1.219   0.439   1.217
12611WAT     H138075   1.161   0.439   1.136
12611WAT     H238076   1.170   0.480   1.294
12612WAT      O38077   1.609   4.287   8.876
12612WAT     H138078   1.550   4.210   8.854
12612WAT     H238079   1.587   4.364   8.815
12613WAT      O38080   2.869   6.961   1.424
12613WAT     H138081   2.898   7.014   1.504
12613WAT     H238082   2.860   7.023   1.345
12614WAT      O38083   7.718   1.302   1.185
12614WAT     H138084   7.734   1.284   1.088
12614WAT     H238085   7.755   1.226   1.239
12615WAT      O38086   4.066   7.903   9.423
12615WAT     H138087   4.086   7.881   9.328
12615WAT     H238088   3.992   7.970   9.427
12616WAT      O38089   6.044   6.350   6.611
12616WAT     H138090   6.084   6.432   6.571
12616WAT     H238091   6.096   6.270   6.581
12617WAT      O38092   7.639   4.848   7.609
12617WAT     H138093   7.662   4.940   7.576
12617WAT     H238094   7.679   4.833   7.699
12618WAT      O38095   7.026   7.918   8.698
12618WAT     H138096   7.125   7.926   8.688
12618WAT     H238097   6.985   7.908   8.607
12619WAT      O38098   5.110   5.043   8.323
12619WAT     H138099   5.197   5.076   8.286
12619WAT     H238100   5.049   5.018   8.248
12620WAT      O38101   8.819   1.080   8.670
12620WAT     H138102   8.741   1.134   8.701
12620WAT     H238103   8.900   1.138   8.668
12621WAT      O38104   9.731   8.732   4.923
12621WAT     H138105   9.687   8.795   4.859
12621WAT     H238106   9.824   8.764   4.942
12622WAT      O38107   2.541   8.636   7.665
12622WAT     H138108   2.569   8.731   7.678
12622WAT     H238109   2.441   8.630   7.670
12623WAT      O38110   9.596   8.123   3.000
12623WAT     H138111   9.565   8.040   3.045
12623WAT     H238112   9.689   8.110   2.966
12624WAT      O38113   0.555   6.189   3.992
12624WAT     H138114   0.621   6.115   3.977
12624WAT     H238115   0.472   6.151   4.033
12625WAT      O38116   5.413   5.358   7.292
12625WAT     H138117   5.319   5.380   7.316
12625WAT     H238118   5.476   5.408   7.351
12626WAT      O38119   7.717   8.722   1.031
12626WAT     H138120   7.743   8.818   1.022
12626WAT     H238121   7.699   8.684   0.940
12627WAT      O38122   9.110   8.650   0.102
12627WAT     H138123   9.026   8.618   0.060
12627WAT     H238124   9.091   8.734   0.153
12628WAT      O38125   3.619   9.620   9.520
12628WAT     H138126   3.714   9.599   9.544
12628WAT     H238127   3.598   9.579   9.431
12629WAT      O38128   9.063   4.256   0.200
12629WAT     H138129   9.115   4.183   0.156
12629WAT     H238130   9.092   4.344   0.164
12630WAT      O38131   0.731   1.940   3.019
12630WAT     H138132   0.682   1.981   3.096
12630WAT     H238133   0.691   1.852   2.996
12631WAT      O38134   7.084   3.378   2.018
12631WAT     H138135   6.985   3.367   2.019
12631WAT     H238136   7.126   3.312   2.081
12632WAT      O38137   6.373   4.847   8.974
12632WAT     H138138   6.276   4.868   8.987
12632WAT     H238139   6.426   4.884   9.050
12633WAT      O38140   4.840   7.193   8.071
12633WAT     H138141   4.742   7.210   8.065
12633WAT     H238142   4.881   7.203   7.980
12634WAT      O38143   0.560   9.124   5.741
12634WAT     H138144   0.541   9.088   5.650
12634WAT     H238145   0.617   9.059   5.792
12635WAT      O38146   2.452   8.674   1.185
12635WAT     H138147   2.501   8.698   1.102
12635WAT     H238148   2.495   8.720   1.263
12636WAT      O38149   9.729   2.537   4.335
12636WAT     H138150   9.636   2.566   4.313
12636WAT     H238151   9.749   2.556   4.431
12637WAT      O38152   8.202   4.981   6.819
12637WAT     H138153   8.255   4.897   6.833
12637WAT     H238154   8.236   5.029   6.738
12638WAT      O38155   5.041   3.780   7.869
12638WAT     H138156   4.987   3.783   7.785
12638WAT     H238157   4.988   3.739   7.942
12639WAT      O38158   6.636   7.701   7.731
12639WAT     H138159   6.653   7.692   7.633
12639WAT     H238160   6.721   7.687   7.782
12640WAT      O38161   7.728   2.443   7.271
12640WAT     H138162   7.745   2.489   7.184
12640WAT     H238163   7.629   2.431   7.283
12641WAT      O38164   2.970   8.252   1.167
12641WAT     H138165   3.057   8.242   1.215
12641WAT     H238166   2.947   8.349   1.161
12642WAT      O38167   9.058   4.176   2.331
12642WAT     H138168   8.965   4.160   2.363
12642WAT     H238169   9.090   4.265   2.364
12643WAT      O38170   7.217   5.648   5.074
12643WAT     H138171   7.235   5.592   5.154
12643WAT     H238172   7.298   5.702   5.052
12644WAT      O38173   7.888   2.608   7.455
12644WAT     H138174   7.900   2.689   7.398
12644WAT     H238175   7.842   2.536   7.402
12645WAT      O38176   9.187   1.025   1.930
12645WAT     H138177   9.140   1.068   1.853
12645WAT     H238178   9.120   0.993   1.997
12646WAT      O38179   8.408   3.923   8.599
12646WAT     H138180   8.471   3.848   8.582
12646WAT     H238181   8.349   3.900   8.677
12647WAT      O38182   2.871   8.264   6.250
12647WAT     H138183   2.890   8.169   6.274
12647WAT     H238184   2.891   8.322   6.329
12648WAT      O38185   1.750   1.249   0.845
12648WAT     H138186   1.826   1.313   0.838
12648WAT     H238187   1.689   1.261   0.766
12649WAT      O38188   0.581   6.806   1.890
12649WAT     H138189   0.675   6.838   1.878
12649WAT     H238190   0.567   6.725   1.834
12650WAT      O38191   0.811   1.315   0.148
12650WAT     H138192   0.894   1.332   0.094
12650WAT     H238193   0.764   1.401   0.165
12651WAT      O38194   8.014   3.563   2.602
12651WAT     H138195   8.112   3.572   2.618
12651WAT     H238196   7.975   3.502   2.672
12652WAT      O38197   4.468   4.877   9.499
12652WAT     H138198   4.385   4.861   9.446
12652WAT     H238199   4.484   4.975   9.508
12653WAT      O38200   7.311   7.038   0.605
12653WAT     H138201   7.238   7.056   0.671
12653WAT     H238202   7.335   6.941   0.605
12654WAT      O38203   0.580   2.061   2.612
12654WAT     H138204   0.633   1.993   2.661
12654WAT     H238205   0.496   2.081   2.663
12655WAT      O38206   0.736   3.177   8.790
12655WAT     H138207   0.679   3.210   8.715
12655WAT     H238208   0.773   3.254   8.841
12656WAT      O38209   7.093   3.331   3.177
12656WAT     H138210   7.137   3.243   3.196
12656WAT     H238211   7.114   3.360   3.084
12657WAT      O38212   7.166   8.666   1.253
12657WAT     H138213   7.235   8.633   1.317
12657WAT     H238214   7.210   8.713   1.177
12658WAT      O38215   8.926   7.868   4.881
12658WAT     H138216   8.852   7.805   4.862
12658WAT     H238217   8.927   7.941   4.812
12659WAT      O38218   5.868   3.381   2.614
12659WAT     H138219   5.872   3.458   2.550
12659WAT     H238220   5.954   3.375   2.664
12660WAT      O38221   6.272   0.384   4.780
12660WAT     H138222   6.209   0.344   4.714
12660WAT     H238223   6.274   0.484   4.769
12661WAT      O38224   5.533   7.445   7.319
12661WAT     H138225   5.549   7.538   7.352
12661WAT     H238226   5.461   7.445   7.250
12662WAT      O38227   0.613   7.371   6.806
12662WAT     H138228   0.660   7.327   6.882
12662WAT     H238229   0.657   7.343   6.720
12663WAT      O38230   9.436   2.325   5.959
12663WAT     H138231   9.406   2.241   5.916
12663WAT     H238232   9.436   2.399   5.892
12664WAT      O38233   9.295   8.392   4.409
12664WAT     H138234   9.381   8.391   4.460
12664WAT     H238235   9.221   8.361   4.467
12665WAT      O38236   2.087   6.415   1.018
12665WAT     H138237   2.024   6.388   0.944
12665WAT     H238238   2.102   6.337   1.079
12666WAT      O38239   9.817   6.918   6.381
12666WAT     H138240   9.891   6.976   6.348
12666WAT     H238241   9.854   6.837   6.426
12667WAT      O38242   5.426   6.453   0.724
12667WAT     H138243   5.493   6.491   0.660
12667WAT     H238244   5.457   6.469   0.818
12668WAT      O38245   4.863   8.344   7.766
12668WAT     H138246   4.853   8.443   7.779
12668WAT     H238247   4.837   8.297   7.850
12669WAT      O38248   9.720   9.703   3.931
12669WAT     H138249   9.694   9.722   4.026
12669WAT     H238250   9.756   9.787   3.889
12670WAT      O38251   6.104   0.716   6.975
12670WAT     H138252   6.072   0.800   6.932
12670WAT     H238253   6.141   0.737   7.066
12671WAT      O38254   3.375   2.220   8.767
12671WAT     H138255   3.474   2.235   8.761
12671WAT     H238256   3.356   2.124   8.786
12672WAT      O38257   7.893   4.926   8.782
12672WAT     H138258   7.797   4.907   8.760
12672WAT     H238259   7.938   4.966   8.703
12673WAT      O38260   9.712   8.049   4.407
12673WAT     H138261   9.665   8.091   4.329
12673WAT     H238262   9.706   7.950   4.401
12674WAT      O38263   1.923   9.463   4.052
12674WAT     H138264   1.981   9.419   4.121
12674WAT     H238265   1.827   9.438   4.068
12675WAT      O38266   8.349   3.478   2.279
12675WAT     H138267   8.273   3.542   2.272
12675WAT     H238268   8.415   3.497   2.205
12676WAT      O38269   2.542   2.133   2.094
12676WAT     H138270   2.483   2.195   2.042
12676WAT     H238271   2.557   2.050   2.041
12677WAT      O38272   0.513   7.713   7.215
12677WAT     H138273   0.610   7.694   7.201
12677WAT     H238274   0.467   7.715   7.126
12678WAT      O38275   8.751   7.136   9.393
12678WAT     H138276   8.783   7.199   9.463
12678WAT     H238277   8.822   7.122   9.325
12679WAT      O38278   6.919   7.920   5.937
12679WAT     H138279   7.012   7.936   5.903
12679WAT     H238280   6.854   7.973   5.882
12680WAT      O38281   1.955   2.492   6.856
12680WAT     H138282   2.028   2.424   6.857
12680WAT     H238283   1.989   2.578   6.819
12681WAT      O38284   9.538   6.208   8.761
12681WAT     H138285   9.503   6.146   8.830
12681WAT     H238286   9.462   6.258   8.719
12682WAT      O38287   0.222   1.362   3.751
12682WAT     H138288   0.256   1.330   3.839
12682WAT     H238289   0.122   1.362   3.751
12683WAT      O38290   7.969   1.966   4.689
12683WAT     H138291   7.988   2.020   4.770
12683WAT     H238292   8.053   1.950   4.638
12684WAT      O38293   6.389   9.465   6.957
12684WAT     H138294   6.425   9.381   6.917
12684WAT     H238295   6.423   9.474   7.051
12685WAT      O38296   7.016   8.991   4.768
12685WAT     H138297   6.979   9.080   4.795
12685WAT     H238298   7.058   8.947   4.848
12686WAT      O38299   1.515   4.467   7.378
12686WAT     H138300   1.523   4.370   7.398
12686WAT     H238301   1.535   4.520   7.461
12687WAT      O38302   8.030   2.607   3.256
12687WAT     H138303   8.031   2.531   3.322
12687WAT     H238304   7.990   2.576   3.170
12688WAT      O38305   8.416   7.843   2.789
12688WAT     H138306   8.466   7.860   2.873
12688WAT     H238307   8.440   7.912   2.721
12689WAT      O38308   7.417   1.580   5.541
12689WAT     H138309   7.395   1.531   5.625
12689WAT     H238310   7.358   1.547   5.467
12690WAT      O38311   5.859   5.676   8.428
12690WAT     H138312   5.876   5.708   8.334
12690WAT     H238313   5.786   5.607   8.427
12691WAT      O38314   8.316   0.665   7.438
12691WAT     H138315   8.375   0.670   7.357
12691WAT     H238316   8.362   0.709   7.515
12692WAT      O38317   8.678   4.471   1.846
12692WAT     H138318   8.664   4.391   1.788
12692WAT     H238319   8.727   4.541   1.794
12693WAT      O38320   3.664   9.671   4.708
12693WAT     H138321   3.702   9.729   4.635
12693WAT     H238322   3.728   9.595   4.726
12694WAT      O38323   0.459   5.585   3.600
12694WAT     H138324   0.451   5.683   3.582
12694WAT     H238325   0.416   5.534   3.525
12695WAT      O38326   6.978   8.977   8.816
12695WAT     H138327   6.892   8.993   8.767
12695WAT     H238328   6.959   8.956   8.912
12696WAT      O38329   7.350   3.068   0.338
12696WAT     H138330   7.323   3.010   0.415
12696WAT     H238331   7.396   3.014   0.269
12697WAT      O38332   6.661   6.984   9.378
12697WAT     H138333   6.682   7.012   9.284
12697WAT     H238334   6.574   6.934   9.379
12698WAT      O38335   9.872   1.443   2.802
12698WAT     H138336   9.809   1.365   2.810
12698WAT     H238337   9.820   1.528   2.814
12699WAT      O38338   9.147   8.004   5.488
12699WAT     H138339   9.226   7.948   5.465
12699WAT     H238340   9.080   7.950   5.539
12700WAT      O38341   5.799   1.102   8.681
12700WAT     H138342   5.720   1.163   8.673
12700WAT     H238343   5.798   1.058   8.771
12701WAT      O38344   2.213   3.348   9.528
12701WAT     H138345   2.195   3.447   9.526
12701WAT     H238346   2.152   3.305   9.595
12702WAT      O38347   3.624   9.047   5.193
12702WAT     H138348   3.709   9.073   5.238
12702WAT     H238349   3.547   9.066   5.254
12703WAT      O38350   2.218   3.495   5.965
12703WAT     H138351   2.158   3.564   6.006
12703WAT     H238352   2.167   3.443   5.897
12704WAT      O38353   5.820   2.445   6.909
12704WAT     H138354   5.882   2.514   6.871
12704WAT     H238355   5.821   2.450   7.009
12705WAT      O38356   1.400   5.543   6.507
12705WAT     H138357   1.463   5.473   6.540
12705WAT     H238358   1.427   5.571   6.414
12706WAT      O38359   7.554   8.017   3.075
12706WAT     H138360   7.526   8.101   3.122
12706WAT     H238361   7.476   7.978   3.027
12707WAT      O38362   6.837   9.173   8.304
12707WAT     H138363   6.847   9.084   8.258
12707WAT     H238364   6.822   9.157   8.402
12708WAT      O38365   3.788  -0.000   4.536
12708WAT     H138366   3.789   0.073   4.604
12708WAT     H238367   3.859   0.017   4.467
12709WAT      O38368   8.199   8.185   4.537
12709WAT     H138369   8.131   8.257   4.552
12709WAT     H238370   8.207   8.129   4.619
12710WAT      O38371   7.579   4.654   2.165
12710WAT     H138372   7.488   4.643   2.207
12710WAT     H238373   7.573   4.632   2.068
12711WAT      O38374   6.418   3.374   2.403
12711WAT     H138375   6.320   3.390   2.395
12711WAT     H238376   6.435   3.275   2.401
12712WAT      O38377   3.629   7.920   0.905
12712WAT     H138378   3.724   7.906   0.879
12712WAT     H238379   3.621   7.999   0.965
12713WAT      O38380   1.689   0.396   7.895
12713WAT     H138381   1.700   0.476   7.955
12713WAT     H238382   1.635   0.326   7.942
12714WAT      O38383   3.655   1.517   9.760
12714WAT     H138384   3.559   1.490   9.776
12714WAT     H238385   3.658   1.589   9.690
12715WAT      O38386   0.969   6.519   6.992
12715WAT     H138387   0.900   6.499   6.922
12715WAT     H238388   0.986   6.437   7.047
12716WAT      O38389   3.650   3.946   7.760
12716WAT     H138390   3.649   3.867   7.698
12716WAT     H238391   3.744   3.963   7.789
12717WAT      O38392   9.552   8.936   7.747
12717WAT     H138393   9.570   8.883   7.829
12717WAT     H238394   9.461   8.977   7.753
12718WAT      O38395   2.176   0.781   6.761
12718WAT     H138396   2.224   0.869   6.753
12718WAT     H238397   2.243   0.707   6.766
12719WAT      O38398   5.974   9.153   3.501
12719WAT     H138399   5.891   9.100   3.514
12719WAT     H238400   5.950   9.247   3.476
12720WAT      O38401   5.569   3.867   7.990
12720WAT     H138402   5.645   3.900   8.046
12720WAT     H238403   5.508   3.943   7.967
12721WAT      O38404   4.781   8.768   1.344
12721WAT     H138405   4.862   8.826   1.350
12721WAT     H238406   4.804   8.675   1.374
12722WAT      O38407   2.536   2.447   9.713
12722WAT     H138408   2.476   2.500   9.653
12722WAT     H238409   2.561   2.502   9.793
12723WAT      O38410   4.405   9.772   5.611
12723WAT     H138411   4.428   9.859   5.654
12723WAT     H238412   4.468   9.755   5.535
12724WAT      O38413   1.012   4.574   8.101
12724WAT     H138414   1.112   4.567   8.097
12724WAT     H238415   0.986   4.665   8.132
12725WAT      O38416   4.232   9.379   1.214
12725WAT     H138417   4.204   9.306   1.152
12725WAT     H238418   4.331   9.380   1.222
12726WAT      O38419   8.916   7.724   7.034
12726WAT     H138420   8.978   7.650   7.008
12726WAT     H238421   8.880   7.706   7.126
12727WAT      O38422   6.294   2.638   4.729
12727WAT     H138423   6.369   2.610   4.669
12727WAT     H238424   6.251   2.721   4.694
12728WAT      O38425   9.464   8.377   4.885
12728WAT     H138426   9.534   8.420   4.943
12728WAT     H238427   9.434   8.291   4.926
12729WAT      O38428   3.975   1.584   5.742
12729WAT     H138429   3.939   1.540   5.661
12729WAT     H238430   4.047   1.527   5.782
12730WAT      O38431   1.931   1.326   1.676
12730WAT     H138432   1.866   1.373   1.616
12730WAT     H238433   1.931   1.368   1.766
12731WAT      O38434   7.332   1.814   5.490
12731WAT     H138435   7.333   1.833   5.392
12731WAT     H238436   7.369   1.723   5.508
12732WAT      O38437   2.332   0.903   9.052
12732WAT     H138438   2.291   0.991   9.075
12732WAT     H238439   2.267   0.830   9.072
12733WAT      O38440   6.547   8.434   2.768
12733WAT     H138441   6.476   8.498   2.797
12733WAT     H238442   6.621   8.484   2.722
12734WAT      O38443   9.029   1.259   8.707
12734WAT     H138444   8.975   1.320   8.766
12734WAT     H238445   9.110   1.228   8.757
12735WAT      O38446   3.765   3.570   3.025
12735WAT     H138447   3.697   3.555   3.096
12735WAT     H238448   3.807   3.483   2.999
12736WAT      O38449   4.601   6.359   5.310
12736WAT     H138450   4.624   6.385   5.216
12736WAT     H238451   4.511   6.317   5.312
12737WAT      O38452   5.083   4.738   5.313
12737WAT     H138453   5.133   4.718   5.397
12737WAT     H238454   4.984   4.732   5.331
12738WAT      O38455   8.910   1.120   5.929
12738WAT     H138456   8.959   1.086   5.849
12738WAT     H238457   8.976   1.148   5.998
12739WAT      O38458   9.256   0.643   6.440
12739WAT     H138459   9.246   0.585   6.521
12739WAT     H238460   9.308   0.725   6.464
12740WAT      O38461   3.006   1.908   0.089
12740WAT     H138462   2.915   1.921   0.127
12740WAT     H238463   3.002   1.841   0.015
12741WAT      O38464   4.668   8.031   3.973
12741WAT     H138465   4.724   7.973   3.914
12741WAT     H238466   4.577   8.042   3.933
12742WAT      O38467   4.136   9.007   6.319
12742WAT     H138468   4.059   8.972   6.264
12742WAT     H238469   4.100   9.056   6.399
12743WAT      O38470   0.536   4.424   8.661
12743WAT     H138471   0.460   4.487   8.678
12743WAT     H238472   0.560   4.377   8.746
12744WAT      O38473   9.728   7.876   6.799
12744WAT     H138474   9.724   7.965   6.753
12744WAT     H238475   9.785   7.883   6.880
12745WAT      O38476   6.123   3.370   6.294
12745WAT     H138477   6.081   3.318   6.219
12745WAT     H238478   6.211   3.406   6.264
12746WAT      O38479   5.823   9.283   6.854
12746WAT     H138480   5.811   9.351   6.927
12746WAT     H238481   5.781   9.317   6.770
12747WAT      O38482   2.956   6.474   1.075
12747WAT     H138483   2.994   6.565   1.060
12747WAT     H238484   2.865   6.482   1.115
12748WAT      O38485   5.288   7.757   3.662
12748WAT     H138486   5.295   7.856   3.653
12748WAT     H238487   5.268   7.733   3.757
12749WAT      O38488   9.369   7.150   3.491
12749WAT     H138489   9.293   7.183   3.548
12749WAT     H238490   9.333   7.118   3.404
12750WAT      O38491   7.985   1.707   5.566
12750WAT     H138492   8.052   1.779   5.548
12750WAT     H238493   8.008   1.660   5.651
12751WAT      O38494   0.441   9.244   4.260
12751WAT     H138495   0.484   9.283   4.342
12751WAT     H238496   0.386   9.165   4.286
12752WAT      O38497   1.286   8.298   4.785
12752WAT     H138498   1.251   8.228   4.847
12752WAT     H238499   1.220   8.372   4.778
12753WAT      O38500   9.648   2.376   1.718
12753WAT     H138501   9.564   2.373   1.664
12753WAT     H238502   9.719   2.424   1.667
12754WAT      O38503   0.093   8.112   2.524
12754WAT     H138504   0.092   8.047   2.448
12754WAT     H238505   0.139   8.196   2.495
12755WAT      O38506   3.201   6.357   5.672
12755WAT     H138507   3.247   6.302   5.602
12755WAT     H238508   3.106   6.374   5.644
12756WAT      O38509   5.550   8.621   4.126
12756WAT     H138510   5.591   8.695   4.181
12756WAT     H238511   5.457   8.646   4.101
12757WAT      O38512   1.164   8.882   3.526
12757WAT     H138513   1.069   8.888   3.556
12757WAT     H238514   1.189   8.786   3.514
12758WAT      O38515   9.199   5.888   7.976
12758WAT     H138516   9.290   5.904   7.939
12758WAT     H238517   9.178   5.790   7.970
12759WAT      O38518   3.059   6.739   0.693
12759WAT     H138519   3.055   6.725   0.792
12759WAT     H238520   3.129   6.680   0.653
12760WAT      O38521   7.609   3.272   0.008
12760WAT     H138522   7.667   3.204  -0.036
12760WAT     H238523   7.657   3.312   0.087
12761WAT      O38524   7.655   8.182   3.478
12761WAT     H138525   7.734   8.242   3.465
12761WAT     H238526   7.626   8.184   3.574
12762WAT      O38527   4.392   6.481   9.815
12762WAT     H138528   4.307   6.468   9.864
12762WAT     H238529   4.449   6.548   9.863
12763WAT      O38530   3.423   1.902   8.465
12763WAT     H138531   3.390   1.930   8.375
12763WAT     H238532   3.420   1.802   8.471
12764WAT      O38533   0.558   0.720   5.307
12764WAT     H138534   0.509   0.799   5.341
12764WAT     H238535   0.496   0.641   5.303
12765WAT      O38536   2.757   1.953   2.898
12765WAT     H138537   2.748   1.858   2.927
12765WAT     H238538   2.844   1.964   2.849
12766WAT      O38539   8.807   8.900   0.411
12766WAT     H138540   8.795   8.996   0.385
12766WAT     H238541   8.870   8.894   0.488
12767WAT      O38542   3.412   1.360   3.431
12767WAT     H138543   3.474   1.428   3.469
12767WAT     H238544   3.324   1.366   3.478
12768WAT      O38545   1.919   5.191   5.859
12768WAT     H138546   1.896   5.241   5.942
12768WAT     H238547   2.016   5.164   5.862
12769WAT      O38548   0.168   5.765   3.612
12769WAT     H138549   0.261   5.778   3.577
12769WAT     H238550   0.106   5.825   3.562
12770WAT      O38551   5.822   7.171   1.263
12770WAT     H138552   5.863   7.164   1.354
12770WAT     H238553   5.802   7.079   1.228
12771WAT      O38554   2.234   7.795   7.058
12771WAT     H138555   2.297   7.840   7.120
12771WAT     H238556   2.224   7.699   7.085
12772WAT      O38557   3.166   2.686   9.642
12772WAT     H138558   3.143   2.729   9.555
12772WAT     H238559   3.087   2.636   9.678
12773WAT      O38560   5.845   7.177   0.271
12773WAT     H138561   5.894   7.152   0.355
12773WAT     H238562   5.858   7.105   0.203
12774WAT      O38563   6.251   4.614   0.163
12774WAT     H138564   6.241   4.637   0.066
12774WAT     H238565   6.341   4.572   0.178
12775WAT      O38566   5.391   2.058   3.535
12775WAT     H138567   5.367   1.962   3.525
12775WAT     H238568   5.405   2.079   3.632
12776WAT      O38569   7.436   8.429   3.556
12776WAT     H138570   7.468   8.472   3.472
12776WAT     H238571   7.506   8.366   3.590
12777WAT      O38572   3.353   2.824   8.434
12777WAT     H138573   3.352   2.741   8.378
12777WAT     H238574   3.428   2.883   8.406
12778WAT      O38575   4.475   6.705   9.164
12778WAT     H138576   4.498   6.615   9.201
12778WAT     H238577   4.533   6.774   9.207
12779WAT      O38578   4.748   3.381   2.847
12779WAT     H138579   4.736   3.441   2.768
12779WAT     H238580   4.728   3.287   2.821
12780WAT      O38581   7.066   6.011   6.937
12780WAT     H138582   6.989   5.985   6.996
12780WAT     H238583   7.036   6.007   6.841
12781WAT      O38584   5.057   1.784   2.378
12781WAT     H138585   5.065   1.685   2.391
12781WAT     H238586   5.145   1.828   2.394
12782WAT      O38587   8.753   6.238   3.306
12782WAT     H138588   8.760   6.169   3.377
12782WAT     H238589   8.775   6.328   3.344
12783WAT      O38590   5.625   0.435   9.765
12783WAT     H138591   5.672   0.515   9.803
12783WAT     H238592   5.662   0.352   9.806
12784WAT      O38593   5.358   7.581   4.968
12784WAT     H138594   5.393   7.500   4.920
12784WAT     H238595   5.260   7.571   4.982
12785WAT      O38596   9.218   5.048   4.141
12785WAT     H138597   9.220   5.006   4.051
12785WAT     H238598   9.267   4.990   4.206
12786WAT      O38599   5.750   5.538   0.723
12786WAT     H138600   5.820   5.597   0.682
12786WAT     H238601   5.666   5.542   0.668
12787WAT      O38602   2.467   9.800   1.748
12787WAT     H138603   2.374   9.806   1.711
12787WAT     H238604   2.491   9.886   1.792
12788WAT      O38605   8.749   4.797   3.113
12788WAT     H138606   8.717   4.703   3.128
12788WAT     H238607   8.670   4.858   3.104
12789WAT      O38608   2.825   8.594   7.673
12789WAT     H138609   2.866   8.572   7.761
12789WAT     H238610   2.726   8.577   7.677
12790WAT      O38611   4.413   3.777   2.805
12790WAT     H138612   4.328   3.745   2.845
12790WAT     H238613   4.482   3.787   2.876
12791WAT      O38614   8.078   9.248   4.411
12791WAT     H138615   8.149   9.246   4.481
12791WAT     H238616   8.062   9.342   4.382
12792WAT      O38617   2.098   3.519   9.039
12792WAT     H138618   2.178   3.509   8.979
12792WAT     H238619   2.067   3.429   9.068
12793WAT      O38620   2.762   1.187   1.373
12793WAT     H138621   2.853   1.172   1.411
12793WAT     H238622   2.766   1.183   1.273
12794WAT      O38623   3.302   3.694   6.860
12794WAT     H138624   3.384   3.744   6.835
12794WAT     H238625   3.328   3.607   6.903
12795WAT      O38626   7.326   8.515   3.881
12795WAT     H138627   7.329   8.440   3.814
12795WAT     H238628   7.233   8.526   3.914
12796WAT      O38629   2.141   3.015   5.515
12796WAT     H138630   2.160   3.108   5.547
12796WAT     H238631   2.179   3.002   5.423
12797WAT      O38632   2.329   5.240   6.375
12797WAT     H138633   2.301   5.321   6.428
12797WAT     H238634   2.372   5.270   6.290
12798WAT      O38635   0.755   8.637   3.200
12798WAT     H138636   0.741   8.646   3.101
12798WAT     H238637   0.853   8.632   3.220
12799WAT      O38638   6.789   8.326   6.492
12799WAT     H138639   6.806   8.228   6.483
12799WAT     H238640   6.796   8.353   6.588
12800WAT      O38641   7.640   9.414   1.164
12800WAT     H138642   7.708   9.344   1.184
12800WAT     H238643   7.662   9.498   1.215
12801WAT      O38644   0.656   1.380   6.874
12801WAT     H138645   0.689   1.426   6.791
12801WAT     H238646   0.632   1.448   6.943
12802WAT      O38647   6.037   0.005   0.205
12802WAT     H138648   6.135   0.023   0.219
12802WAT     H238649   5.998  -0.033   0.288
12803WAT      O38650   0.863   3.393   0.357
12803WAT     H138651   0.912   3.388   0.444
12803WAT     H238652   0.907   3.461   0.298
12804WAT      O38653   4.831   8.724   3.630
12804WAT     H138654   4.860   8.631   3.653
12804WAT     H238655   4.734   8.723   3.606
12805WAT      O38656   7.437   5.027   5.279
12805WAT     H138657   7.392   5.096   5.223
12805WAT     H238658   7.472   4.954   5.221
12806WAT      O38659   5.656   5.200   7.548
12806WAT     H138660   5.619   5.138   7.480
12806WAT     H238661   5.713   5.269   7.503
12807WAT      O38662   5.391   4.294   5.382
12807WAT     H138663   5.356   4.223   5.444
12807WAT     H238664   5.490   4.281   5.369
12808WAT      O38665   8.509   7.334   0.752
12808WAT     H138666   8.501   7.369   0.659
12808WAT     H238667   8.527   7.409   0.815
12809WAT      O38668   7.894   2.482   3.004
12809WAT     H138669   7.897   2.513   2.909
12809WAT     H238670   7.810   2.430   3.019
12810WAT      O38671   6.819   2.120   5.850
12810WAT     H138672   6.784   2.202   5.803
12810WAT     H238673   6.755   2.092   5.921
12811WAT      O38674   7.502   4.808   1.696
12811WAT     H138675   7.568   4.733   1.691
12811WAT     H238676   7.441   4.795   1.774
12812WAT      O38677   3.219   9.234   5.151
12812WAT     H138678   3.227   9.296   5.073
12812WAT     H238679   3.152   9.271   5.216
12813WAT      O38680   8.613   5.031   5.877
12813WAT     H138681   8.516   5.023   5.856
12813WAT     H238682   8.625   5.048   5.975
12814WAT      O38683   8.680   2.774   2.895
12814WAT     H138684   8.741   2.847   2.925
12814WAT     H238685   8.635   2.800   2.810
12815WAT      O38686   9.029   7.274   2.183
12815WAT     H138687   8.997   7.248   2.274
12815WAT     H238688   8.970   7.233   2.114
12816WAT      O38689   4.789   5.299   4.228
12816WAT     H138690   4.697   5.270   4.254
12816WAT     H238691   4.811   5.265   4.137
12817WAT      O38692   5.025   0.819   4.411
12817WAT     H138693   5.036   0.910   4.450
12817WAT     H238694   5.024   0.751   4.484
12818WAT      O38695   0.937   2.437   0.701
12818WAT     H138696   0.900   2.520   0.744
12818WAT     H238697   0.885   2.417   0.618
12819WAT      O38698   0.142   8.121   6.022
12819WAT     H138699   0.184   8.096   6.109
12819WAT     H238700   0.172   8.212   5.995
12820WAT      O38701   7.109   9.565   0.718
12820WAT     H138702   7.110   9.490   0.783
12820WAT     H238703   7.201   9.603   0.709
12821WAT      O38704   5.676   9.669   1.790
12821WAT     H138705   5.719   9.591   1.744
12821WAT     H238706   5.720   9.684   1.879
12822WAT      O38707   8.863   8.666   7.174
12822WAT     H138708   8.899   8.751   7.137
12822WAT     H238709   8.883   8.591   7.111
12823WAT      O38710   5.281   4.312   8.537
12823WAT     H138711   5.269   4.355   8.626
12823WAT     H238712   5.256   4.376   8.465
12824WAT      O38713   0.201   4.183   8.811
12824WAT     H138714   0.107   4.207   8.789
12824WAT     H238715   0.262   4.220   8.741
12825WAT      O38716   1.442   3.510   2.900
12825WAT     H138717   1.388   3.594   2.899
12825WAT     H238718   1.479   3.495   2.992
12826WAT      O38719   3.036   4.662   1.894
12826WAT     H138720   3.066   4.698   1.983
12826WAT     H238721   2.977   4.729   1.849
12827WAT      O38722   8.918   6.217   6.521
12827WAT     H138723   8.821   6.194   6.511
12827WAT     H238724   8.926   6.307   6.563
12828WAT      O38725   0.203   0.882   5.317
12828WAT     H138726   0.243   0.809   5.262
12828WAT     H238727   0.277   0.937   5.357
12829WAT      O38728   0.936   6.964   5.266
12829WAT     H138729   0.931   6.893   5.336
12829WAT     H238730   1.005   6.938   5.198
12830WAT      O38731   8.139   4.089   8.449
12830WAT     H138732   8.173   3.995   8.453
12830WAT     H238733   8.215   4.151   8.427
12831WAT      O38734   4.099   3.192   0.669
12831WAT     H138735   4.124   3.186   0.765
12831WAT     H238736   4.028   3.124   0.649
12832WAT      O38737   3.725   4.166   0.172
12832WAT     H138738   3.816   4.180   0.133
12832WAT     H238739   3.686   4.254   0.199
12833WAT      O38740   8.152   1.930   5.536
12833WAT     H138741   8.213   1.980   5.599
12833WAT     H238742   8.110   1.995   5.473
12834WAT      O38743   4.573   4.604   3.016
12834WAT     H138744   4.668   4.634   3.022
12834WAT     H238745   4.549   4.556   3.101
12835WAT      O38746   6.709   2.961   6.115
12835WAT     H138747   6.614   2.985   6.097
12835WAT     H238748   6.764   2.977   6.034
12836WAT      O38749   2.012   2.758   6.760
12836WAT     H138750   1.915   2.780   6.770
12836WAT     H238751   2.068   2.837   6.787
12837WAT      O38752   9.611   2.938   5.389
12837WAT     H138753   9.528   2.882   5.385
12837WAT     H238754   9.691   2.878   5.392
12838WAT      O38755   9.520   1.506   6.294
12838WAT     H138756   9.555   1.527   6.385
12838WAT     H238757   9.593   1.521   6.226
12839WAT      O38758   3.411   1.065   9.510
12839WAT     H138759   3.442   1.113   9.593
12839WAT     H238760   3.428   1.123   9.430
12840WAT      O38761   1.987   8.523   5.271
12840WAT     H138762   1.912   8.465   5.303
12840WAT     H238763   2.058   8.466   5.231
12841WAT      O38764   5.073   5.003   1.312
12841WAT     H138765   5.057   4.983   1.409
12841WAT     H238766   5.107   4.921   1.266
12842WAT      O38767   1.005   6.085   9.333
12842WAT     H138768   0.995   6.152   9.407
12842WAT     H238769   1.048   6.128   9.254
12843WAT      O38770   1.677   2.337   7.258
12843WAT     H138771   1.730   2.255   7.237
12843WAT     H238772   1.699   2.408   7.191
12844WAT      O38773   3.289   8.400   8.611
12844WAT     H138774   3.200   8.406   8.564
12844WAT     H238775   3.276   8.413   8.709
12845WAT      O38776   7.374   7.236   2.281
12845WAT     H138777   7.303   7.191   2.228
12845WAT     H238778   7.391   7.328   2.244
12846WAT      O38779   0.245   2.291   4.811
12846WAT     H138780   0.252   2.191   4.812
12846WAT     H238781   0.243   2.326   4.905
12847WAT      O38782   8.678   2.795   5.381
12847WAT     H138783   8.760   2.788   5.437
12847WAT     H238784   8.651   2.703   5.349
12848WAT      O38785   8.753   5.627   4.723
12848WAT     H138786   8.684   5.688   4.761
12848WAT     H238787   8.830   5.681   4.688
12849WAT      O38788   4.968   7.932   1.787
12849WAT     H138789   5.057   7.921   1.832
12849WAT     H238790   4.901   7.873   1.832
12850WAT      O38791   5.544   3.409   4.060
12850WAT     H138792   5.455   3.429   4.099
12850WAT     H238793   5.577   3.488   4.008
12851WAT      O38794   4.970   1.826   1.786
12851WAT     H138795   5.010   1.916   1.799
12851WAT     H238796   4.980   1.798   1.690
12852WAT      O38797   6.031   1.950   5.286
12852WAT     H138798   5.997   1.856   5.281
12852WAT     H238799   6.126   1.950   5.317
12853WAT      O38800   5.817   6.649   4.713
12853WAT     H138801   5.754   6.634   4.637
12853WAT     H238802   5.782   6.604   4.795
12854WAT      O38803   5.816   6.862   0.739
12854WAT     H138804   5.823   6.763   0.750
12854WAT     H238805   5.891   6.908   0.786
12855WAT      O38806   3.630   9.323   0.569
12855WAT     H138807   3.575   9.372   0.502
12855WAT     H238808   3.571   9.280   0.636
12856WAT      O38809   1.172   3.341   3.845
12856WAT     H138810   1.269   3.362   3.836
12856WAT     H238811   1.122   3.378   3.766
12857WAT      O38812   1.685   3.353   5.648
12857WAT     H138813   1.649   3.390   5.562
12857WAT     H238814   1.743   3.422   5.692
12858WAT      O38815   2.628   5.385   0.119
12858WAT     H138816   2.672   5.375   0.208
12858WAT     H238817   2.529   5.385   0.131
12859WAT      O38818   3.071   8.440   2.148
12859WAT     H138819   2.978   8.432   2.182
12859WAT     H238820   3.113   8.523   2.186
12860WAT      O38821   5.161   1.419   7.662
12860WAT     H138822   5.095   1.348   7.640
12860WAT     H238823   5.187   1.412   7.758
12861WAT      O38824   7.817   6.296   1.270
12861WAT     H138825   7.809   6.394   1.252
12861WAT     H238826   7.865   6.282   1.356
12862WAT      O38827   7.173   5.250   5.514
12862WAT     H138828   7.158   5.222   5.420
12862WAT     H238829   7.160   5.349   5.523
12863WAT      O38830   5.175   0.639   6.995
12863WAT     H138831   5.082   0.639   7.032
12863WAT     H238832   5.240   0.618   7.069
12864WAT      O38833   3.982   0.394   9.198
12864WAT     H138834   4.027   0.405   9.287
12864WAT     H238835   4.018   0.312   9.153
12865WAT      O38836   8.393   5.532   6.195
12865WAT     H138837   8.387   5.470   6.116
12865WAT     H238838   8.482   5.576   6.196
12866WAT      O38839   2.359   6.528   1.157
12866WAT     H138840   2.285   6.462   1.142
12866WAT     H238841   2.414   6.535   1.074
12867WAT      O38842   1.845   8.677   2.891
12867WAT     H138843   1.883   8.769   2.892
12867WAT     H238844   1.745   8.683   2.886
12868WAT      O38845   5.250   2.063   3.211
12868WAT     H138846   5.280   2.137   3.272
12868WAT     H238847   5.170   2.018   3.250
12869WAT      O38848   0.253   4.145   8.363
12869WAT     H138849   0.177   4.082   8.382
12869WAT     H238850   0.313   4.149   8.443
12870WAT      O38851   0.354   2.506   2.530
12870WAT     H138852   0.414   2.528   2.607
12870WAT     H238853   0.267   2.554   2.541
12871WAT      O38854   9.010   8.318   9.561
12871WAT     H138855   9.048   8.296   9.651
12871WAT     H238856   8.985   8.233   9.514
12872WAT      O38857   8.854   8.086   9.628
12872WAT     H138858   8.916   8.029   9.682
12872WAT     H238859   8.818   8.034   9.551
12873WAT      O38860   9.630   8.854   6.994
12873WAT     H138861   9.670   8.944   6.980
12873WAT     H238862   9.640   8.828   7.090
12874WAT      O38863   2.405   8.691   7.262
12874WAT     H138864   2.476   8.647   7.317
12874WAT     H238865   2.380   8.778   7.303
12875WAT      O38866   9.357   2.718   1.515
12875WAT     H138867   9.294   2.773   1.460
12875WAT     H238868   9.322   2.713   1.609
12876WAT      O38869   6.609   3.818   5.714
12876WAT     H138870   6.617   3.880   5.636
12876WAT     H238871   6.548   3.742   5.691
12877WAT      O38872   1.622   6.654   6.037
12877WAT     H138873   1.623   6.578   5.972
12877WAT     H238874   1.539   6.707   6.025
12878WAT      O38875   2.859   6.017   2.734
12878WAT     H138876   2.822   6.024   2.641
12878WAT     H238877   2.943   5.963   2.733
12879WAT      O38878   1.047   8.846   7.169
12879WAT     H138879   1.135   8.805   7.192
12879WAT     H238880   0.981   8.826   7.242
12880WAT      O38881   7.875   5.730   2.105
12880WAT     H138882   7.933   5.767   2.177
12880WAT     H238883   7.931   5.705   2.026
12881WAT      O38884   7.817   7.658   6.020
12881WAT     H138885   7.788   7.665   6.116
12881WAT     H238886   7.820   7.749   5.980
12882WAT      O38887   3.069   3.203   1.391
12882WAT     H138888   3.072   3.250   1.479
12882WAT     H238889   3.160   3.170   1.367
12883WAT      O38890   8.792   7.398   7.647
12883WAT     H138891   8.714   7.399   7.708
12883WAT     H238892   8.787   7.475   7.584
12884WAT      O38893   9.706   8.091   6.546
12884WAT     H138894   9.620   8.106   6.498
12884WAT     H238895   9.761   8.024   6.496
12885WAT      O38896   3.011   8.519   8.666
12885WAT     H138897   2.919   8.502   8.700
12885WAT     H238898   3.013   8.605   8.615
12886WAT      O38899   4.588   9.622   4.908
12886WAT     H138900   4.654   9.582   4.845
12886WAT     H238901   4.522   9.678   4.857
12887WAT      O38902   9.225   0.919   3.226
12887WAT     H138903   9.303   0.909   3.165
12887WAT     H238904   9.248   0.985   3.299
12888WAT      O38905   2.320   0.471   6.428
12888WAT     H138906   2.289   0.404   6.496
12888WAT     H238907   2.419   0.483   6.435
12889WAT      O38908   0.539   5.146   7.362
12889WAT     H138909   0.577   5.097   7.284
12889WAT     H238910   0.454   5.192   7.336
12890WAT      O38911   6.568   1.666   5.732
12890WAT     H138912   6.612   1.607   5.665
12890WAT     H238913   6.634   1.732   5.768
12891WAT      O38914   1.810   5.990   8.953
12891WAT     H138915   1.818   6.088   8.971
12891WAT     H238916   1.786   5.976   8.857
12892WAT      O38917   0.046   5.788   5.375
12892WAT     H138918   0.004   5.717   5.432
12892WAT     H238919   0.145   5.776   5.375
12893WAT      O38920   2.537   4.360   5.712
12893WAT     H138921   2.527   4.459   5.711
12893WAT     H238922   2.533   4.327   5.807
12894WAT      O38923   0.991   9.358   8.241
12894WAT     H138924   1.036   9.343   8.329
12894WAT     H238925   1.057   9.392   8.174
12895WAT      O38926   7.315   6.260   7.524
12895WAT     H138927   7.312   6.337   7.588
12895WAT     H238928   7.312   6.174   7.576
12896WAT      O38929   1.438   6.046   9.513
12896WAT     H138930   1.423   5.950   9.490
12896WAT     H238931   1.427   6.059   9.612
12897WAT      O38932   6.079   8.178   1.537
12897WAT     H138933   6.166   8.173   1.488
12897WAT     H238934   6.088   8.133   1.626
12898WAT      O38935   2.266   1.253   1.884
12898WAT     H138936   2.355   1.284   1.852
12898WAT     H238937   2.216   1.212   1.808
12899WAT      O38938   5.332   5.125   0.566
12899WAT     H138939   5.334   5.049   0.631
12899WAT     H238940   5.425   5.151   0.541
12900WAT      O38941   1.430   8.090   0.453
12900WAT     H138942   1.403   8.128   0.542
12900WAT     H238943   1.506   8.144   0.416
12901WAT      O38944   2.210   5.308   6.852
12901WAT     H138945   2.279   5.355   6.907
12901WAT     H238946   2.210   5.210   6.874
12902WAT      O38947   4.689   3.343   4.810
12902WAT     H138948   4.708   3.377   4.718
12902WAT     H238949   4.622   3.270   4.805
12903WAT      O38950   0.182   6.477   3.830
12903WAT     H138951   0.211   6.555   3.886
12903WAT     H238952   0.250   6.404   3.837
12904WAT      O38953   3.833   9.390   6.811
12904WAT     H138954   3.760   9.445   6.770
12904WAT     H238955   3.852   9.423   6.903
12905WAT      O38956   2.324   6.021   1.662
12905WAT     H138957   2.278   5.932   1.671
12905WAT     H238958   2.373   6.024   1.575
12906WAT      O38959   8.142   7.554   1.374
12906WAT     H138960   8.180   7.491   1.442
12906WAT     H238961   8.170   7.648   1.395
12907WAT      O38962   1.464   6.837   5.038
12907WAT     H138963   1.411   6.772   4.983
12907WAT     H238964   1.422   6.845   5.129
12908WAT      O38965   1.340   6.303   8.486
12908WAT     H138966   1.311   6.386   8.533
12908WAT     H238967   1.415   6.325   8.424
12909WAT      O38968   3.994   0.379   0.120
12909WAT     H138969   3.957   0.454   0.174
12909WAT     H238970   3.920   0.335   0.069
12910WAT      O38971   8.575   7.235   8.200
12910WAT     H138972   8.528   7.313   8.159
12910WAT     H238973   8.513   7.187   8.262
12911WAT      O38974   1.229   1.886   2.778
12911WAT     H138975   1.327   1.875   2.760
12911WAT     H238976   1.177   1.859   2.697
12912WAT      O38977   7.536   6.093   0.899
12912WAT     H138978   7.498   6.040   0.824
12912WAT     H238979   7.632   6.068   0.913
12913WAT      O38980   8.696   8.296   5.102
12913WAT     H138981   8.693   8.302   5.202
12913WAT     H238982   8.739   8.210   5.074
12914WAT      O38983   3.363   4.525   0.132
12914WAT     H138984   3.324   4.492   0.046
12914WAT     H238985   3.304   4.497   0.208
12915WAT      O38986   7.399   4.319   1.925
12915WAT     H138987   7.485   4.267   1.930
12915WAT     H238988   7.340   4.279   1.855
12916WAT      O38989   5.782   2.382   6.628
12916WAT     H138990   5.872   2.350   6.598
12916WAT     H238991   5.788   2.412   6.723
12917WAT      O38992   2.712   5.362   0.403
12917WAT     H138993   2.683   5.418   0.481
12917WAT     H238994   2.686   5.267   0.418
12918WAT      O38995   4.621   4.110   0.180
12918WAT     H138996   4.676   4.186   0.215
12918WAT     H238997   4.626   4.033   0.244
12919WAT      O38998   2.780   2.537   5.527
12919WAT     H138999   2.721   2.549   5.607
12919WAT     H239000   2.725   2.546   5.444
12920WAT      O39001   0.425   0.465   5.081
12920WAT     H139002   0.376   0.412   5.012
12920WAT     H239003   0.392   0.440   5.172
12921WAT      O39004   3.771   2.873   7.561
12921WAT     H139005   3.848   2.934   7.543
12921WAT     H239006   3.781   2.790   7.506
12922WAT      O39007   8.334   3.725   7.633
12922WAT     H139008   8.382   3.813   7.633
12922WAT     H239009   8.382   3.661   7.573
12923WAT      O39010   1.170   8.025   6.400
12923WAT     H139011   1.180   8.112   6.353
12923WAT     H239012   1.211   8.032   6.491
12924WAT      O39013   5.835   2.803   5.111
12924WAT     H139014   5.753   2.793   5.054
12924WAT     H239015   5.827   2.743   5.191
12925WAT      O39016   3.597   7.828   5.490
12925WAT     H139017   3.603   7.864   5.397
12925WAT     H239018   3.541   7.889   5.547
12926WAT      O39019   0.105   6.147   8.097
12926WAT     H139020   0.017   6.127   8.055
12926WAT     H239021   0.105   6.111   8.191
12927WAT      O39022   4.163   2.794   8.375
12927WAT     H139023   4.105   2.718   8.343
12927WAT     H239024   4.106   2.865   8.416
12928WAT      O39025   5.643   4.066   6.822
12928WAT     H139026   5.593   3.981   6.808
12928WAT     H239027   5.691   4.063   6.909
12929WAT      O39028   1.837   8.480   3.690
12929WAT     H139029   1.908   8.544   3.661
12929WAT     H239030   1.800   8.433   3.609
12930WAT      O39031   2.542   4.144   1.830
12930WAT     H139032   2.490   4.136   1.745
12930WAT     H239033   2.484   4.119   1.907
12931WAT      O39034   8.604   1.198   5.698
12931WAT     H139035   8.588   1.287   5.655
12931WAT     H239036   8.685   1.156   5.658
12932WAT      O39037   2.941   3.363   6.777
12932WAT     H139038   2.894   3.394   6.860
12932WAT     H239039   3.039   3.379   6.787
12933WAT      O39040   2.658   8.454   8.368
12933WAT     H139041   2.626   8.547   8.382
12933WAT     H239042   2.688   8.442   8.274
12934WAT      O39043   6.374   7.645   6.291
12934WAT     H139044   6.276   7.629   6.302
12934WAT     H239045   6.398   7.633   6.194
12935WAT      O39046   2.216   9.543   2.620
12935WAT     H139047   2.126   9.505   2.599
12935WAT     H239048   2.206   9.635   2.658
12936WAT      O39049   7.251   5.054   4.327
12936WAT     H139050   7.212   4.964   4.305
12936WAT     H239051   7.273   5.103   4.243
12937WAT      O39052   4.495   5.190   0.145
12937WAT     H139053   4.480   5.218   0.050
12937WAT     H239054   4.525   5.268   0.199
12938WAT      O39055   2.104   9.818   3.770
12938WAT     H139056   2.139   9.763   3.693
12938WAT     H239057   2.035   9.882   3.736
12939WAT      O39058   8.299   5.644   2.642
12939WAT     H139059   8.271   5.726   2.691
12939WAT     H239060   8.372   5.666   2.578
12940WAT      O39061   1.195   8.367   3.929
12940WAT     H139062   1.213   8.393   3.834
12940WAT     H239063   1.231   8.276   3.947
12941WAT      O39064   0.385   8.138   3.496
12941WAT     H139065   0.330   8.080   3.555
12941WAT     H239066   0.456   8.183   3.549
12942WAT      O39067   9.661   7.570   5.890
12942WAT     H139068   9.755   7.596   5.870
12942WAT     H239069   9.599   7.622   5.831
12943WAT      O39070   8.164   0.514   8.585
12943WAT     H139071   8.258   0.542   8.605
12943WAT     H239072   8.101   0.571   8.637
12944WAT      O39073   6.895   1.882   4.214
12944WAT     H139074   6.843   1.955   4.171
12944WAT     H239075   6.892   1.800   4.156
12945WAT      O39076   3.147   3.950   3.099
12945WAT     H139077   3.127   4.048   3.102
12945WAT     H239078   3.080   3.904   3.040
12946WAT      O39079   4.796   7.761   1.942
12946WAT     H139080   4.819   7.671   1.979
12946WAT     H239081   4.744   7.751   1.857
12947WAT      O39082   9.693   5.881   0.212
12947WAT     H139083   9.772   5.923   0.258
12947WAT     H239084   9.645   5.950   0.159
12948WAT      O39085   4.503   6.128   4.717
12948WAT     H139086   4.584   6.185   4.732
12948WAT     H239087   4.428   6.185   4.683
12949WAT      O39088   4.455   6.012   0.838
12949WAT     H139089   4.355   6.003   0.841
12949WAT     H239090   4.481   6.068   0.760
12950WAT      O39091   7.533   2.385   6.978
12950WAT     H139092   7.604   2.455   6.976
12950WAT     H239093   7.482   2.386   6.892
12951WAT      O39094   2.578   3.525   3.660
12951WAT     H139095   2.509   3.455   3.645
12951WAT     H239096   2.605   3.565   3.572
12952WAT      O39097   9.508   3.902   0.502
12952WAT     H139098   9.486   3.831   0.435
12952WAT     H239099   9.607   3.911   0.509
12953WAT      O39100   1.224   8.046   0.120
12953WAT     H139101   1.284   8.124   0.101
12953WAT     H239102   1.184   8.056   0.211
12954WAT      O39103   0.705   9.272   6.324
12954WAT     H139104   0.772   9.345   6.336
12954WAT     H239105   0.745   9.200   6.267
12955WAT      O39106   0.828   6.978   2.685
12955WAT     H139107   0.729   6.990   2.690
12955WAT     H239108   0.856   6.899   2.738
12956WAT      O39109   4.468   7.018   5.841
12956WAT     H139110   4.429   7.083   5.776
12956WAT     H239111   4.402   6.945   5.859
12957WAT      O39112   6.157   6.131   8.837
12957WAT     H139113   6.079   6.071   8.853
12957WAT     H239114   6.185   6.124   8.741
12958WAT      O39115   4.112   9.848   2.292
12958WAT     H139116   4.104   9.810   2.199
12958WAT     H239117   4.052   9.797   2.353
12959WAT      O39118   5.270   7.038   5.977
12959WAT     H139119   5.201   7.056   6.046
12959WAT     H239120   5.243   6.959   5.922
12960WAT      O39121   3.625   1.196   2.828
12960WAT     H139122   3.647   1.108   2.869
12960WAT     H239123   3.531   1.194   2.793
12961WAT      O39124   9.309   0.564   8.272
12961WAT     H139125   9.312   0.582   8.174
12961WAT     H239126   9.319   0.466   8.288
12962WAT      O39127   1.173   1.126   7.234
12962WAT     H139128   1.226   1.149   7.152
12962WAT     H239129   1.172   1.026   7.246
12963WAT      O39130   8.776   9.601   5.404
12963WAT     H139131   8.714   9.522   5.405
12963WAT     H239132   8.766   9.650   5.317
12964WAT      O39133   5.914   1.412   3.997
12964WAT     H139134   5.876   1.504   3.984
12964WAT     H239135   5.897   1.383   4.091
12965WAT      O39136   6.192   9.597   4.659
12965WAT     H139137   6.238   9.653   4.728
12965WAT     H239138   6.102   9.569   4.693
12966WAT      O39139   7.826   8.364   0.026
12966WAT     H139140   7.925   8.371   0.016
12966WAT     H239141   7.803   8.346   0.122
12967WAT      O39142   4.810   8.504   2.590
12967WAT     H139143   4.906   8.525   2.573
12967WAT     H239144   4.773   8.449   2.515
12968WAT      O39145   4.058   9.200   8.879
12968WAT     H139146   4.070   9.114   8.829
12968WAT     H239147   4.144   9.223   8.925
12969WAT      O39148   9.820   6.517   3.886
12969WAT     H139149   9.901   6.525   3.827
12969WAT     H239150   9.739   6.544   3.834
12970WAT      O39151   6.792   8.536   5.508
12970WAT     H139152   6.838   8.458   5.552
12970WAT     H239153   6.815   8.620   5.558
12971WAT      O39154   3.481   0.140   9.337
12971WAT     H139155   3.390   0.177   9.319
12971WAT     H239156   3.525   0.194   9.410
12972WAT      O39157   3.442   4.971   2.579
12972WAT     H139158   3.369   4.944   2.642
12972WAT     H239159   3.477   4.890   2.532
12973WAT      O39160   7.769   5.264   2.427
12973WAT     H139161   7.743   5.300   2.517
12973WAT     H239162   7.708   5.188   2.403
12974WAT      O39163   0.693   7.283   3.135
12974WAT     H139164   0.611   7.226   3.131
12974WAT     H239165   0.772   7.231   3.102
12975WAT      O39166   0.297   9.648   9.633
12975WAT     H139167   0.378   9.694   9.599
12975WAT     H239168   0.290   9.661   9.732
12976WAT      O39169   8.063   5.823   7.596
12976WAT     H139170   8.121   5.902   7.576
12976WAT     H239171   8.095   5.778   7.680
12977WAT      O39172   8.798   4.345   9.706
12977WAT     H139173   8.820   4.387   9.794
12977WAT     H239174   8.718   4.285   9.717
12978WAT      O39175   1.595   5.391   9.739
12978WAT     H139176   1.633   5.336   9.663
12978WAT     H239177   1.670   5.428   9.793
12979WAT      O39178   8.305   1.012   6.230
12979WAT     H139179   8.290   1.111   6.238
12979WAT     H239180   8.323   0.989   6.134
12980WAT      O39181   5.337   1.872   0.053
12980WAT     H139182   5.361   1.776   0.066
12980WAT     H239183   5.310   1.911   0.141
12981WAT      O39184   3.967   9.648   3.023
12981WAT     H139185   3.939   9.737   3.060
12981WAT     H239186   3.892   9.610   2.968
12982WAT      O39187   1.281   0.500   7.168
12982WAT     H139188   1.221   0.568   7.209
12982WAT     H239189   1.272   0.504   7.068
12983WAT      O39190   2.456   4.287   1.470
12983WAT     H139191   2.401   4.207   1.444
12983WAT     H239192   2.403   4.370   1.455
12984WAT      O39193   3.045   2.800   9.400
12984WAT     H139194   3.070   2.877   9.459
12984WAT     H239195   2.967   2.826   9.343
12985WAT      O39196   8.474   0.498   6.574
12985WAT     H139197   8.563   0.468   6.609
12985WAT     H239198   8.452   0.587   6.614
12986WAT      O39199   2.553   5.913   8.117
12986WAT     H139200   2.623   5.843   8.103
12986WAT     H239201   2.530   5.955   8.029
12987WAT      O39202   8.022   3.297   6.230
12987WAT     H139203   7.961   3.219   6.220
12987WAT     H239204   8.032   3.345   6.143
12988WAT      O39205   6.058   8.330   9.072
12988WAT     H139206   6.151   8.318   9.038
12988WAT     H239207   5.993   8.309   9.000
12989WAT      O39208   3.969   8.500   5.542
12989WAT     H139209   4.042   8.463   5.485
12989WAT     H239210   3.910   8.559   5.486
12990WAT      O39211   1.290   8.797   3.137
12990WAT     H139212   1.306   8.889   3.174
12990WAT     H239213   1.372   8.742   3.148
12991WAT      O39214   0.627   4.883   0.019
12991WAT     H139215   0.569   4.865  -0.060
12991WAT     H239216   0.587   4.956   0.074
12992WAT      O39217   7.293   9.452   4.681
12992WAT     H139218   7.211   9.504   4.704
12992WAT     H239219   7.374   9.500   4.715
12993WAT      O39220   5.395   9.693   1.477
12993WAT     H139221   5.415   9.789   1.457
12993WAT     H239222   5.463   9.635   1.432
12994WAT      O39223   3.193   0.044   3.272
12994WAT     H139224   3.163   0.065   3.179
12994WAT     H239225   3.137  -0.030   3.309
12995WAT      O39226   8.508   0.199   5.629
12995WAT     H139227   8.542   0.211   5.722
12995WAT     H239228   8.581   0.166   5.571
12996WAT      O39229   5.476   1.388   4.350
12996WAT     H139230   5.485   1.288   4.349
12996WAT     H239231   5.446   1.418   4.441
12997WAT      O39232   2.850   8.795   7.269
12997WAT     H139233   2.865   8.833   7.178
12997WAT     H239234   2.935   8.800   7.322
12998WAT      O39235   6.666   0.319   6.628
12998WAT     H139236   6.758   0.280   6.631
12998WAT     H239237   6.607   0.271   6.693
12999WAT      O39238   1.399   1.592   1.125
12999WAT     H139239   1.496   1.613   1.135
12999WAT     H239240   1.387   1.521   1.056
13000WAT      O39241   4.550   2.896   1.821
13000WAT     H139242   4.499   2.817   1.788
13000WAT     H239243   4.631   2.865   1.871
13001WAT      O39244   5.646   6.743   0.995
13001WAT     H139245   5.548   6.722   0.989
13001WAT     H239246   5.697   6.678   0.938
13002WAT      O39247   4.399   4.084   5.616
13002WAT     H139248   4.429   4.004   5.564
13002WAT     H239249   4.324   4.058   5.677
13003WAT      O39250   0.511   6.348   9.151
13003WAT     H139251   0.427   6.323   9.200
13003WAT     H239252   0.557   6.266   9.120
13004WAT      O39253   3.802   8.645   0.383
13004WAT     H139254   3.747   8.725   0.358
13004WAT     H239255   3.886   8.675   0.428
13005WAT      O39256   2.790   8.574   0.417
13005WAT     H139257   2.809   8.499   0.354
13005WAT     H239258   2.765   8.537   0.506
13006WAT      O39259   8.233   6.774   3.568
13006WAT     H139260   8.185   6.716   3.502
13006WAT     H239261   8.184   6.861   3.578
13007WAT      O39262   3.031   3.629   1.557
13007WAT     H139263   3.062   3.690   1.484
13007WAT     H239264   2.958   3.673   1.608
13008WAT      O39265   6.205   8.067   9.749
13008WAT     H139266   6.150   8.036   9.671
13008WAT     H239267   6.287   8.010   9.757
13009WAT      O39268   4.398   2.252   8.307
13009WAT     H139269   4.415   2.273   8.403
13009WAT     H239270   4.319   2.191   8.300
13010WAT      O39271   8.901   2.349   6.651
13010WAT     H139272   8.955   2.432   6.667
13010WAT     H239273   8.957   2.269   6.673
13011WAT      O39274   1.609   4.040   2.651
13011WAT     H139275   1.564   3.951   2.654
13011WAT     H239276   1.704   4.030   2.679
13012WAT      O39277   8.450   5.632   8.238
13012WAT     H139278   8.433   5.720   8.282
13012WAT     H239279   8.365   5.578   8.237
13013WAT      O39280   5.980   7.772   2.902
13013WAT     H139281   6.014   7.744   2.992
13013WAT     H239282   5.908   7.840   2.913
13014WAT      O39283   6.428   6.374   4.812
13014WAT     H139284   6.407   6.308   4.739
13014WAT     H239285   6.469   6.456   4.772
13015WAT      O39286   4.002   2.618   2.948
13015WAT     H139287   3.943   2.620   2.867
13015WAT     H239288   3.986   2.534   2.999
13016WAT      O39289   9.773   6.999   6.773
13016WAT     H139290   9.754   6.916   6.826
13016WAT     H239291   9.689   7.053   6.765
13017WAT      O39292   9.361   7.000   0.923
13017WAT     H139293   9.407   6.964   1.004
13017WAT     H239294   9.303   7.078   0.948
13018WAT      O39295   3.151   1.931   4.986
13018WAT     H139296   3.140   1.832   4.996
13018WAT     H239297   3.247   1.955   5.002
13019WAT      O39298   1.463   6.058   8.557
13019WAT     H139299   1.411   6.140   8.534
13019WAT     H239300   1.415   6.006   8.627
13020WAT      O39301   5.993   7.184   4.653
13020WAT     H139302   6.048   7.115   4.700
13020WAT     H239303   5.960   7.146   4.566
13021WAT      O39304   5.967   8.778   3.281
13021WAT     H139305   5.982   8.874   3.259
13021WAT     H239306   5.938   8.728   3.199
13022WAT      O39307   3.906   7.508   6.975
13022WAT     H139308   3.913   7.420   7.023
13022WAT     H239309   3.871   7.577   7.039
13023WAT      O39310   6.847   4.411   0.303
13023WAT     H139311   6.751   4.383   0.301
13023WAT     H239312   6.875   4.427   0.398
13024WAT      O39313   6.720   4.645   8.696
13024WAT     H139314   6.721   4.723   8.759
13024WAT     H239315   6.626   4.625   8.669
13025WAT      O39316   1.363   4.965   9.633
13025WAT     H139317   1.271   4.981   9.669
13025WAT     H239318   1.366   4.988   9.536
13026WAT      O39319   2.952   3.342   1.915
13026WAT     H139320   2.958   3.385   2.005
13026WAT     H239321   3.029   3.280   1.902
13027WAT      O39322   0.949   5.658   7.550
13027WAT     H139323   0.984   5.727   7.613
13027WAT     H239324   0.850   5.670   7.541
13028WAT      O39325   3.431   1.918   5.056
13028WAT     H139326   3.426   1.933   5.154
13028WAT     H239327   3.526   1.899   5.030
13029WAT      O39328   1.469   1.123   2.369
13029WAT     H139329   1.413   1.173   2.302
13029WAT     H239330   1.502   1.038   2.327
13030WAT      O39331   0.292   1.599   7.751
13030WAT     H139332   0.212   1.589   7.810
13030WAT     H239333   0.361   1.656   7.797
13031WAT      O39334   8.079   0.210   1.105
13031WAT     H139335   8.004   0.201   1.039
13031WAT     H239336   8.135   0.289   1.082
13032WAT      O39337   7.809   2.780   2.678
13032WAT     H139338   7.853   2.743   2.596
13032WAT     H239339   7.773   2.705   2.733
13033WAT      O39340   6.611   7.874   0.939
13033WAT     H139341   6.687   7.891   1.002
13033WAT     H239342   6.595   7.775   0.933
13034WAT      O39343   9.052   7.036   6.576
13034WAT     H139344   9.135   6.991   6.542
13034WAT     H239345   9.075   7.099   6.649
13035WAT      O39346   8.281   1.071   3.121
13035WAT     H139347   8.270   1.003   3.194
13035WAT     H239348   8.201   1.130   3.117
13036WAT      O39349   8.154   2.875   0.260
13036WAT     H139350   8.203   2.835   0.182
13036WAT     H239351   8.219   2.895   0.333
13037WAT      O39352   1.970   3.543   6.388
13037WAT     H139353   1.935   3.449   6.387
13037WAT     H239354   2.068   3.542   6.407
13038WAT      O39355   9.409   6.196   5.479
13038WAT     H139356   9.339   6.263   5.456
13038WAT     H239357   9.405   6.176   5.577
13039WAT      O39358   1.110   6.605   5.442
13039WAT     H139359   1.020   6.641   5.420
13039WAT     H239360   1.160   6.671   5.498
13040WAT      O39361   1.586   1.336   0.605
13040WAT     H139362   1.639   1.420   0.603
13040WAT     H239363   1.639   1.261   0.566
13041WAT      O39364   2.577   9.724   9.136
13041WAT     H139365   2.551   9.641   9.087
13041WAT     H239366   2.570   9.803   9.075
13042WAT      O39367   5.433   1.637   2.545
13042WAT     H139368   5.367   1.583   2.493
13042WAT     H239369   5.525   1.620   2.509
13043WAT      O39370   4.632   2.504   7.616
13043WAT     H139371   4.567   2.431   7.596
13043WAT     H239372   4.621   2.578   7.551
13044WAT      O39373   2.761   2.910   6.100
13044WAT     H139374   2.741   2.882   6.194
13044WAT     H239375   2.691   2.972   6.068
13045WAT      O39376   7.558   3.203   1.922
13045WAT     H139377   7.586   3.292   1.886
13045WAT     H239378   7.484   3.166   1.866
13046WAT      O39379   4.406   6.001   2.776
13046WAT     H139380   4.357   6.003   2.689
13046WAT     H239381   4.349   6.041   2.848
13047WAT      O39382   7.281   1.641   1.778
13047WAT     H139383   7.330   1.601   1.701
13047WAT     H239384   7.276   1.741   1.765
13048WAT      O39385   7.788   8.349   1.039
13048WAT     H139386   7.861   8.416   1.053
13048WAT     H239387   7.827   8.260   1.017
13049WAT      O39388   9.263   4.165   7.320
13049WAT     H139389   9.225   4.228   7.252
13049WAT     H239390   9.212   4.079   7.318
13050WAT      O39391   7.292   3.887   8.928
13050WAT     H139392   7.234   3.948   8.982
13050WAT     H239393   7.246   3.799   8.916
13051WAT      O39394   1.940   1.486   9.262
13051WAT     H139395   2.040   1.497   9.262
13051WAT     H239396   1.913   1.432   9.183
13052WAT      O39397   1.745   4.910   0.983
13052WAT     H139398   1.801   4.981   0.941
13052WAT     H239399   1.663   4.951   1.023
13053WAT      O39400   4.454   6.881   0.092
13053WAT     H139401   4.450   6.917  -0.001
13053WAT     H239402   4.379   6.920   0.146
13054WAT      O39403   7.672   4.425   2.482
13054WAT     H139404   7.573   4.411   2.485
13054WAT     H239405   7.693   4.518   2.512
13055WAT      O39406   2.651   6.186   2.777
13055WAT     H139407   2.721   6.119   2.751
13055WAT     H239408   2.669   6.273   2.729
13056WAT      O39409   5.293   6.834   8.878
13056WAT     H139410   5.349   6.900   8.928
13056WAT     H239411   5.351   6.782   8.816
13057WAT      O39412   2.101   2.791   9.823
13057WAT     H139413   2.192   2.774   9.784
13057WAT     H239414   2.046   2.844   9.758
13058WAT      O39415   6.090   7.048   8.603
13058WAT     H139416   6.181   7.010   8.591
13058WAT     H239417   6.097   7.147   8.618
13059WAT      O39418   5.999   0.632   3.902
13059WAT     H139419   5.923   0.569   3.913
13059WAT     H239420   6.073   0.587   3.851
13060WAT      O39421   3.508   9.127   0.241
13060WAT     H139422   3.454   9.060   0.291
13060WAT     H239423   3.523   9.095   0.148
13061WAT      O39424   9.354   9.047   8.616
13061WAT     H139425   9.425   8.977   8.612
13061WAT     H239426   9.371   9.116   8.546
13062WAT      O39427   2.013   8.342   3.422
13062WAT     H139428   1.975   8.392   3.345
13062WAT     H239429   2.021   8.403   3.501
13063WAT      O39430   2.682   3.557   1.147
13063WAT     H139431   2.766   3.599   1.114
13063WAT     H239432   2.702   3.500   1.227
13064WAT      O39433   7.819   4.770   9.101
13064WAT     H139434   7.788   4.712   9.177
13064WAT     H239435   7.797   4.725   9.015
13065WAT      O39436   1.501   5.914   6.834
13065WAT     H139437   1.440   5.984   6.873
13065WAT     H239438   1.558   5.876   6.907
13066WAT      O39439   4.820   8.690   9.282
13066WAT     H139440   4.803   8.754   9.207
13066WAT     H239441   4.753   8.706   9.354
13067WAT      O39442   1.833   4.563   9.101
13067WAT     H139443   1.795   4.489   9.157
13067WAT     H239444   1.818   4.542   9.004
13068WAT      O39445   3.503   7.644   6.717
13068WAT     H139446   3.529   7.564   6.663
13068WAT     H239447   3.557   7.646   6.801
13069WAT      O39448   1.563   2.481   9.390
13069WAT     H139449   1.597   2.389   9.406
13069WAT     H239450   1.639   2.540   9.362
13070WAT      O39451   2.025   0.691   9.583
13070WAT     H139452   1.947   0.748   9.607
13070WAT     H239453   2.100   0.748   9.549
13071WAT      O39454   3.240   0.110   4.302
13071WAT     H139455   3.179   0.106   4.382
13071WAT     H239456   3.263   0.205   4.284
13072WAT      O39457   1.244   1.624   8.586
13072WAT     H139458   1.154   1.667   8.581
13072WAT     H239459   1.246   1.559   8.663
13073WAT      O39460   3.270   2.537   0.830
13073WAT     H139461   3.237   2.582   0.747
13073WAT     H239462   3.256   2.598   0.908
13074WAT      O39463   7.911   4.480   0.630
13074WAT     H139464   7.815   4.470   0.604
13074WAT     H239465   7.937   4.577   0.626
13075WAT      O39466   6.678   2.736   5.034
13075WAT     H139467   6.750   2.784   5.084
13075WAT     H239468   6.607   2.801   5.007
13076WAT      O39469   7.632   2.915   6.345
13076WAT     H139470   7.563   2.979   6.380
13076WAT     H239471   7.649   2.933   6.249
13077WAT      O39472   1.176   5.651   5.541
13077WAT     H139473   1.276   5.648   5.545
13077WAT     H239474   1.145   5.605   5.458
13078WAT      O39475   0.017   5.703   7.240
13078WAT     H139476  -0.040   5.764   7.295
13078WAT     H239477  -0.038   5.663   7.167
13079WAT      O39478   9.318   4.553   2.251
13079WAT     H139479   9.346   4.648   2.237
13079WAT     H239480   9.370   4.494   2.189
13080WAT      O39481   3.963   6.644   4.524
13080WAT     H139482   3.905   6.718   4.555
13080WAT     H239483   4.016   6.607   4.601
13081WAT      O39484   2.493   7.587   5.427
13081WAT     H139485   2.557   7.605   5.352
13081WAT     H239486   2.468   7.490   5.425
13082WAT      O39487   2.550   2.146   1.520
13082WAT     H139488   2.501   2.087   1.584
13082WAT     H239489   2.500   2.149   1.433
13083WAT      O39490   1.574   3.833   9.858
13083WAT     H139491   1.662   3.801   9.823
13083WAT     H239492   1.556   3.925   9.822
13084WAT      O39493   5.929   7.690   6.061
13084WAT     H139494   5.933   7.672   5.963
13084WAT     H239495   5.854   7.753   6.080
13085WAT      O39496   4.638   4.532   6.845
13085WAT     H139497   4.561   4.589   6.875
13085WAT     H239498   4.723   4.569   6.884
13086WAT      O39499   5.752   6.414   2.916
13086WAT     H139500   5.793   6.325   2.937
13086WAT     H239501   5.740   6.467   3.000
13087WAT      O39502   6.654   9.824   9.217
13087WAT     H139503   6.578   9.806   9.155
13087WAT     H239504   6.635   9.783   9.306
13088WAT      O39505   6.861   1.959   7.471
13088WAT     H139506   6.917   1.906   7.534
13088WAT     H239507   6.768   1.968   7.507
13089WAT      O39508   4.971   8.165   1.958
13089WAT     H139509   4.878   8.202   1.968
13089WAT     H239510   4.966   8.074   1.917
13090WAT      O39511   7.419   9.393   0.599
13090WAT     H139512   7.481   9.391   0.521
13090WAT     H239513   7.404   9.488   0.627
13091WAT      O39514   4.110   6.471   4.728
13091WAT     H139515   4.111   6.543   4.798
13091WAT     H239516   4.204   6.438   4.714
13092WAT      O39517   9.235   8.398   2.673
13092WAT     H139518   9.259   8.390   2.770
13092WAT     H239519   9.236   8.308   2.630
13093WAT      O39520   4.037   9.821   1.769
13093WAT     H139521   4.118   9.878   1.756
13093WAT     H239522   3.955   9.873   1.742
13094WAT      O39523   3.922   2.585   3.897
13094WAT     H139524   3.903   2.498   3.943
13094WAT     H239525   4.000   2.574   3.835
13095WAT      O39526   3.760   0.159   0.832
13095WAT     H139527   3.788   0.164   0.737
13095WAT     H239528   3.809   0.086   0.879
13096WAT      O39529   9.739   6.055   9.042
13096WAT     H139530   9.649   6.085   9.074
13096WAT     H239531   9.760   5.966   9.081
13097WAT      O39532   6.643   4.157   1.608
13097WAT     H139533   6.628   4.079   1.669
13097WAT     H239534   6.555   4.188   1.572
13098WAT      O39535   5.273   3.719   0.486
13098WAT     H139536   5.355   3.664   0.501
13098WAT     H239537   5.209   3.705   0.562
13099WAT      O39538   5.805   9.324   2.617
13099WAT     H139539   5.716   9.284   2.639
13099WAT     H239540   5.863   9.254   2.575
13100WAT      O39541   4.634   2.343   9.508
13100WAT     H139542   4.591   2.356   9.597
13100WAT     H239543   4.619   2.249   9.477
13101WAT      O39544   3.141   6.371   9.220
13101WAT     H139545   3.153   6.449   9.282
13101WAT     H239546   3.064   6.390   9.158
13102WAT      O39547   2.399   4.988   8.565
13102WAT     H139548   2.493   5.006   8.536
13102WAT     H239549   2.371   4.898   8.532
13103WAT      O39550   6.810   8.733   9.392
13103WAT     H139551   6.848   8.711   9.302
13103WAT     H239552   6.711   8.747   9.384
13104WAT      O39553   1.877   2.089   3.232
13104WAT     H139554   1.889   2.141   3.148
13104WAT     H239555   1.877   1.992   3.211
13105WAT      O39556   4.570   0.429   2.728
13105WAT     H139557   4.540   0.442   2.633
13105WAT     H239558   4.652   0.372   2.729
13106WAT      O39559   5.957   7.342   3.500
13106WAT     H139560   5.864   7.356   3.466
13106WAT     H239561   5.972   7.244   3.515
13107WAT      O39562   9.477   2.133   3.204
13107WAT     H139563   9.481   2.098   3.110
13107WAT     H239564   9.389   2.110   3.245
13108WAT      O39565   0.204   5.308   3.241
13108WAT     H139566   0.107   5.282   3.248
13108WAT     H239567   0.257   5.229   3.210
13109WAT      O39568   8.888   7.871   6.648
13109WAT     H139569   8.825   7.820   6.706
13109WAT     H239570   8.854   7.964   6.636
13110WAT      O39571   4.708   5.198   3.086
13110WAT     H139572   4.733   5.200   3.183
13110WAT     H239573   4.616   5.161   3.076
13111WAT      O39574   7.801   1.832   1.124
13111WAT     H139575   7.702   1.831   1.127
13111WAT     H239576   7.837   1.877   1.206
13112WAT      O39577   1.974   0.192   5.040
13112WAT     H139578   2.055   0.192   5.099
13112WAT     H239579   1.965   0.281   4.995
13113WAT      O39580   8.725   6.521   0.646
13113WAT     H139581   8.677   6.602   0.680
13113WAT     H239582   8.659   6.449   0.627
13114WAT      O39583   4.462   1.698   7.029
13114WAT     H139584   4.483   1.605   7.057
13114WAT     H239585   4.392   1.736   7.090
13115WAT      O39586   4.561   5.134   9.617
13115WAT     H139587   4.658   5.155   9.614
13115WAT     H239588   4.519   5.154   9.528
13116WAT      O39589   7.765   5.026   2.992
13116WAT     H139590   7.805   5.111   2.956
13116WAT     H239591   7.667   5.039   3.007
13117WAT      O39592   2.528   2.665   5.455
13117WAT     H139593   2.514   2.630   5.548
13117WAT     H239594   2.439   2.675   5.410
13118WAT      O39595   6.503   7.036   2.623
13118WAT     H139596   6.595   6.998   2.633
13118WAT     H239597   6.450   6.981   2.558
13119WAT      O39598   9.365   5.395   6.993
13119WAT     H139599   9.379   5.494   7.000
13119WAT     H239600   9.390   5.364   6.901
13120WAT      O39601   8.368   4.456   4.266
13120WAT     H139602   8.373   4.362   4.233
13120WAT     H239603   8.432   4.513   4.214
13121WAT      O39604   4.231   7.550   2.936
13121WAT     H139605   4.157   7.616   2.921
13121WAT     H239606   4.317   7.598   2.947
13122WAT      O39607   1.214   4.544   0.273
13122WAT     H139608   1.120   4.519   0.248
13122WAT     H239609   1.251   4.607   0.205
13123WAT      O39610   2.618   5.784   5.376
13123WAT     H139611   2.529   5.739   5.372
13123WAT     H239612   2.634   5.835   5.292
13124WAT      O39613   4.654   4.811   9.874
13124WAT     H139614   4.701   4.821   9.962
13124WAT     H239615   4.591   4.887   9.861
13125WAT      O39616   7.833   6.835   5.351
13125WAT     H139617   7.757   6.888   5.390
13125WAT     H239618   7.799   6.747   5.319
13126WAT      O39619   4.022   3.431   6.975
13126WAT     H139620   4.119   3.453   6.969
13126WAT     H239621   3.990   3.448   7.068
13127WAT      O39622   1.480   8.096   9.718
13127WAT     H139623   1.564   8.083   9.665
13127WAT     H239624   1.419   8.017   9.703
13128WAT      O39625   0.998   5.622   5.121
13128WAT     H139626   0.899   5.614   5.126
13128WAT     H239627   1.039   5.577   5.200
13129WAT      O39628   2.164   5.717   4.326
13129WAT     H139629   2.235   5.781   4.297
13129WAT     H239630   2.202   5.624   4.331
13130WAT      O39631   3.069   8.712   6.772
13130WAT     H139632   3.066   8.614   6.787
13130WAT     H239633   3.112   8.732   6.683
13131WAT      O39634   9.512   9.745   2.407
13131WAT     H139635   9.577   9.718   2.336
13131WAT     H239636   9.524   9.685   2.487
13132WAT      O39637   7.093   9.222   1.885
13132WAT     H139638   7.140   9.208   1.799
13132WAT     H239639   6.994   9.214   1.871
13133WAT      O39640   6.449   2.542   9.101
13133WAT     H139641   6.399   2.624   9.073
13133WAT     H239642   6.420   2.465   9.046
13134WAT      O39643   1.649   1.064   4.974
13134WAT     H139644   1.695   1.149   4.948
13134WAT     H239645   1.552   1.082   4.987
13135WAT      O39646   2.824   5.981   3.570
13135WAT     H139647   2.733   6.015   3.550
13135WAT     H239648   2.826   5.881   3.557
13136WAT      O39649   3.609   4.242   8.363
13136WAT     H139650   3.635   4.205   8.453
13136WAT     H239651   3.632   4.339   8.358
13137WAT      O39652   1.129   9.691   8.236
13137WAT     H139653   1.174   9.747   8.167
13137WAT     H239654   1.140   9.595   8.213
13138WAT      O39655   4.638   1.832   8.869
13138WAT     H139656   4.564   1.823   8.802
13138WAT     H239657   4.720   1.866   8.824
13139WAT      O39658   8.673   3.844   2.482
13139WAT     H139659   8.739   3.832   2.408
13139WAT     H239660   8.580   3.847   2.445
13140WAT      O39661   7.458   1.530   1.167
13140WAT     H139662   7.544   1.567   1.200
13140WAT     H239663   7.475   1.445   1.117
13141WAT      O39664   1.501   4.171   9.219
13141WAT     H139665   1.446   4.194   9.300
13141WAT     H239666   1.445   4.117   9.156
13142WAT      O39667   6.859   5.966   0.937
13142WAT     H139668   6.858   6.043   1.000
13142WAT     H239669   6.768   5.927   0.930
13143WAT      O39670   5.402   4.023   4.946
13143WAT     H139671   5.332   3.956   4.921
13143WAT     H239672   5.420   4.018   5.044
13144WAT      O39673   2.831   8.155   0.963
13144WAT     H139674   2.750   8.104   0.992
13144WAT     H239675   2.874   8.197   1.043
13145WAT      O39676   9.106   1.505   1.053
13145WAT     H139677   9.007   1.518   1.043
13145WAT     H239678   9.129   1.410   1.033
13146WAT      O39679   0.762   5.231   6.556
13146WAT     H139680   0.717   5.225   6.466
13146WAT     H239681   0.695   5.212   6.628
13147WAT      O39682   1.321   5.250   5.644
13147WAT     H139683   1.319   5.164   5.593
13147WAT     H239684   1.228   5.278   5.665
13148WAT      O39685   3.105   8.804   5.465
13148WAT     H139686   3.134   8.878   5.525
13148WAT     H239687   3.126   8.716   5.507
13149WAT      O39688   3.997   2.987   4.179
13149WAT     H139689   4.019   3.042   4.259
13149WAT     H239690   4.047   2.901   4.182
13150WAT      O39691   1.779   9.804   1.014
13150WAT     H139692   1.781   9.763   0.922
13150WAT     H239693   1.797   9.902   1.006
13151WAT      O39694   8.820   2.912   1.329
13151WAT     H139695   8.892   2.844   1.337
13151WAT     H239696   8.750   2.895   1.398
13152WAT      O39697   8.511   7.701   4.890
13152WAT     H139698   8.536   7.700   4.986
13152WAT     H239699   8.533   7.791   4.851
13153WAT      O39700   0.838   0.291   1.325
13153WAT     H139701   0.905   0.318   1.256
13153WAT     H239702   0.758   0.350   1.319
13154WAT      O39703   1.177   8.232   3.058
13154WAT     H139704   1.159   8.322   3.018
13154WAT     H239705   1.267   8.233   3.102
13155WAT      O39706   9.340   1.098   5.113
13155WAT     H139707   9.358   1.004   5.082
13155WAT     H239708   9.244   1.120   5.096
13156WAT      O39709   3.829   3.748   4.780
13156WAT     H139710   3.806   3.733   4.684
13156WAT     H239711   3.751   3.791   4.826
13157WAT      O39712   7.046   5.280   6.408
13157WAT     H139713   7.002   5.286   6.318
13157WAT     H239714   6.992   5.219   6.467
13158WAT      O39715   9.332   6.278   2.868
13158WAT     H139716   9.252   6.301   2.923
13158WAT     H239717   9.415   6.303   2.917
13159WAT      O39718   8.410   5.532   3.792
13159WAT     H139719   8.371   5.556   3.703
13159WAT     H239720   8.450   5.613   3.834
13160WAT      O39721   0.839   9.021   5.840
13160WAT     H139722   0.938   9.015   5.846
13160WAT     H239723   0.804   8.946   5.785
13161WAT      O39724   9.396   5.367   7.817
13161WAT     H139725   9.364   5.422   7.895
13161WAT     H239726   9.365   5.273   7.828
13162WAT      O39727   6.964   7.298   3.559
13162WAT     H139728   6.871   7.283   3.526
13162WAT     H239729   7.014   7.354   3.492
13163WAT      O39730   1.745   4.563   0.570
13163WAT     H139731   1.652   4.600   0.577
13163WAT     H239732   1.741   4.465   0.554
13164WAT      O39733   0.702   7.945   2.160
13164WAT     H139734   0.607   7.914   2.155
13164WAT     H239735   0.748   7.900   2.236
13165WAT      O39736   0.396   4.719   4.507
13165WAT     H139737   0.368   4.689   4.416
13165WAT     H239738   0.441   4.809   4.500
13166WAT      O39739   0.550   0.858   4.703
13166WAT     H139740   0.530   0.820   4.793
13166WAT     H239741   0.487   0.819   4.636
13167WAT      O39742   6.309   0.900   3.081
13167WAT     H139743   6.374   0.831   3.114
13167WAT     H239744   6.359   0.978   3.043
13168WAT      O39745   3.728   4.481   3.034
13168WAT     H139746   3.757   4.547   3.103
13168WAT     H239747   3.722   4.527   2.945
13169WAT      O39748   6.081   2.503   3.029
13169WAT     H139749   6.109   2.569   2.960
13169WAT     H239750   6.093   2.541   3.120
13170WAT      O39751   5.115   5.558   1.129
13170WAT     H139752   5.209   5.545   1.161
13170WAT     H239753   5.090   5.484   1.067
13171WAT      O39754   8.413   5.346   3.018
13171WAT     H139755   8.436   5.293   2.936
13171WAT     H239756   8.314   5.340   3.034
13172WAT      O39757   0.401   2.755   1.980
13172WAT     H139758   0.477   2.691   1.970
13172WAT     H239759   0.392   2.810   1.897
13173WAT      O39760   7.117   5.434   8.450
13173WAT     H139761   7.147   5.460   8.358
13173WAT     H239762   7.104   5.516   8.505
13174WAT      O39763   0.205   8.853   1.991
13174WAT     H139764   0.272   8.883   2.058
13174WAT     H239765   0.156   8.773   2.027
13175WAT      O39766   4.054   2.779   9.532
13175WAT     H139767   4.066   2.740   9.440
13175WAT     H239768   4.013   2.710   9.592
13176WAT      O39769   1.691   5.672   9.529
13176WAT     H139770   1.610   5.729   9.511
13176WAT     H239771   1.684   5.588   9.476
13177WAT      O39772   8.534   5.856   7.665
13177WAT     H139773   8.548   5.771   7.614
13177WAT     H239774   8.516   5.931   7.601
13178WAT      O39775   1.692   1.702   7.015
13178WAT     H139776   1.676   1.606   7.035
13178WAT     H239777   1.753   1.741   7.083
13179WAT      O39778   0.105   1.707   8.290
13179WAT     H139779   0.080   1.754   8.206
13179WAT     H239780   0.178   1.758   8.336
13180WAT      O39781   5.944   8.920   4.178
13180WAT     H139782   6.017   8.860   4.148
13180WAT     H239783   5.877   8.931   4.104
13181WAT      O39784   7.612   8.041   6.346
13181WAT     H139785   7.603   7.985   6.429
13181WAT     H239786   7.701   8.087   6.347
13182WAT      O39787   8.066   1.195   4.717
13182WAT     H139788   8.142   1.153   4.767
13182WAT     H239789   7.980   1.150   4.743
13183WAT      O39790   5.604   7.708   8.704
13183WAT     H139791   5.699   7.695   8.677
13183WAT     H239792   5.585   7.806   8.714
13184WAT      O39793   8.086   8.546   2.512
13184WAT     H139794   8.152   8.578   2.581
13184WAT     H239795   8.095   8.602   2.430
13185WAT      O39796   4.724   3.279   6.758
13185WAT     H139797   4.770   3.293   6.670
13185WAT     H239798   4.727   3.365   6.810
13186WAT      O39799   0.764   7.664   6.562
13186WAT     H139800   0.692   7.631   6.624
13186WAT     H239801   0.846   7.607   6.573
13187WAT      O39802   6.597   6.462   7.925
13187WAT     H139803   6.693   6.437   7.939
13187WAT     H239804   6.584   6.492   7.830
13188WAT      O39805   5.412   6.784   2.076
13188WAT     H139806   5.388   6.824   2.164
13188WAT     H239807   5.462   6.698   2.091
13189WAT      O39808   4.746   4.764   9.631
13189WAT     H139809   4.720   4.674   9.597
13189WAT     H239810   4.716   4.774   9.726
13190WAT      O39811   2.435   7.825   2.193
13190WAT     H139812   2.512   7.884   2.173
13190WAT     H239813   2.361   7.842   2.127
13191WAT      O39814   4.948   1.212   3.077
13191WAT     H139815   4.899   1.235   2.993
13191WAT     H239816   4.999   1.127   3.064
13192WAT      O39817   7.525   3.997   2.036
13192WAT     H139818   7.611   4.045   2.021
13192WAT     H239819   7.476   3.990   1.949
13193WAT      O39820   4.722   1.044   5.438
13193WAT     H139821   4.623   1.055   5.435
13193WAT     H239822   4.764   1.098   5.364
13194WAT      O39823   3.203   4.280   8.894
13194WAT     H139824   3.155   4.193   8.881
13194WAT     H239825   3.229   4.290   8.990
13195WAT      O39826   9.078   5.880   3.534
13195WAT     H139827   9.010   5.845   3.599
13195WAT     H239828   9.110   5.806   3.476
13196WAT      O39829   9.593   6.928   1.128
13196WAT     H139830   9.607   7.025   1.111
13196WAT     H239831   9.647   6.900   1.207
13197WAT      O39832   7.017   2.517   0.215
13197WAT     H139833   7.073   2.506   0.297
13197WAT     H239834   6.959   2.437   0.203
13198WAT      O39835   0.949   7.891   6.523
13198WAT     H139836   1.030   7.931   6.480
13198WAT     H239837   0.956   7.791   6.520
13199WAT      O39838   3.425   7.587   3.259
13199WAT     H139839   3.490   7.646   3.211
13199WAT     H239840   3.467   7.555   3.345
13200WAT      O39841   4.282   3.495   9.810
13200WAT     H139842   4.212   3.565   9.795
13200WAT     H239843   4.331   3.515   9.895
13201WAT      O39844   6.765   9.770   4.982
13201WAT     H139845   6.804   9.768   5.074
13201WAT     H239846   6.802   9.849   4.932
13202WAT      O39847   2.215   4.640   2.460
13202WAT     H139848   2.120   4.616   2.439
13202WAT     H239849   2.275   4.564   2.435
13203WAT      O39850   7.517   7.205   0.513
13203WAT     H139851   7.531   7.196   0.415
13203WAT     H239852   7.438   7.151   0.541
13204WAT      O39853   1.536   6.056   5.127
13204WAT     H139854   1.449   6.074   5.080
13204WAT     H239855   1.611   6.098   5.076
13205WAT      O39856   0.983   2.650   7.052
13205WAT     H139857   1.020   2.573   7.000
13205WAT     H239858   1.057   2.713   7.078
13206WAT      O39859   1.677   5.890   5.279
13206WAT     H139860   1.635   5.961   5.222
13206WAT     H239861   1.625   5.805   5.268
13207WAT      O39862   7.287   6.362   0.573
13207WAT     H139863   7.200   6.314   0.560
13207WAT     H239864   7.277   6.431   0.645
13208WAT      O39865   8.642   2.019   5.056
13208WAT     H139866   8.558   2.053   5.099
13208WAT     H239867   8.655   1.923   5.081
13209WAT      O39868   2.902   0.114   2.712
13209WAT     H139869   2.938   0.065   2.791
13209WAT     H239870   2.823   0.169   2.740
13210WAT      O39871   1.545   8.419   3.006
13210WAT     H139872   1.637   8.387   3.031
13210WAT     H239873   1.500   8.351   2.948
13211WAT      O39874   1.993   3.825   1.523
13211WAT     H139875   1.896   3.848   1.532
13211WAT     H239876   2.009   3.784   1.433
13212WAT      O39877   3.227   8.705   7.777
13212WAT     H139878   3.223   8.623   7.834
13212WAT     H239879   3.242   8.678   7.682
13213WAT      O39880   1.167   4.910   5.785
13213WAT     H139881   1.206   4.947   5.869
13213WAT     H239882   1.241   4.892   5.719
13214WAT      O39883   9.495   4.471   5.646
13214WAT     H139884   9.569   4.425   5.597
13214WAT     H239885   9.432   4.403   5.682
13215WAT      O39886   6.624   1.635   8.787
13215WAT     H139887   6.550   1.699   8.766
13215WAT     H239888   6.616   1.606   8.882
13216WAT      O39889   4.425   6.123   3.339
13216WAT     H139890   4.442   6.032   3.300
13216WAT     H239891   4.392   6.184   3.268
13217WAT      O39892   4.319   7.336   6.767
13217WAT     H139893   4.321   7.282   6.683
13217WAT     H239894   4.230   7.326   6.812
13218WAT      O39895   3.120   5.534   9.165
13218WAT     H139896   3.199   5.581   9.125
13218WAT     H239897   3.046   5.532   9.099
13219WAT      O39898   7.972   8.050   5.361
13219WAT     H139899   7.935   8.062   5.270
13219WAT     H239900   8.070   8.032   5.355
13220WAT      O39901   2.837   8.388   9.427
13220WAT     H139902   2.900   8.377   9.349
13220WAT     H239903   2.757   8.439   9.397
13221WAT      O39904   0.070   6.032   9.267
13221WAT     H139905   0.013   5.953   9.247
13221WAT     H239906   0.016   6.116   9.259
13222WAT      O39907   3.185   1.846   3.704
13222WAT     H139908   3.191   1.946   3.711
13222WAT     H239909   3.258   1.805   3.760
13223WAT      O39910   8.224   0.940   5.768
13223WAT     H139911   8.290   0.898   5.706
13223WAT     H239912   8.149   0.980   5.716
13224WAT      O39913   0.586   3.180   1.624
13224WAT     H139914   0.591   3.242   1.545
13224WAT     H239915   0.535   3.098   1.598
13225WAT      O39916   0.548   9.773   2.276
13225WAT     H139917   0.616   9.766   2.203
13225WAT     H239918   0.590   9.744   2.363
13226WAT      O39919   8.740   3.319   3.425
13226WAT     H139920   8.739   3.236   3.480
13226WAT     H239921   8.731   3.295   3.328
13227WAT      O39922   1.532   8.969   2.272
13227WAT     H139923   1.619   8.950   2.226
13227WAT     H239924   1.540   9.053   2.326
13228WAT      O39925   1.874   1.865   5.054
13228WAT     H139926   1.796   1.806   5.035
13228WAT     H239927   1.858   1.955   5.014
13229WAT      O39928   2.665   2.063   0.782
13229WAT     H139929   2.743   2.120   0.757
13229WAT     H239930   2.658   1.986   0.719
13230WAT      O39931   7.353   1.148   7.311
13230WAT     H139932   7.426   1.091   7.348
13230WAT     H239933   7.269   1.094   7.306
13231WAT      O39934   6.377   0.606   2.296
13231WAT     H139935   6.369   0.700   2.328
13231WAT     H239936   6.449   0.559   2.348
13232WAT      O39937   4.769   9.484   4.482
13232WAT     H139938   4.759   9.561   4.419
13232WAT     H239939   4.691   9.422   4.472
13233WAT      O39940   2.775   9.167   1.198
13233WAT     H139941   2.752   9.240   1.133
13233WAT     H239942   2.875   9.159   1.203
13234WAT      O39943   0.539   1.259   5.467
13234WAT     H139944   0.512   1.350   5.437
13234WAT     H239945   0.458   1.203   5.482
13235WAT      O39946   3.229   0.418   0.277
13235WAT     H139947   3.307   0.356   0.265
13235WAT     H239948   3.255   0.493   0.338
13236WAT      O39949   7.672   4.611   1.678
13236WAT     H139950   7.763   4.644   1.704
13236WAT     H239951   7.679   4.561   1.592
13237WAT      O39952   6.322   5.881   3.028
13237WAT     H139953   6.352   5.972   3.055
13237WAT     H239954   6.297   5.882   2.931
13238WAT      O39955   6.861   4.005   4.433
13238WAT     H139956   6.921   3.990   4.354
13238WAT     H239957   6.815   4.093   4.425
13239WAT      O39958   5.978   8.042   4.265
13239WAT     H139959   5.900   7.988   4.235
13239WAT     H239960   6.045   7.983   4.308
13240WAT      O39961   9.820   2.082   0.050
13240WAT     H139962   9.864   2.129   0.126
13240WAT     H239963   9.850   1.986   0.049
13241WAT      O39964   9.592   6.377   4.307
13241WAT     H139965   9.622   6.456   4.359
13241WAT     H239966   9.649   6.367   4.225
13242WAT      O39967   8.488   8.711   8.485
13242WAT     H139968   8.481   8.716   8.585
13242WAT     H239969   8.569   8.761   8.454
13243WAT      O39970   4.531   3.296   6.038
13243WAT     H139971   4.541   3.230   5.963
13243WAT     H239972   4.459   3.362   6.016
13244WAT      O39973   3.237   5.274   8.395
13244WAT     H139974   3.326   5.232   8.411
13244WAT     H239975   3.250   5.367   8.361
13245WAT      O39976   0.387   0.679   7.852
13245WAT     H139977   0.355   0.738   7.778
13245WAT     H239978   0.469   0.719   7.893
13246WAT      O39979   7.150   4.397   1.354
13246WAT     H139980   7.085   4.455   1.403
13246WAT     H239981   7.104   4.314   1.323
13247WAT      O39982   3.737   4.834   8.055
13247WAT     H139983   3.781   4.921   8.034
13247WAT     H239984   3.777   4.796   8.139
13248WAT      O39985   0.032   6.644   7.955
13248WAT     H139986   0.066   6.738   7.946
13248WAT     H239987  -0.055   6.635   7.905
13249WAT      O39988   7.758   0.427   5.284
13249WAT     H139989   7.839   0.380   5.250
13249WAT     H239990   7.680   0.407   5.224
13250WAT      O39991   3.462   6.401   6.869
13250WAT     H139992   3.560   6.417   6.880
13250WAT     H239993   3.429   6.454   6.790
13251WAT      O39994   8.121   9.708   2.861
13251WAT     H139995   8.104   9.660   2.775
13251WAT     H239996   8.218   9.731   2.869
13252WAT      O39997   8.250   0.852   6.442
13252WAT     H139998   8.266   0.916   6.367
13252WAT     H239999   8.259   0.759   6.408
13253WAT      O40000   8.330   5.496   0.807
13253WAT     H140001   8.271   5.453   0.739
13253WAT     H240002   8.315   5.595   0.807
13254WAT      O40003   2.109   7.746   0.894
13254WAT     H140004   2.019   7.711   0.917
13254WAT     H240005   2.171   7.732   0.970
13255WAT      O40006   8.286   7.082   6.094
13255WAT     H140007   8.233   7.075   6.178
13255WAT     H240008   8.337   6.997   6.079
13256WAT      O40009   8.726   4.523   3.532
13256WAT     H140010   8.759   4.611   3.498
13256WAT     H240011   8.627   4.516   3.519
13257WAT      O40012   5.773   5.467   9.357
13257WAT     H140013   5.842   5.395   9.367
13257WAT     H240014   5.682   5.425   9.352
13258WAT      O40015   1.831   2.430   3.466
13258WAT     H140016   1.812   2.332   3.468
13258WAT     H240017   1.928   2.445   3.485
13259WAT      O40018   2.463   8.007   6.788
13259WAT     H140019   2.459   8.094   6.836
13259WAT     H240020   2.374   7.985   6.750
13260WAT      O40021   8.001   3.364   6.484
13260WAT     H140022   7.921   3.342   6.539
13260WAT     H240023   7.994   3.319   6.395
13261WAT      O40024   4.489   3.642   1.156
13261WAT     H140025   4.571   3.685   1.117
13261WAT     H240026   4.453   3.699   1.229
13262WAT      O40027   3.823   5.878   3.482
13262WAT     H140028   3.900   5.889   3.418
13262WAT     H240029   3.817   5.783   3.511
13263WAT      O40030   3.300   8.568   1.642
13263WAT     H140031   3.360   8.489   1.632
13263WAT     H240032   3.205   8.540   1.631
13264WAT      O40033   9.733   5.365   5.890
13264WAT     H140034   9.820   5.412   5.877
13264WAT     H240035   9.740   5.272   5.852
13265WAT      O40036   2.782   6.335   3.882
13265WAT     H140037   2.782   6.381   3.794
13265WAT     H240038   2.752   6.240   3.871
13266WAT      O40039   1.107   9.794   5.095
13266WAT     H140040   1.048   9.829   5.168
13266WAT     H240041   1.051   9.755   5.023
13267WAT      O40042   3.590   2.298   9.052
13267WAT     H140043   3.522   2.275   9.123
13267WAT     H240044   3.668   2.344   9.095
13268WAT      O40045   6.300   4.037   8.728
13268WAT     H140046   6.316   4.025   8.630
13268WAT     H240047   6.234   4.111   8.742
13269WAT      O40048   1.240   1.578   4.677
13269WAT     H140049   1.205   1.493   4.638
13269WAT     H240050   1.176   1.653   4.657
13270WAT      O40051   2.877   7.399   9.186
13270WAT     H140052   2.941   7.361   9.252
13270WAT     H240053   2.787   7.357   9.199
13271WAT      O40054   7.525   4.889   2.979
13271WAT     H140055   7.475   4.880   3.065
13271WAT     H240056   7.591   4.815   2.971
13272WAT      O40057   4.169   0.292   6.169
13272WAT     H140058   4.134   0.375   6.213
13272WAT     H240059   4.266   0.306   6.146
13273WAT      O40060   5.446   0.881   4.210
13273WAT     H140061   5.358   0.839   4.232
13273WAT     H240062   5.511   0.810   4.184
13274WAT      O40063   2.940   4.559   1.443
13274WAT     H140064   2.856   4.505   1.446
13274WAT     H240065   3.018   4.501   1.466
13275WAT      O40066   3.819   6.741   3.919
13275WAT     H140067   3.809   6.677   3.995
13275WAT     H240068   3.914   6.773   3.914
13276WAT      O40069   0.913   3.840   7.912
13276WAT     H140070   0.954   3.930   7.925
13276WAT     H240071   0.930   3.808   7.819
13277WAT      O40072   4.699   3.215   1.242
13277WAT     H140073   4.639   3.168   1.177
13277WAT     H240074   4.709   3.160   1.324
13278WAT      O40075   2.741   0.764   3.246
13278WAT     H140076   2.826   0.714   3.229
13278WAT     H240077   2.705   0.739   3.335
13279WAT      O40078   0.775   1.477   8.016
13279WAT     H140079   0.828   1.447   8.095
13279WAT     H240080   0.794   1.417   7.938
13280WAT      O40081   9.517   8.091   7.226
13280WAT     H140082   9.555   8.080   7.317
13280WAT     H240083   9.591   8.107   7.161
13281WAT      O40084   1.130   6.882   3.607
13281WAT     H140085   1.125   6.798   3.553
13281WAT     H240086   1.046   6.935   3.596
13282WAT      O40087   9.683   4.691   0.229
13282WAT     H140088   9.639   4.696   0.139
13282WAT     H240089   9.780   4.709   0.219
13283WAT      O40090   8.923   8.413   0.784
13283WAT     H140091   8.971   8.405   0.696
13283WAT     H240092   8.854   8.485   0.777
13284WAT      O40093   1.844   9.411   0.929
13284WAT     H140094   1.918   9.368   0.876
13284WAT     H240095   1.879   9.437   1.019
13285WAT      O40096   1.775   1.514   1.552
13285WAT     H140097   1.814   1.560   1.473
13285WAT     H240098   1.755   1.580   1.624
13286WAT      O40099   0.984   4.580   0.937
13286WAT     H140100   1.009   4.669   0.975
13286WAT     H240101   1.042   4.509   0.976
13287WAT      O40102   0.331   8.302   1.068
13287WAT     H140103   0.401   8.297   0.997
13287WAT     H240104   0.302   8.397   1.079
13288WAT      O40105   3.993   3.152   4.419
13288WAT     H140106   3.980   3.095   4.500
13288WAT     H240107   4.023   3.243   4.446
13289WAT      O40108   8.267   2.369   1.151
13289WAT     H140109   8.212   2.316   1.086
13289WAT     H240110   8.256   2.467   1.133
13290WAT      O40111   4.186   7.178   4.295
13290WAT     H140112   4.220   7.118   4.223
13290WAT     H240113   4.133   7.125   4.361
13291WAT      O40114   0.809   0.368   4.094
13291WAT     H140115   0.775   0.290   4.148
13291WAT     H240116   0.785   0.453   4.141
13292WAT      O40117   2.929   9.706   7.971
13292WAT     H140118   2.935   9.672   8.065
13292WAT     H240119   2.914   9.630   7.909
13293WAT      O40120   0.531   6.060   4.955
13293WAT     H140121   0.542   5.978   5.010
13293WAT     H240122   0.552   6.039   4.859
13294WAT      O40123   8.493   4.914   6.472
13294WAT     H140124   8.463   4.828   6.430
13294WAT     H240125   8.576   4.898   6.525
13295WAT      O40126   1.792   6.999   5.247
13295WAT     H140127   1.719   7.060   5.214
13295WAT     H240128   1.814   7.023   5.342
13296WAT      O40129   2.449   3.505   8.266
13296WAT     H140130   2.537   3.517   8.310
13296WAT     H240131   2.459   3.446   8.185
13297WAT      O40132   7.941   7.173   8.480
13297WAT     H140133   7.852   7.198   8.443
13297WAT     H240134   7.942   7.076   8.503
13298WAT      O40135   2.873   9.745   4.530
13298WAT     H140136   2.778   9.774   4.534
13298WAT     H240137   2.889   9.671   4.595
13299WAT      O40138   3.044   9.832   3.899
13299WAT     H140139   3.127   9.794   3.942
13299WAT     H240140   3.050   9.818   3.800
13300WAT      O40141   0.014   1.773   7.333
13300WAT     H140142   0.053   1.852   7.284
13300WAT     H240143   0.084   1.732   7.392
13301WAT      O40144   2.727   2.502   3.731
13301WAT     H140145   2.651   2.517   3.668
13301WAT     H240146   2.708   2.547   3.818
13302WAT      O40147   2.897   3.840   2.476
13302WAT     H140148   2.888   3.938   2.494
13302WAT     H240149   2.968   3.825   2.408
13303WAT      O40150   0.846   9.179   7.582
13303WAT     H140151   0.796   9.222   7.656
13303WAT     H240152   0.804   9.091   7.559
13304WAT      O40153   5.080   4.567   8.715
13304WAT     H140154   5.030   4.583   8.630
13304WAT     H240155   5.176   4.548   8.694
13305WAT      O40156   8.995   8.874   9.839
13305WAT     H140157   8.906   8.829   9.849
13305WAT     H240158   9.018   8.881   9.742
13306WAT      O40159   0.414   6.885   0.981
13306WAT     H140160   0.405   6.954   0.910
13306WAT     H240161   0.324   6.861   1.017
13307WAT      O40162   3.922   2.724   1.741
13307WAT     H140163   3.914   2.640   1.688
13307WAT     H240164   4.013   2.763   1.728
13308WAT      O40165   9.428   7.656   6.358
13308WAT     H140166   9.372   7.600   6.419
13308WAT     H240167   9.456   7.739   6.405
13309WAT      O40168   8.117   6.160   7.956
13309WAT     H140169   8.052   6.214   7.903
13309WAT     H240170   8.183   6.116   7.895
13310WAT      O40171   5.548   8.386   2.263
13310WAT     H140172   5.529   8.319   2.191
13310WAT     H240173   5.590   8.339   2.341
13311WAT      O40174   3.522   3.533   7.220
13311WAT     H140175   3.522   3.632   7.231
13311WAT     H240176   3.450   3.493   7.278
13312WAT      O40177   0.455   3.399   4.286
13312WAT     H140178   0.444   3.400   4.186
13312WAT     H240179   0.531   3.459   4.311
13313WAT      O40180   9.675   3.621   5.953
13313WAT     H140181   9.600   3.657   6.008
13313WAT     H240182   9.665   3.652   5.858
13314WAT      O40183   9.367   5.480   4.562
13314WAT     H140184   9.319   5.510   4.644
13314WAT     H240185   9.453   5.530   4.553
13315WAT      O40186   4.008   4.459   1.975
13315WAT     H140187   3.997   4.360   1.986
13315WAT     H240188   3.933   4.495   1.921
13316WAT      O40189   2.924   5.678   1.988
13316WAT     H140190   2.990   5.652   2.058
13316WAT     H240191   2.944   5.771   1.957
13317WAT      O40192   3.740   4.288   0.905
13317WAT     H140193   3.726   4.366   0.844
13317WAT     H240194   3.813   4.309   0.970
13318WAT      O40195   4.877   9.635   7.739
13318WAT     H140196   4.930   9.617   7.656
13318WAT     H240197   4.915   9.715   7.786
13319WAT      O40198   4.763   4.284   6.810
13319WAT     H140199   4.710   4.368   6.805
13319WAT     H240200   4.853   4.303   6.850
13320WAT      O40201   5.807   2.466   7.749
13320WAT     H140202   5.904   2.466   7.727
13320WAT     H240203   5.765   2.550   7.714
13321WAT      O40204   1.090   8.726   1.821
13321WAT     H140205   1.125   8.808   1.867
13321WAT     H240206   1.159   8.691   1.759
13322WAT      O40207   7.040   7.417   6.057
13322WAT     H140208   7.108   7.482   6.023
13322WAT     H240209   6.998   7.370   5.980
13323WAT      O40210   4.417   6.915   6.150
13323WAT     H140211   4.361   6.832   6.160
13323WAT     H240212   4.490   6.897   6.083
13324WAT      O40213   9.771   1.374   3.079
13324WAT     H140214   9.691   1.413   3.033
13324WAT     H240215   9.774   1.276   3.063
13325WAT      O40216   5.386   8.539   0.327
13325WAT     H140217   5.451   8.611   0.353
13325WAT     H240218   5.436   8.457   0.299
13326WAT      O40219   8.796   4.274   1.301
13326WAT     H140220   8.758   4.366   1.303
13326WAT     H240221   8.892   4.278   1.275
13327WAT      O40222   7.784   5.926   7.209
13327WAT     H140223   7.776   5.891   7.302
13327WAT     H240224   7.792   5.849   7.145
13328WAT      O40225   5.408   3.398   1.413
13328WAT     H140226   5.344   3.469   1.387
13328WAT     H240227   5.358   3.315   1.438
13329WAT      O40228   9.348   5.228   6.023
13329WAT     H140229   9.262   5.279   6.020
13329WAT     H240230   9.416   5.273   5.965
13330WAT      O40231   0.243   7.476   3.830
13330WAT     H140232   0.341   7.475   3.849
13330WAT     H240233   0.228   7.490   3.733
13331WAT      O40234   3.828   1.357   4.689
13331WAT     H140235   3.881   1.344   4.773
13331WAT     H240236   3.857   1.289   4.621
13332WAT      O40237   9.449   9.651   4.199
13332WAT     H140238   9.443   9.605   4.287
13332WAT     H240239   9.376   9.719   4.192
13333WAT      O40240   2.291   3.820   5.298
13333WAT     H140241   2.361   3.748   5.301
13333WAT     H240242   2.227   3.801   5.223
13334WAT      O40243   1.588   1.518   8.042
13334WAT     H140244   1.649   1.486   7.969
13334WAT     H240245   1.642   1.549   8.120
13335WAT      O40246   0.103   1.419   8.340
13335WAT     H140247   0.069   1.367   8.262
13335WAT     H240248   0.117   1.514   8.312
13336WAT      O40249   6.056   7.867   1.965
13336WAT     H140250   5.984   7.906   2.023
13336WAT     H240251   6.015   7.829   1.883
13337WAT      O40252   6.134   1.562   3.631
13337WAT     H140253   6.166   1.646   3.675
13337WAT     H240254   6.209   1.522   3.578
13338WAT      O40255   0.618   7.096   3.582
13338WAT     H140256   0.572   7.166   3.637
13338WAT     H240257   0.559   7.069   3.506
13339WAT      O40258   4.630   7.881   2.479
13339WAT     H140259   4.536   7.850   2.469
13339WAT     H240260   4.658   7.873   2.574
13340WAT      O40261   4.364   2.254   4.910
13340WAT     H140262   4.402   2.280   4.821
13340WAT     H240263   4.354   2.336   4.966
13341WAT      O40264   7.088   3.481   7.867
13341WAT     H140265   7.163   3.532   7.824
13341WAT     H240266   7.112   3.461   7.962
13342WAT      O40267   0.678   1.100   3.604
13342WAT     H140268   0.600   1.149   3.641
13342WAT     H240269   0.755   1.105   3.668
13343WAT      O40270   7.145   4.013   2.191
13343WAT     H140271   7.099   4.059   2.115
13343WAT     H240272   7.175   3.922   2.163
13344WAT      O40273   1.904   2.615   2.996
13344WAT     H140274   1.827   2.552   3.002
13344WAT     H240275   1.907   2.655   2.904
13345WAT      O40276   7.690   3.394   8.334
13345WAT     H140277   7.672   3.326   8.263
13345WAT     H240278   7.729   3.349   8.414
13346WAT      O40279   1.316   6.469   5.326
13346WAT     H140280   1.237   6.502   5.379
13346WAT     H240281   1.396   6.465   5.385
13347WAT      O40282   5.600   1.966   2.534
13347WAT     H140283   5.639   1.922   2.454
13347WAT     H240284   5.634   1.922   2.617
13348WAT      O40285   1.477   3.309   6.979
13348WAT     H140286   1.477   3.407   6.999
13348WAT     H240287   1.544   3.289   6.907
13349WAT      O40288   7.818   7.452   0.360
13349WAT     H140289   7.798   7.360   0.392
13349WAT     H240290   7.790   7.461   0.264
13350WAT      O40291   5.766   5.189   5.751
13350WAT     H140292   5.808   5.106   5.788
13350WAT     H240293   5.821   5.224   5.675
13351WAT      O40294   7.237   2.798   6.703
13351WAT     H140295   7.209   2.754   6.618
13351WAT     H240296   7.311   2.745   6.745
13352WAT      O40297   5.524   1.764   2.989
13352WAT     H140298   5.519   1.822   3.070
13352WAT     H240299   5.506   1.669   3.014
13353WAT      O40300   4.202   0.555   8.320
13353WAT     H140301   4.148   0.470   8.321
13353WAT     H240302   4.155   0.623   8.265
13354WAT      O40303   7.859   2.144   9.636
13354WAT     H140304   7.830   2.203   9.560
13354WAT     H240305   7.779   2.101   9.677
13355WAT      O40306   4.520   7.869   0.059
13355WAT     H140307   4.587   7.887   0.131
13355WAT     H240308   4.500   7.771   0.056
13356WAT      O40309   0.244   4.137   3.211
13356WAT     H140310   0.299   4.118   3.129
13356WAT     H240311   0.268   4.072   3.283
13357WAT      O40312   2.624   9.200   5.323
13357WAT     H140313   2.639   9.291   5.361
13357WAT     H240314   2.711   9.164   5.286
13358WAT      O40315   0.689   9.644   8.095
13358WAT     H140316   0.767   9.651   8.034
13358WAT     H240317   0.612   9.695   8.057
13359WAT      O40318   5.351   6.155   4.709
13359WAT     H140319   5.398   6.243   4.698
13359WAT     H240320   5.286   6.161   4.785
13360WAT      O40321   5.675   3.434   6.086
13360WAT     H140322   5.618   3.449   6.005
13360WAT     H240323   5.681   3.336   6.105
13361WAT      O40324   1.842   7.798   9.454
13361WAT     H140325   1.902   7.820   9.378
13361WAT     H240326   1.800   7.882   9.488
13362WAT      O40327   9.127   4.068   3.385
13362WAT     H140328   9.165   4.011   3.312
13362WAT     H240329   9.189   4.066   3.463
13363WAT      O40330   8.482   4.837   8.072
13363WAT     H140331   8.457   4.931   8.048
13363WAT     H240332   8.521   4.791   7.992
13364WAT      O40333   4.325   3.439   5.936
13364WAT     H140334   4.294   3.531   5.958
13364WAT     H240335   4.249   3.387   5.895
13365WAT      O40336   8.586   0.366   4.718
13365WAT     H140337   8.592   0.267   4.718
13365WAT     H240338   8.645   0.404   4.647
13366WAT      O40339   2.192   7.620   2.943
13366WAT     H140340   2.177   7.663   3.032
13366WAT     H240341   2.196   7.521   2.955
13367WAT      O40342   3.423   3.947   8.439
13367WAT     H140343   3.400   4.006   8.361
13367WAT     H240344   3.509   3.899   8.421
13368WAT      O40345   5.201   2.602   3.229
13368WAT     H140346   5.116   2.572   3.270
13368WAT     H240347   5.252   2.658   3.295
13369WAT      O40348   2.390   3.260   4.557
13369WAT     H140349   2.418   3.256   4.461
13369WAT     H240350   2.316   3.326   4.567
13370WAT      O40351   5.113   9.481   0.802
13370WAT     H140352   5.135   9.397   0.852
13370WAT     H240353   5.142   9.560   0.855
13371WAT      O40354   3.115   6.216   8.946
13371WAT     H140355   3.093   6.201   8.849
13371WAT     H240356   3.031   6.211   9.000
13372WAT      O40357   4.816   2.272   8.836
13372WAT     H140358   4.878   2.325   8.778
13372WAT     H240359   4.835   2.174   8.825
13373WAT      O40360   3.144   1.029   4.743
13373WAT     H140361   3.097   1.036   4.655
13373WAT     H240362   3.103   0.956   4.798
13374WAT      O40363   3.814   5.284   4.667
13374WAT     H140364   3.821   5.231   4.583
13374WAT     H240365   3.732   5.341   4.664
13375WAT      O40366   4.293   9.329   7.051
13375WAT     H140367   4.223   9.400   7.066
13375WAT     H240368   4.379   9.373   7.024
13376WAT      O40369   8.896   8.875   1.737
13376WAT     H140370   8.980   8.913   1.776
13376WAT     H240371   8.915   8.784   1.700
13377WAT      O40372   4.543   4.207   7.557
13377WAT     H140373   4.598   4.160   7.488
13377WAT     H240374   4.603   4.238   7.631
13378WAT      O40375   8.859   8.211   7.226
13378WAT     H140376   8.890   8.215   7.320
13378WAT     H240377   8.759   8.206   7.224
13379WAT      O40378   7.228   1.464   6.370
13379WAT     H140379   7.217   1.539   6.434
13379WAT     H240380   7.326   1.441   6.361
13380WAT      O40381   0.644   0.749   6.536
13380WAT     H140382   0.619   0.738   6.440
13380WAT     H240383   0.571   0.716   6.594
13381WAT      O40384   6.691   1.625   6.531
13381WAT     H140385   6.727   1.646   6.622
13381WAT     H240386   6.662   1.711   6.487
13382WAT      O40387   0.701   7.850   0.141
13382WAT     H140388   0.686   7.929   0.200
13382WAT     H240389   0.769   7.790   0.184
13383WAT      O40390   2.824   2.930   9.305
13383WAT     H140391   2.770   2.908   9.386
13383WAT     H240392   2.805   3.024   9.277
13384WAT      O40393   2.464   4.422   1.111
13384WAT     H140394   2.533   4.436   1.181
13384WAT     H240395   2.498   4.457   1.023
13385WAT      O40396   4.367   8.446   5.847
13385WAT     H140397   4.271   8.417   5.841
13385WAT     H240398   4.370   8.545   5.859
13386WAT      O40399   1.757   3.772   5.552
13386WAT     H140400   1.825   3.781   5.479
13386WAT     H240401   1.741   3.862   5.594
13387WAT      O40402   2.479   7.170   0.485
13387WAT     H140403   2.518   7.110   0.555
13387WAT     H240404   2.421   7.238   0.529
13388WAT      O40405   2.589   0.732   8.081
13388WAT     H140406   2.568   0.674   8.160
13388WAT     H240407   2.647   0.682   8.018
13389WAT      O40408   6.516   0.352   8.562
13389WAT     H140409   6.563   0.338   8.650
13389WAT     H240410   6.418   0.334   8.574
13390WAT      O40411   8.621   0.150   8.735
13390WAT     H140412   8.636   0.154   8.834
13390WAT     H240413   8.682   0.082   8.694
13391WAT      O40414   8.872   7.303   9.580
13391WAT     H140415   8.826   7.390   9.563
13391WAT     H240416   8.960   7.319   9.623
13392WAT      O40417   8.774   3.817   6.110
13392WAT     H140418   8.819   3.728   6.107
13392WAT     H240419   8.688   3.813   6.059
13393WAT      O40420   0.525   5.814   5.112
13393WAT     H140421   0.560   5.746   5.048
13393WAT     H240422   0.479   5.767   5.188
13394WAT      O40423   3.892   1.867   0.970
13394WAT     H140424   3.800   1.829   0.966
13394WAT     H240425   3.955   1.797   1.004
13395WAT      O40426   3.231   4.207   6.370
13395WAT     H140427   3.330   4.214   6.355
13395WAT     H240428   3.208   4.249   6.457
13396WAT      O40429   0.725   0.548   7.253
13396WAT     H140430   0.661   0.502   7.314
13396WAT     H240431   0.814   0.557   7.299
13397WAT      O40432   1.090   3.944   5.789
13397WAT     H140433   1.036   4.024   5.816
13397WAT     H240434   1.186   3.971   5.781
13398WAT      O40435   8.332   7.378   2.255
13398WAT     H140436   8.419   7.391   2.302
13398WAT     H240437   8.281   7.305   2.299
13399WAT      O40438   3.874   5.892   2.508
13399WAT     H140439   3.833   5.869   2.420
13399WAT     H240440   3.897   5.808   2.557
13400WAT      O40441   5.712   7.461   6.489
13400WAT     H140442   5.807   7.445   6.464
13400WAT     H240443   5.668   7.516   6.417
13401WAT      O40444   2.049   4.653   4.776
13401WAT     H140445   1.955   4.638   4.744
13401WAT     H240446   2.053   4.635   4.875
13402WAT      O40447   7.950   9.073   8.097
13402WAT     H140448   8.039   9.106   8.067
13402WAT     H240449   7.950   9.060   8.196
13403WAT      O40450   0.509   7.231   1.800
13403WAT     H140451   0.479   7.295   1.871
13403WAT     H240452   0.437   7.163   1.785
13404WAT      O40453   3.555   3.802   7.296
13404WAT     H140454   3.475   3.843   7.341
13404WAT     H240455   3.626   3.872   7.286
13405WAT      O40456   4.623   9.490   1.510
13405WAT     H140457   4.628   9.505   1.609
13405WAT     H240458   4.700   9.536   1.466
13406WAT      O40459   5.989   0.411   8.872
13406WAT     H140460   5.938   0.348   8.813
13406WAT     H240461   6.081   0.425   8.833
13407WAT      O40462   4.702   3.497   6.907
13407WAT     H140463   4.631   3.566   6.893
13407WAT     H240464   4.752   3.517   6.991
13408WAT      O40465   4.581   7.725   1.411
13408WAT     H140466   4.524   7.705   1.331
13408WAT     H240467   4.565   7.657   1.482
13409WAT      O40468   5.535   2.666   3.972
13409WAT     H140469   5.533   2.753   3.921
13409WAT     H240470   5.448   2.619   3.960
13410WAT      O40471   2.598   5.878   3.937
13410WAT     H140472   2.555   5.788   3.941
13410WAT     H240473   2.688   5.874   3.980
13411WAT      O40474   3.535   0.915   0.292
13411WAT     H140475   3.615   0.877   0.337
13411WAT     H240476   3.551   0.918   0.193
13412WAT      O40477   4.140   1.985   2.633
13412WAT     H140478   4.153   1.951   2.726
13412WAT     H240479   4.139   1.908   2.569
13413WAT      O40480   1.947   1.546   3.514
13413WAT     H140481   1.922   1.619   3.450
13413WAT     H240482   2.009   1.583   3.583
13414WAT      O40483   6.003   7.266   9.290
13414WAT     H140484   5.986   7.177   9.332
13414WAT     H240485   6.100   7.287   9.293
13415WAT      O40486   9.226   5.937   0.012
13415WAT     H140487   9.158   6.008  -0.004
13415WAT     H240488   9.219   5.905   0.107
13416WAT      O40489   6.025   9.602   5.241
13416WAT     H140490   6.062   9.521   5.286
13416WAT     H240491   5.934   9.622   5.278
13417WAT      O40492   9.218   9.766   2.710
13417WAT     H140493   9.251   9.709   2.785
13417WAT     H240494   9.292   9.825   2.678
13418WAT      O40495   6.236   7.868   5.423
13418WAT     H140496   6.282   7.956   5.432
13418WAT     H240497   6.193   7.843   5.510
13419WAT      O40498   2.843   5.697   6.810
13419WAT     H140499   2.927   5.750   6.820
13419WAT     H240500   2.764   5.758   6.819
13420WAT      O40501   5.638   0.087   1.982
13420WAT     H140502   5.619   0.184   1.967
13420WAT     H240503   5.737   0.073   1.985
13421WAT      O40504   7.027   9.698   2.539
13421WAT     H140505   7.110   9.682   2.485
13421WAT     H240506   6.992   9.612   2.575
13422WAT      O40507   3.706   0.402   9.281
13422WAT     H140508   3.708   0.348   9.365
13422WAT     H240509   3.797   0.406   9.241
13423WAT      O40510   5.474   3.364   5.223
13423WAT     H140511   5.494   3.361   5.321
13423WAT     H240512   5.495   3.275   5.182
13424WAT      O40513   8.677   9.067   4.601
13424WAT     H140514   8.766   9.055   4.556
13424WAT     H240515   8.691   9.097   4.695
13425WAT      O40516   7.537   1.870   7.578
13425WAT     H140517   7.540   1.782   7.530
13425WAT     H240518   7.617   1.924   7.553
13426WAT      O40519   8.893   1.942   1.982
13426WAT     H140520   8.843   1.888   1.914
13426WAT     H240521   8.963   1.996   1.936
13427WAT      O40522   2.453   6.253   6.884
13427WAT     H140523   2.414   6.269   6.975
13427WAT     H240524   2.433   6.331   6.825
13428WAT      O40525   9.189   3.566   7.770
13428WAT     H140526   9.162   3.470   7.779
13428WAT     H240527   9.107   3.623   7.771
13429WAT      O40528   1.667   1.002   1.969
13429WAT     H140529   1.670   0.969   2.064
13429WAT     H240530   1.755   0.987   1.926
13430WAT      O40531   7.347   2.525   6.772
13430WAT     H140532   7.425   2.570   6.731
13430WAT     H240533   7.316   2.450   6.713
13431WAT      O40534   7.077   2.645   4.827
13431WAT     H140535   7.125   2.731   4.811
13431WAT     H240536   7.028   2.618   4.744
13432WAT      O40537   4.617   2.696   7.966
13432WAT     H140538   4.656   2.762   7.902
13432WAT     H240539   4.623   2.731   8.059
13433WAT      O40540   2.535   4.092   4.821
13433WAT     H140541   2.484   4.067   4.903
13433WAT     H240542   2.554   4.011   4.767
13434WAT      O40543   4.615   2.799   0.990
13434WAT     H140544   4.530   2.847   1.009
13434WAT     H240545   4.672   2.855   0.930
13435WAT      O40546   9.465   7.869   0.994
13435WAT     H140547   9.367   7.887   0.993
13435WAT     H240548   9.514   7.954   0.974
13436WAT      O40549   2.153   3.730   1.011
13436WAT     H140550   2.244   3.716   0.972
13436WAT     H240551   2.094   3.772   0.942
13437WAT      O40552   1.819   3.759   9.735
13437WAT     H140553   1.849   3.667   9.712
13437WAT     H240554   1.896   3.823   9.726
13438WAT      O40555   8.393   2.171   6.490
13438WAT     H140556   8.360   2.102   6.554
13438WAT     H240557   8.489   2.192   6.509
13439WAT      O40558   0.213   6.531   0.783
13439WAT     H140559   0.282   6.603   0.788
13439WAT     H240560   0.216   6.476   0.867
13440WAT      O40561   5.216   4.990   0.108
13440WAT     H140562   5.162   4.960   0.186
13440WAT     H240563   5.159   5.046   0.048
13441WAT      O40564   1.569   8.823   5.845
13441WAT     H140565   1.541   8.861   5.757
13441WAT     H240566   1.513   8.864   5.918
13442WAT      O40567   6.542   4.502   7.551
13442WAT     H140568   6.518   4.451   7.633
13442WAT     H240569   6.459   4.536   7.507
13443WAT      O40570   6.898   1.880   1.036
13443WAT     H140571   6.897   1.950   0.965
13443WAT     H240572   6.966   1.904   1.105
13444WAT      O40573   4.063   2.127   6.288
13444WAT     H140574   4.131   2.120   6.361
13444WAT     H240575   4.060   2.220   6.254
13445WAT      O40576   0.750   7.598   6.232
13445WAT     H140577   0.714   7.669   6.293
13445WAT     H240578   0.740   7.627   6.137
13446WAT      O40579   8.774   5.213   1.295
13446WAT     H140580   8.859   5.164   1.314
13446WAT     H240581   8.796   5.303   1.257
13447WAT      O40582   1.521   0.393   6.898
13447WAT     H140583   1.601   0.345   6.861
13447WAT     H240584   1.533   0.408   6.996
13448WAT      O40585   6.064   2.607   7.960
13448WAT     H140586   6.067   2.555   7.874
13448WAT     H240587   6.014   2.692   7.946
13449WAT      O40588   0.668   7.719   9.514
13449WAT     H140589   0.748   7.660   9.503
13449WAT     H240590   0.675   7.769   9.600
13450WAT      O40591   5.301   0.726   9.353
13450WAT     H140592   5.282   0.672   9.271
13450WAT     H240593   5.380   0.785   9.337
13451WAT      O40594   9.235   6.560   6.784
13451WAT     H140595   9.218   6.500   6.706
13451WAT     H240596   9.160   6.626   6.793
13452WAT      O40597   4.609   7.980   4.227
13452WAT     H140598   4.640   7.986   4.132
13452WAT     H240599   4.569   8.068   4.254
13453WAT      O40600   6.749   5.623   9.315
13453WAT     H140601   6.723   5.719   9.326
13453WAT     H240602   6.719   5.591   9.225
13454WAT      O40603   7.840   1.647   2.775
13454WAT     H140604   7.789   1.609   2.852
13454WAT     H240605   7.814   1.600   2.691
13455WAT      O40606   4.636   3.858   5.773
13455WAT     H140607   4.706   3.807   5.823
13455WAT     H240608   4.656   3.956   5.779
13456WAT      O40609   1.006   1.685   9.781
13456WAT     H140610   1.102   1.684   9.753
13456WAT     H240611   0.992   1.754   9.852
13457WAT      O40612   8.768   9.450   1.410
13457WAT     H140613   8.688   9.396   1.438
13457WAT     H240614   8.849   9.391   1.413
13458WAT      O40615   1.388   6.449   4.654
13458WAT     H140616   1.330   6.462   4.735
13458WAT     H240617   1.365   6.517   4.585
13459WAT      O40618   5.865   5.349   7.498
13459WAT     H140619   5.917   5.395   7.426
13459WAT     H240620   5.927   5.293   7.553
13460WAT      O40621   5.290   8.353   2.569
13460WAT     H140622   5.336   8.270   2.538
13460WAT     H240623   5.205   8.366   2.516
13461WAT      O40624   9.303   3.374   0.386
13461WAT     H140625   9.213   3.411   0.410
13461WAT     H240626   9.295   3.315   0.306
13462WAT      O40627   9.605   3.879   3.295
13462WAT     H140628   9.634   3.953   3.355
13462WAT     H240629   9.513   3.849   3.322
13463WAT      O40630   1.282   9.586   2.246
13463WAT     H140631   1.260   9.551   2.336
13463WAT     H240632   1.200   9.584   2.188
13464WAT      O40633   9.810   1.976   1.258
13464WAT     H140634   9.814   1.948   1.354
13464WAT     H240635   9.802   2.076   1.253
13465WAT      O40636   8.973   5.109   3.511
13465WAT     H140637   9.067   5.073   3.508
13465WAT     H240638   8.968   5.191   3.454
13466WAT      O40639   9.554   1.548   5.219
13466WAT     H140640   9.555   1.450   5.238
13466WAT     H240641   9.641   1.574   5.177
13467WAT      O40642   4.608   2.636   2.295
13467WAT     H140643   4.670   2.617   2.370
13467WAT     H240644   4.552   2.716   2.317
13468WAT      O40645   3.884   3.764   6.004
13468WAT     H140646   3.876   3.706   5.923
13468WAT     H240647   3.907   3.707   6.083
13469WAT      O40648   1.410   6.578   9.703
13469WAT     H140649   1.452   6.487   9.710
13469WAT     H240650   1.473   6.646   9.742
13470WAT      O40651   9.708   2.718   4.837
13470WAT     H140652   9.695   2.756   4.928
13470WAT     H240653   9.621   2.685   4.801
13471WAT      O40654   7.979   4.435   8.194
13471WAT     H140655   7.923   4.429   8.276
13471WAT     H240656   8.026   4.523   8.192
13472WAT      O40657   4.727   2.304   5.726
13472WAT     H140658   4.803   2.367   5.740
13472WAT     H240659   4.756   2.229   5.667
13473WAT      O40660   2.642   2.050   3.579
13473WAT     H140661   2.701   2.024   3.655
13473WAT     H240662   2.688   2.119   3.523
13474WAT      O40663   5.552   4.213   6.225
13474WAT     H140664   5.626   4.280   6.238
13474WAT     H240665   5.468   4.262   6.201
13475WAT      O40666   6.412   3.746   8.544
13475WAT     H140667   6.332   3.696   8.577
13475WAT     H240668   6.492   3.723   8.599
13476WAT      O40669   4.181   3.360   6.718
13476WAT     H140670   4.243   3.288   6.688
13476WAT     H240671   4.099   3.361   6.660
13477WAT      O40672   4.404   1.563   9.370
13477WAT     H140673   4.340   1.527   9.303
13477WAT     H240674   4.417   1.496   9.444
13478WAT      O40675   3.124   2.957   7.467
13478WAT     H140676   3.142   2.881   7.403
13478WAT     H240677   3.027   2.980   7.463
13479WAT      O40678   7.827   9.285   4.792
13479WAT     H140679   7.758   9.337   4.742
13479WAT     H240680   7.897   9.347   4.827
13480WAT      O40681   1.485   3.083   3.614
13480WAT     H140682   1.435   3.169   3.602
13480WAT     H240683   1.479   3.054   3.710
13481WAT      O40684   7.879   3.985   1.195
13481WAT     H140685   7.798   4.043   1.209
13481WAT     H240686   7.851   3.900   1.151
13482WAT      O40687   9.641   1.014   1.965
13482WAT     H140688   9.567   1.060   2.015
13482WAT     H240689   9.636   1.038   1.868
13483WAT      O40690   3.035   6.316   0.320
13483WAT     H140691   2.970   6.392   0.316
13483WAT     H240692   3.014   6.257   0.397
13484WAT      O40693   3.048   1.243   0.588
13484WAT     H140694   2.992   1.229   0.669
13484WAT     H240695   3.132   1.188   0.596
13485WAT      O40696   0.858   8.546   8.358
13485WAT     H140697   0.915   8.464   8.364
13485WAT     H240698   0.801   8.540   8.276
13486WAT      O40699   6.618   6.379   5.046
13486WAT     H140700   6.593   6.323   5.125
13486WAT     H240701   6.567   6.349   4.966
13487WAT      O40702   8.608   8.453   7.440
13487WAT     H140703   8.584   8.425   7.533
13487WAT     H240704   8.624   8.371   7.384
13488WAT      O40705   2.574   5.348   6.658
13488WAT     H140706   2.594   5.431   6.606
13488WAT     H240707   2.476   5.327   6.651
13489WAT      O40708   6.914   3.761   0.078
13489WAT     H140709   6.830   3.806   0.046
13489WAT     H240710   6.993   3.818   0.055
13490WAT      O40711   9.661   8.018   9.187
13490WAT     H140712   9.597   8.030   9.112
13490WAT     H240713   9.714   7.934   9.173
13491WAT      O40714   1.197   5.399   1.886
13491WAT     H140715   1.264   5.336   1.923
13491WAT     H240716   1.142   5.352   1.816
13492WAT      O40717   2.362   1.565   1.664
13492WAT     H140718   2.300   1.592   1.739
13492WAT     H240719   2.374   1.642   1.602
13493WAT      O40720   0.937   9.728   6.888
13493WAT     H140721   0.855   9.785   6.883
13493WAT     H240722   0.914   9.635   6.859
13494WAT      O40723   1.336   5.753   5.758
13494WAT     H140724   1.377   5.813   5.689
13494WAT     H240725   1.369   5.660   5.743
13495WAT      O40726   2.104   2.377   3.768
13495WAT     H140727   2.116   2.369   3.669
13495WAT     H240728   2.110   2.474   3.794
13496WAT      O40729   8.171   5.982   3.508
13496WAT     H140730   8.258   5.942   3.538
13496WAT     H240731   8.148   5.947   3.417
13497WAT      O40732   7.879   8.376   6.361
13497WAT     H140733   7.813   8.445   6.332
13497WAT     H240734   7.887   8.378   6.461
13498WAT      O40735   2.001   7.352   5.274
13498WAT     H140736   2.025   7.289   5.201
13498WAT     H240737   2.080   7.410   5.295
13499WAT      O40738   7.719   3.385   9.425
13499WAT     H140739   7.627   3.349   9.439
13499WAT     H240740   7.747   3.438   9.505
13500WAT      O40741   7.606   6.048   4.359
13500WAT     H140742   7.628   6.122   4.423
13500WAT     H240743   7.581   6.087   4.271
13501WAT      O40744   0.958   0.987   7.753
13501WAT     H140745   1.047   0.952   7.725
13501WAT     H240746   0.924   1.051   7.685
13502WAT      O40747   2.531   3.673   5.367
13502WAT     H140748   2.553   3.599   5.303
13502WAT     H240749   2.485   3.636   5.447
13503WAT      O40750   4.830   8.958   8.219
13503WAT     H140751   4.895   9.007   8.277
13503WAT     H240752   4.737   8.983   8.245
13504WAT      O40753   8.711   5.915   4.555
13504WAT     H140754   8.670   5.882   4.640
13504WAT     H240755   8.697   6.014   4.547
13505WAT      O40756   4.827   9.055   5.692
13505WAT     H140757   4.834   9.011   5.602
13505WAT     H240758   4.850   9.152   5.683
13506WAT      O40759   9.189   9.677   7.744
13506WAT     H140760   9.155   9.586   7.718
13506WAT     H240761   9.245   9.669   7.827
13507WAT      O40762   1.874   7.958   1.122
13507WAT     H140763   1.911   8.042   1.162
13507WAT     H240764   1.898   7.953   1.025
13508WAT      O40765   7.702   2.551   4.402
13508WAT     H140766   7.754   2.570   4.319
13508WAT     H240767   7.766   2.541   4.479
13509WAT      O40768   7.547   0.582   3.340
13509WAT     H140769   7.556   0.487   3.312
13509WAT     H240770   7.613   0.603   3.412
13510WAT      O40771   6.522   2.932   3.521
13510WAT     H140772   6.559   3.020   3.552
13510WAT     H240773   6.435   2.915   3.567
13511WAT      O40774   9.692   7.486   8.814
13511WAT     H140775   9.762   7.425   8.849
13511WAT     H240776   9.734   7.574   8.789
13512WAT      O40777   9.240   1.074   2.472
13512WAT     H140778   9.305   1.070   2.396
13512WAT     H240779   9.268   1.008   2.543
13513WAT      O40780   1.957   8.238   6.862
13513WAT     H140781   1.986   8.169   6.927
13513WAT     H240782   1.946   8.196   6.772
13514WAT      O40783   1.075   7.495   8.497
13514WAT     H140784   1.016   7.536   8.567
13514WAT     H240785   1.029   7.417   8.456
13515WAT      O40786   4.505   5.874   4.821
13515WAT     H140787   4.518   5.968   4.791
13515WAT     H240788   4.463   5.821   4.748
13516WAT      O40789   2.290   1.736   7.946
13516WAT     H140790   2.314   1.833   7.944
13516WAT     H240791   2.281   1.706   8.041
13517WAT      O40792   2.672   1.822   8.438
13517WAT     H140793   2.623   1.749   8.486
13517WAT     H240794   2.705   1.889   8.504
13518WAT      O40795   2.848   7.750   7.029
13518WAT     H140796   2.935   7.798   7.025
13518WAT     H240797   2.783   7.793   6.966
13519WAT      O40798   3.133   3.315   7.187
13519WAT     H140799   3.098   3.297   7.279
13519WAT     H240800   3.132   3.413   7.170
13520WAT      O40801   6.998   7.960   8.953
13520WAT     H140802   7.071   8.027   8.967
13520WAT     H240803   7.000   7.929   8.858
13521WAT      O40804   3.783   0.524   8.707
13521WAT     H140805   3.847   0.509   8.782
13521WAT     H240806   3.813   0.471   8.627
13522WAT      O40807   0.098   9.248   6.750
13522WAT     H140808   0.081   9.238   6.848
13522WAT     H240809   0.196   9.259   6.734
13523WAT      O40810   6.757   6.860   7.313
13523WAT     H140811   6.691   6.907   7.371
13523WAT     H240812   6.726   6.861   7.218
13524WAT      O40813   0.383   5.279   2.452
13524WAT     H140814   0.401   5.249   2.545
13524WAT     H240815   0.292   5.320   2.447
13525WAT      O40816   7.993   5.602   1.120
13525WAT     H140817   7.970   5.519   1.069
13525WAT     H240818   7.969   5.589   1.216
13526WAT      O40819   5.631   3.111   1.902
13526WAT     H140820   5.615   3.042   1.973
13526WAT     H240821   5.728   3.134   1.899
13527WAT      O40822   2.332   2.241   0.189
13527WAT     H140823   2.378   2.152   0.184
13527WAT     H240824   2.332   2.274   0.284
13528WAT      O40825   2.447   7.728   4.318
13528WAT     H140826   2.482   7.662   4.251
13528WAT     H240827   2.350   7.709   4.336
13529WAT      O40828   2.395   1.561   9.414
13529WAT     H140829   2.321   1.536   9.352
13529WAT     H240830   2.455   1.627   9.369
13530WAT      O40831   6.022   8.253   9.814
13530WAT     H140832   6.092   8.181   9.815
13530WAT     H240833   5.959   8.239   9.890
13531WAT      O40834   4.539   1.892   8.022
13531WAT     H140835   4.505   1.877   7.930
13531WAT     H240836   4.566   1.804   8.063
13532WAT      O40837   9.066   5.773   3.932
13532WAT     H140838   9.005   5.839   3.976
13532WAT     H240839   9.134   5.821   3.876
13533WAT      O40840   8.417   2.365   9.879
13533WAT     H140841   8.325   2.404   9.867
13533WAT     H240842   8.419   2.273   9.840
13534WAT      O40843   1.639   1.062   4.098
13534WAT     H140844   1.616   1.157   4.077
13534WAT     H240845   1.576   1.027   4.167
13535WAT      O40846   5.875   3.952   9.829
13535WAT     H140847   5.970   3.974   9.804
13535WAT     H240848   5.815   4.027   9.801
13536WAT      O40849   5.746   1.200   6.962
13536WAT     H140850   5.808   1.279   6.960
13536WAT     H240851   5.792   1.122   7.005
13537WAT      O40852   2.720   8.507   0.898
13537WAT     H140853   2.751   8.509   0.803
13537WAT     H240854   2.631   8.552   0.906
13538WAT      O40855   1.728   0.484   4.430
13538WAT     H140856   1.629   0.473   4.419
13538WAT     H240857   1.750   0.581   4.442
13539WAT      O40858   8.662   9.228   8.149
13539WAT     H140859   8.729   9.301   8.163
13539WAT     H240860   8.710   9.141   8.141
13540WAT      O40861   0.518   3.495   1.118
13540WAT     H140862   0.572   3.574   1.148
13540WAT     H240863   0.579   3.420   1.091
13541WAT      O40864   9.345   1.402   5.559
13541WAT     H140865   9.356   1.318   5.506
13541WAT     H240866   9.286   1.465   5.509
13542WAT      O40867   6.228   4.620   9.722
13542WAT     H140868   6.129   4.630   9.724
13542WAT     H240869   6.271   4.704   9.754
13543WAT      O40870   4.790   9.103   9.271
13543WAT     H140871   4.723   9.038   9.234
13543WAT     H240872   4.793   9.096   9.370
13544WAT      O40873   1.678   0.943   8.652
13544WAT     H140874   1.759   0.954   8.710
13544WAT     H240875   1.597   0.929   8.710
13545WAT      O40876   1.191   9.604   5.283
13545WAT     H140877   1.163   9.660   5.206
13545WAT     H240878   1.229   9.663   5.355
13546WAT      O40879   1.326   5.724   6.728
13546WAT     H140880   1.362   5.686   6.643
13546WAT     H240881   1.386   5.797   6.760
13547WAT      O40882   4.847   5.244   9.735
13547WAT     H140883   4.854   5.215   9.640
13547WAT     H240884   4.766   5.302   9.746
13548WAT      O40885   7.116   7.508   3.452
13548WAT     H140886   7.086   7.601   3.431
13548WAT     H240887   7.206   7.493   3.410
13549WAT      O40888   8.204   7.953   4.055
13549WAT     H140889   8.303   7.949   4.040
13549WAT     H240890   8.157   7.970   3.968
13550WAT      O40891   0.798   3.211   0.744
13550WAT     H140892   0.889   3.175   0.766
13550WAT     H240893   0.740   3.137   0.709
13551WAT      O40894   2.246   2.090   3.084
13551WAT     H140895   2.165   2.146   3.067
13551WAT     H240896   2.243   2.009   3.025
13552WAT      O40897   2.779   1.184   8.429
13552WAT     H140898   2.864   1.213   8.385
13552WAT     H240899   2.765   1.087   8.412
13553WAT      O40900   4.534   1.205   3.191
13553WAT     H140901   4.623   1.246   3.213
13553WAT     H240902   4.482   1.191   3.275
13554WAT      O40903   5.799   1.640   6.263
13554WAT     H140904   5.740   1.583   6.321
13554WAT     H240905   5.892   1.604   6.264
13555WAT      O40906   5.551   5.695   5.159
13555WAT     H140907   5.584   5.682   5.253
13555WAT     H240908   5.468   5.642   5.146
13556WAT      O40909   1.668   7.426   2.079
13556WAT     H140910   1.574   7.457   2.068
13556WAT     H240911   1.708   7.471   2.159
13557WAT      O40912   0.488   8.021   7.249
13557WAT     H140913   0.580   8.058   7.234
13557WAT     H240914   0.489   7.922   7.232
13558WAT      O40915   8.835   9.681   9.806
13558WAT     H140916   8.909   9.738   9.768
13558WAT     H240917   8.834   9.690   9.905
13559WAT      O40918   4.681   2.181   7.847
13559WAT     H140919   4.676   2.095   7.797
13559WAT     H240920   4.646   2.167   7.940
13560WAT      O40921   1.740   0.884   8.159
13560WAT     H140922   1.678   0.850   8.089
13560WAT     H240923   1.768   0.977   8.136
13561WAT      O40924   1.760   5.598   2.044
13561WAT     H140925   1.762   5.594   2.144
13561WAT     H240926   1.669   5.627   2.014
13562WAT      O40927   0.678   1.703   2.918
13562WAT     H140928   0.628   1.618   2.929
13562WAT     H240929   0.770   1.684   2.884
13563WAT      O40930   1.374   9.546   0.475
13563WAT     H140931   1.352   9.510   0.565
13563WAT     H240932   1.460   9.506   0.442
13564WAT      O40933   3.470   1.670   6.852
13564WAT     H140934   3.458   1.728   6.772
13564WAT     H240935   3.407   1.699   6.924
13565WAT      O40936   3.565   7.145   5.808
13565WAT     H140937   3.519   7.077   5.865
13565WAT     H240938   3.506   7.226   5.800
13566WAT      O40939   7.190   1.600   4.474
13566WAT     H140940   7.097   1.636   4.485
13566WAT     H240941   7.185   1.506   4.442
13567WAT      O40942   8.489   7.156   7.191
13567WAT     H140943   8.500   7.214   7.110
13567WAT     H240944   8.565   7.172   7.254
13568WAT      O40945   8.052   2.315   4.210
13568WAT     H140946   8.148   2.341   4.206
13568WAT     H240947   8.044   2.223   4.251
13569WAT      O40948   6.160   4.732   4.987
13569WAT     H140949   6.062   4.748   4.970
13569WAT     H240950   6.214   4.785   4.923
13570WAT      O40951   7.684   2.382   4.132
13570WAT     H140952   7.734   2.467   4.150
13570WAT     H240953   7.700   2.317   4.206
13571WAT      O40954   5.905   0.558   1.070
13571WAT     H140955   5.934   0.625   1.001
13571WAT     H240956   5.916   0.597   1.161
13572WAT      O40957   2.249   9.215   7.804
13572WAT     H140958   2.318   9.158   7.758
13572WAT     H240959   2.294   9.274   7.872
13573WAT      O40960   2.987   7.915   2.421
13573WAT     H140961   3.064   7.950   2.368
13573WAT     H240962   2.923   7.868   2.360
13574WAT      O40963   5.283   8.335   8.735
13574WAT     H140964   5.346   8.291   8.799
13574WAT     H240965   5.294   8.294   8.645
13575WAT      O40966   3.029   4.923   0.233
13575WAT     H140967   3.087   4.865   0.290
13575WAT     H240968   3.002   5.004   0.284
13576WAT      O40969   6.104   0.181   3.203
13576WAT     H140970   6.107   0.179   3.103
13576WAT     H240971   6.140   0.268   3.237
13577WAT      O40972   1.628   2.701   1.123
13577WAT     H140973   1.664   2.613   1.091
13577WAT     H240974   1.571   2.686   1.204
13578WAT      O40975   2.182   6.536   7.552
13578WAT     H140976   2.165   6.549   7.650
13578WAT     H240977   2.149   6.616   7.502
13579WAT      O40978   1.382   5.543   4.763
13579WAT     H140979   1.323   5.469   4.731
13579WAT     H240980   1.337   5.590   4.839
13580WAT      O40981   8.087   8.273   8.555
13580WAT     H140982   8.128   8.339   8.493
13580WAT     H240983   8.147   8.194   8.564
13581WAT      O40984   1.486   9.164   2.969
13581WAT     H140985   1.530   9.078   2.993
13581WAT     H240986   1.417   9.187   3.038
13582WAT      O40987   8.418   6.893   2.590
13582WAT     H140988   8.410   6.916   2.687
13582WAT     H240989   8.400   6.974   2.535
13583WAT      O40990   4.994   8.511   3.663
13583WAT     H140991   5.074   8.571   3.655
13583WAT     H240992   4.971   8.499   3.759
13584WAT      O40993   5.699   2.461   4.023
13584WAT     H140994   5.674   2.557   4.007
13584WAT     H240995   5.732   2.451   4.117
13585WAT      O40996   2.626   8.592   5.749
13585WAT     H140997   2.669   8.638   5.827
13585WAT     H240998   2.534   8.630   5.736
13586WAT      O40999   9.149   2.518   6.667
13586WAT     H141000   9.174   2.533   6.571
13586WAT     H241001   9.181   2.428   6.696
13587WAT      O41002   2.027   2.494   8.484
13587WAT     H141003   2.057   2.402   8.458
13587WAT     H241004   2.106   2.553   8.496
13588WAT      O41005   6.876   8.600   7.459
13588WAT     H141006   6.837   8.583   7.369
13588WAT     H241007   6.879   8.515   7.511
13589WAT      O41008   6.152   0.116   8.970
13589WAT     H141009   6.244   0.130   8.933
13589WAT     H241010   6.131   0.188   9.036
13590WAT      O41011   9.746   2.803   5.794
13590WAT     H141012   9.826   2.860   5.811
13590WAT     H241013   9.775   2.709   5.775
13591WAT      O41014   3.937   6.710   2.016
13591WAT     H141015   4.003   6.740   1.948
13591WAT     H241016   3.976   6.636   2.071
13592WAT      O41017   2.509   9.205   2.334
13592WAT     H141018   2.450   9.154   2.272
13592WAT     H241019   2.497   9.303   2.318
13593WAT      O41020   9.786   9.269   0.250
13593WAT     H141021   9.709   9.246   0.310
13593WAT     H241022   9.752   9.323   0.173
13594WAT      O41023   5.447   1.460   8.748
13594WAT     H141024   5.366   1.409   8.776
13594WAT     H241025   5.457   1.542   8.805
13595WAT      O41026   0.242   4.643   7.138
13595WAT     H141027   0.151   4.621   7.102
13595WAT     H241028   0.289   4.703   7.073
13596WAT      O41029   5.992   0.847   4.512
13596WAT     H141030   5.937   0.864   4.594
13596WAT     H241031   6.065   0.915   4.506
13597WAT      O41032   0.833   5.113   8.782
13597WAT     H141033   0.856   5.028   8.734
13597WAT     H241034   0.822   5.093   8.880
13598WAT      O41035   6.111   5.142   1.599
13598WAT     H141036   6.187   5.079   1.580
13598WAT     H241037   6.045   5.097   1.660
13599WAT      O41038   7.696   0.963   9.321
13599WAT     H141039   7.639   0.928   9.395
13599WAT     H241040   7.766   0.895   9.298
13600WAT      O41041   8.211   1.052   0.766
13600WAT     H141042   8.299   1.015   0.793
13600WAT     H241043   8.142   0.980   0.768
13601WAT      O41044   2.410   5.320   7.479
13601WAT     H141045   2.474   5.379   7.529
13601WAT     H241046   2.356   5.375   7.416
13602WAT      O41047   4.497   0.997   4.521
13602WAT     H141048   4.587   1.034   4.546
13602WAT     H241049   4.480   1.016   4.424
13603WAT      O41050   7.813   6.475   6.757
13603WAT     H141051   7.853   6.464   6.666
13603WAT     H241052   7.860   6.549   6.805
13604WAT      O41053   7.896   8.980   3.178
13604WAT     H141054   7.990   8.957   3.205
13604WAT     H241055   7.880   9.077   3.191
13605WAT      O41056   2.819   8.534   3.150
13605WAT     H141057   2.756   8.610   3.132
13605WAT     H241058   2.853   8.498   3.063
13606WAT      O41059   5.724   6.929   5.764
13606WAT     H141060   5.628   6.904   5.754
13606WAT     H241061   5.746   7.005   5.703
13607WAT      O41062   4.708   3.265   8.703
13607WAT     H141063   4.708   3.361   8.679
13607WAT     H241064   4.740   3.211   8.626
13608WAT      O41065   2.992   7.877   0.994
13608WAT     H141066   2.943   7.918   0.917
13608WAT     H241067   3.056   7.944   1.033
13609WAT      O41068   2.959   4.873   3.087
13609WAT     H141069   2.963   4.969   3.061
13609WAT     H241070   2.991   4.863   3.182
13610WAT      O41071   4.021   2.314   9.598
13610WAT     H141072   3.974   2.226   9.588
13610WAT     H241073   4.068   2.338   9.513
13611WAT      O41074   4.292   1.897   1.856
13611WAT     H141075   4.196   1.871   1.870
13611WAT     H241076   4.304   1.993   1.881
13612WAT      O41077   2.491   1.378   1.791
13612WAT     H141078   2.556   1.328   1.733
13612WAT     H241079   2.445   1.448   1.737
13613WAT      O41080   1.522   7.471   2.457
13613WAT     H141081   1.476   7.520   2.384
13613WAT     H241082   1.577   7.534   2.511
13614WAT      O41083   9.158   4.118   0.762
13614WAT     H141084   9.194   4.029   0.733
13614WAT     H241085   9.193   4.140   0.853
13615WAT      O41086   6.895   2.729   2.720
13615WAT     H141087   6.933   2.789   2.650
13615WAT     H241088   6.935   2.752   2.809
13616WAT      O41089   1.665   6.389   2.024
13616WAT     H141090   1.682   6.294   1.998
13616WAT     H241091   1.670   6.448   1.943
13617WAT      O41092   8.072   1.337   1.238
13617WAT     H141093   8.149   1.380   1.191
13617WAT     H241094   8.103   1.253   1.282
13618WAT      O41095   9.078   0.787   5.064
13618WAT     H141096   9.037   0.698   5.045
13618WAT     H241097   9.176   0.784   5.042
13619WAT      O41098   2.384   7.656   2.585
13619WAT     H141099   2.348   7.563   2.584
13619WAT     H241100   2.455   7.665   2.515
13620WAT      O41101   4.175   6.789   4.425
13620WAT     H141102   4.100   6.723   4.423
13620WAT     H241103   4.255   6.750   4.380
13621WAT      O41104   5.775   9.306   7.408
13621WAT     H141105   5.789   9.215   7.447
13621WAT     H241106   5.723   9.363   7.473
13622WAT      O41107   0.347   8.861   0.104
13622WAT     H141108   0.334   8.782   0.164
13622WAT     H241109   0.361   8.943   0.160
13623WAT      O41110   4.985   2.216   4.247
13623WAT     H141111   4.890   2.191   4.227
13623WAT     H241112   4.997   2.314   4.237
13624WAT      O41113   4.867   9.669   9.134
13624WAT     H141114   4.964   9.688   9.146
13624WAT     H241115   4.846   9.665   9.036
13625WAT      O41116   6.903   3.848   2.029
13625WAT     H141117   6.897   3.885   1.936
13625WAT     H241118   6.958   3.765   2.029
13626WAT      O41119   7.672   2.977   1.977
13626WAT     H141120   7.629   3.065   1.958
13626WAT     H241121   7.750   2.991   2.038
13627WAT      O41122   8.153   3.321   5.620
13627WAT     H141123   8.243   3.364   5.618
13627WAT     H241124   8.083   3.391   5.636
13628WAT      O41125   2.302   8.264   6.269
13628WAT     H141126   2.373   8.327   6.302
13628WAT     H241127   2.311   8.253   6.170
13629WAT      O41128   5.441   3.733   4.420
13629WAT     H141129   5.525   3.728   4.366
13629WAT     H241130   5.365   3.763   4.362
13630WAT      O41131   3.425   6.418   9.183
13630WAT     H141132   3.457   6.433   9.090
13630WAT     H241133   3.331   6.384   9.181
13631WAT      O41134   2.082   5.100   6.387
13631WAT     H141135   2.175   5.138   6.387
13631WAT     H241136   2.083   5.008   6.350
13632WAT      O41137   6.605   0.588   7.707
13632WAT     H141138   6.632   0.598   7.612
13632WAT     H241139   6.638   0.667   7.760
13633WAT      O41140   3.557   2.776   9.821
13633WAT     H141141   3.604   2.688   9.825
13633WAT     H241142   3.482   2.777   9.888
13634WAT      O41143   6.661   4.390   9.535
13634WAT     H141144   6.579   4.405   9.590
13634WAT     H241145   6.729   4.341   9.589
13635WAT      O41146   6.873   5.074   9.052
13635WAT     H141147   6.949   5.134   9.028
13635WAT     H241148   6.875   5.055   9.151
13636WAT      O41149   9.823   8.248   4.878
13636WAT     H141150   9.829   8.290   4.787
13636WAT     H241151   9.795   8.317   4.945
13637WAT      O41152   5.690   9.103   4.264
13637WAT     H141153   5.693   9.201   4.287
13637WAT     H241154   5.783   9.066   4.265
13638WAT      O41155   2.310   4.551   7.133
13638WAT     H141156   2.238   4.495   7.091
13638WAT     H241157   2.303   4.544   7.232
13639WAT      O41158   3.577   1.833   2.786
13639WAT     H141159   3.674   1.857   2.784
13639WAT     H241160   3.567   1.739   2.818
13640WAT      O41161   0.512   7.243   2.827
13640WAT     H141162   0.447   7.197   2.765
13640WAT     H241163   0.516   7.340   2.804
13641WAT      O41164   5.828   2.791   3.521
13641WAT     H141165   5.820   2.698   3.485
13641WAT     H241166   5.864   2.788   3.614
13642WAT      O41167   6.633   5.465   9.109
13642WAT     H141168   6.682   5.412   9.040
13642WAT     H241169   6.543   5.490   9.074
13643WAT      O41170   8.711   3.219   5.415
13643WAT     H141171   8.694   3.155   5.340
13643WAT     H241172   8.703   3.170   5.502
13644WAT      O41173   3.310   3.263   8.605
13644WAT     H141174   3.337   3.345   8.554
13644WAT     H241175   3.286   3.289   8.699
13645WAT      O41176   5.264   8.054   4.656
13645WAT     H141177   5.310   8.022   4.738
13645WAT     H241178   5.165   8.041   4.666
13646WAT      O41179   3.925   0.005   3.199
13646WAT     H141180   3.868  -0.064   3.242
13646WAT     H241181   3.907   0.094   3.240
13647WAT      O41182   6.868   8.703   9.069
13647WAT     H141183   6.848   8.700   8.971
13647WAT     H241184   6.926   8.625   9.094
13648WAT      O41185   0.661   3.639   2.949
13648WAT     H141186   0.687   3.543   2.934
13648WAT     H241187   0.685   3.666   3.042
13649WAT      O41188   7.758   7.865   5.870
13649WAT     H141189   7.771   7.908   5.780
13649WAT     H241190   7.662   7.871   5.896
13650WAT      O41191   6.464   1.568   1.745
13650WAT     H141192   6.554   1.525   1.751
13650WAT     H241193   6.401   1.522   1.808
13651WAT      O41194   0.553   1.518   0.135
13651WAT     H141195   0.624   1.528   0.064
13651WAT     H241196   0.463   1.511   0.091
13652WAT      O41197   3.954   2.625   7.581
13652WAT     H141198   4.017   2.553   7.552
13652WAT     H241199   3.997   2.679   7.654
13653WAT      O41200   7.585   3.967   6.627
13653WAT     H141201   7.664   3.935   6.575
13653WAT     H241202   7.614   4.034   6.695
13654WAT      O41203   1.273   4.442   1.639
13654WAT     H141204   1.240   4.513   1.701
13654WAT     H241205   1.366   4.464   1.608
13655WAT      O41206   5.472   9.686   3.581
13655WAT     H141207   5.546   9.644   3.634
13655WAT     H241208   5.489   9.785   3.574
13656WAT      O41209   1.985   2.472   9.510
13656WAT     H141210   1.977   2.557   9.457
13656WAT     H241211   2.041   2.406   9.459
13657WAT      O41212   8.428   5.424   2.699
13657WAT     H141213   8.491   5.490   2.739
13657WAT     H241214   8.342   5.469   2.676
13658WAT      O41215   5.053   0.509   0.126
13658WAT     H141216   5.008   0.533   0.212
13658WAT     H241217   5.142   0.468   0.145
13659WAT      O41218   2.715   3.281   7.148
13659WAT     H141219   2.801   3.233   7.167
13659WAT     H241220   2.639   3.218   7.161
13660WAT      O41221   6.513   7.657   6.054
13660WAT     H141222   6.463   7.680   5.971
13660WAT     H241223   6.602   7.702   6.054
13661WAT      O41224   4.329   5.549   6.705
13661WAT     H141225   4.259   5.485   6.673
13661WAT     H241226   4.413   5.498   6.725
13662WAT      O41227   4.487   2.294   0.273
13662WAT     H141228   4.532   2.254   0.193
13662WAT     H241229   4.407   2.239   0.297
13663WAT      O41230   4.190   7.080   2.361
13663WAT     H141231   4.156   7.166   2.398
13663WAT     H241232   4.115   7.029   2.319
13664WAT      O41233   2.037   9.328   4.243
13664WAT     H141234   2.036   9.228   4.255
13664WAT     H241235   2.071   9.371   4.327
13665WAT      O41236   1.212   0.866   7.268
13665WAT     H141237   1.307   0.851   7.244
13665WAT     H241238   1.177   0.785   7.316
13666WAT      O41239   5.385   3.667   8.297
13666WAT     H141240   5.479   3.633   8.298
13666WAT     H241241   5.360   3.700   8.388
13667WAT      O41242   4.696   1.221   9.210
13667WAT     H141243   4.672   1.310   9.249
13667WAT     H241244   4.777   1.185   9.257
13668WAT      O41245   3.049   7.076   3.756
13668WAT     H141246   3.117   7.094   3.827
13668WAT     H241247   2.979   7.147   3.757
13669WAT      O41248   3.397   5.575   4.539
13669WAT     H141249   3.306   5.544   4.512
13669WAT     H241250   3.414   5.666   4.499
13670WAT      O41251   8.025   6.328   2.201
13670WAT     H141252   8.117   6.327   2.164
13670WAT     H241253   7.990   6.234   2.205
13671WAT      O41254   3.090   0.099   3.009
13671WAT     H141255   3.141   0.125   2.927
13671WAT     H241256   2.999   0.139   3.007
13672WAT      O41257   7.394   3.050   5.120
13672WAT     H141258   7.373   2.955   5.098
13672WAT     H241259   7.483   3.056   5.164
13673WAT      O41260   4.238   0.004   8.653
13673WAT     H141261   4.176  -0.012   8.729
13673WAT     H241262   4.192  -0.017   8.567
13674WAT      O41263   8.079   4.344   2.596
13674WAT     H141264   8.081   4.420   2.661
13674WAT     H241265   7.990   4.298   2.602
13675WAT      O41266   5.105   9.514   1.908
13675WAT     H141267   5.194   9.470   1.916
13675WAT     H241268   5.117   9.608   1.876
13676WAT      O41269   4.005   3.554   3.800
13676WAT     H141270   3.961   3.478   3.847
13676WAT     H241271   4.059   3.607   3.865
13677WAT      O41272   3.434   6.048   6.218
13677WAT     H141273   3.348   6.052   6.167
13677WAT     H241274   3.444   5.957   6.259
13678WAT      O41275   8.565   7.703   2.312
13678WAT     H141276   8.642   7.643   2.293
13678WAT     H241277   8.487   7.648   2.343
13679WAT      O41278   5.614   6.940   8.698
13679WAT     H141279   5.612   7.039   8.695
13679WAT     H241280   5.559   6.903   8.623
13680WAT      O41281   2.369   7.009   4.583
13680WAT     H141282   2.398   6.951   4.659
13680WAT     H241283   2.308   7.081   4.617
13681WAT      O41284   1.706   4.576   3.217
13681WAT     H141285   1.804   4.592   3.202
13681WAT     H241286   1.652   4.640   3.162
13682WAT      O41287   9.621   8.027   7.493
13682WAT     H141288   9.575   7.938   7.506
13682WAT     H241289   9.622   8.076   7.580
13683WAT      O41290   1.900   0.283   2.165
13683WAT     H141291   1.903   0.321   2.258
13683WAT     H241292   1.887   0.184   2.170
13684WAT      O41293   7.593   6.410   3.250
13684WAT     H141294   7.528   6.467   3.301
13684WAT     H241295   7.675   6.463   3.231
13685WAT      O41296   8.044   9.518   4.394
13685WAT     H141297   8.136   9.555   4.404
13685WAT     H241298   7.981   9.592   4.370
13686WAT      O41299   0.050   6.926   0.765
13686WAT     H141300   0.123   6.901   0.703
13686WAT     H241301  -0.037   6.929   0.715
13687WAT      O41302   6.872   8.539   1.479
13687WAT     H141303   6.874   8.498   1.571
13687WAT     H241304   6.914   8.630   1.483
13688WAT      O41305   0.940   3.172   7.739
13688WAT     H141306   0.967   3.226   7.659
13688WAT     H241307   0.855   3.123   7.719
13689WAT      O41308   6.613   6.848   0.238
13689WAT     H141309   6.633   6.784   0.164
13689WAT     H241310   6.572   6.799   0.315
13690WAT      O41311   6.821   5.043   7.081
13690WAT     H141312   6.794   5.055   7.177
13690WAT     H241313   6.750   4.993   7.032
13691WAT      O41314   4.488   1.442   8.715
13691WAT     H141315   4.420   1.386   8.668
13691WAT     H241316   4.442   1.518   8.762
13692WAT      O41317   3.550   8.976   0.682
13692WAT     H141318   3.541   8.923   0.767
13692WAT     H241319   3.476   8.951   0.619
13693WAT      O41320   0.268   7.945   6.638
13693WAT     H141321   0.362   7.919   6.614
13693WAT     H241322   0.213   7.952   6.555
13694WAT      O41323   7.106   5.389   1.613
13694WAT     H141324   7.146   5.309   1.657
13694WAT     H241325   7.127   5.388   1.516
13695WAT      O41326   8.071   7.286   0.597
13695WAT     H141327   8.086   7.238   0.510
13695WAT     H241328   7.986   7.254   0.638
13696WAT      O41329   6.198   0.398   6.147
13696WAT     H141330   6.229   0.492   6.133
13696WAT     H241331   6.109   0.399   6.193
13697WAT      O41332   5.201   7.535   7.062
13697WAT     H141333   5.203   7.446   7.108
13697WAT     H241334   5.253   7.602   7.115
13698WAT      O41335   2.236   8.521   9.695
13698WAT     H141336   2.248   8.507   9.597
13698WAT     H241337   2.263   8.614   9.719
13699WAT      O41338   4.830   5.348   8.877
13699WAT     H141339   4.805   5.442   8.856
13699WAT     H241340   4.879   5.345   8.965
13700WAT      O41341   7.786   6.473   9.584
13700WAT     H141342   7.717   6.481   9.656
13700WAT     H241343   7.756   6.523   9.504
13701WAT      O41344   9.326   0.319   9.034
13701WAT     H141345   9.386   0.396   9.013
13701WAT     H241346   9.322   0.257   8.956
13702WAT      O41347   7.199   9.165   3.323
13702WAT     H141348   7.175   9.158   3.227
13702WAT     H241349   7.176   9.081   3.371
13703WAT      O41350   0.338   0.131   4.555
13703WAT     H141351   0.311   0.044   4.512
13703WAT     H241352   0.387   0.187   4.489
13704WAT      O41353   8.627   2.817   7.589
13704WAT     H141354   8.690   2.883   7.632
13704WAT     H241355   8.640   2.727   7.632
13705WAT      O41356   3.909   4.460   7.958
13705WAT     H141357   3.833   4.415   8.006
13705WAT     H241358   3.968   4.505   8.024
13706WAT      O41359   6.941   7.093   8.719
13706WAT     H141360   6.880   7.163   8.682
13706WAT     H241361   7.032   7.132   8.735
13707WAT      O41362   8.971   5.344   3.901
13707WAT     H141363   8.942   5.357   3.806
13707WAT     H241364   8.901   5.292   3.950
13708WAT      O41365   6.089   2.279   0.940
13708WAT     H141366   6.162   2.331   0.985
13708WAT     H241367   6.114   2.261   0.845
13709WAT      O41368   4.554   4.518   8.420
13709WAT     H141369   4.509   4.546   8.506
13709WAT     H241370   4.612   4.439   8.438
13710WAT      O41371   8.082   1.612   4.647
13710WAT     H141372   7.997   1.664   4.652
13710WAT     H241373   8.127   1.612   4.736
13711WAT      O41374   4.200   6.460   0.105
13711WAT     H141375   4.157   6.377   0.139
13711WAT     H241376   4.151   6.540   0.141
13712WAT      O41377   1.394   7.531   1.710
13712WAT     H141378   1.312   7.587   1.708
13712WAT     H241379   1.376   7.444   1.664
13713WAT      O41380   8.299   0.625   3.363
13713WAT     H141381   8.215   0.590   3.321
13713WAT     H241382   8.292   0.724   3.373
13714WAT      O41383   9.513   2.306   7.148
13714WAT     H141384   9.605   2.277   7.122
13714WAT     H241385   9.490   2.267   7.237
13715WAT      O41386   2.603   8.257   5.295
13715WAT     H141387   2.560   8.170   5.318
13715WAT     H241388   2.606   8.315   5.377
13716WAT      O41389   3.729   0.855   6.459
13716WAT     H141390   3.699   0.760   6.473
13716WAT     H241391   3.653   0.917   6.479
13717WAT      O41392   7.029   8.425   2.021
13717WAT     H141393   7.057   8.390   2.110
13717WAT     H241394   6.948   8.483   2.031
13718WAT      O41395   7.711   0.600   3.546
13718WAT     H141396   7.795   0.654   3.552
13718WAT     H241397   7.685   0.570   3.638
13719WAT      O41398   5.687   6.576   9.100
13719WAT     H141399   5.764   6.603   9.158
13719WAT     H241400   5.720   6.552   9.009
13720WAT      O41401   9.552   1.476   2.910
13720WAT     H141402   9.498   1.408   2.860
13720WAT     H241403   9.572   1.553   2.850
13721WAT      O41404   5.323   2.269   3.748
13721WAT     H141405   5.288   2.354   3.709
13721WAT     H241406   5.371   2.288   3.833
13722WAT      O41407   8.735   1.502   9.699
13722WAT     H141408   8.746   1.583   9.642
13722WAT     H241409   8.824   1.471   9.731
13723WAT      O41410   2.908   8.841   2.973
13723WAT     H141411   2.818   8.840   3.015
13723WAT     H241412   2.977   8.867   3.041
13724WAT      O41413   9.158   8.439   3.230
13724WAT     H141414   9.115   8.432   3.140
13724WAT     H241415   9.087   8.452   3.299
13725WAT      O41416   0.142   6.636   1.308
13725WAT     H141417   0.058   6.656   1.357
13725WAT     H241418   0.188   6.722   1.284
13726WAT      O41419   8.522   5.471   2.105
13726WAT     H141420   8.455   5.498   2.173
13726WAT     H241421   8.533   5.372   2.106
13727WAT      O41422   7.703   5.594   0.674
13727WAT     H141423   7.671   5.594   0.579
13727WAT     H241424   7.625   5.605   0.735
13728WAT      O41425   5.962   2.277   1.882
13728WAT     H141426   5.943   2.375   1.872
13728WAT     H241427   6.039   2.265   1.945
13729WAT      O41428   8.411   7.785   6.091
13729WAT     H141429   8.375   7.865   6.139
13729WAT     H241430   8.463   7.728   6.155
13730WAT      O41431   8.231   7.845   0.441
13730WAT     H141432   8.311   7.799   0.481
13730WAT     H241433   8.155   7.780   0.436
13731WAT      O41434   5.565   7.206   8.732
13731WAT     H141435   5.659   7.232   8.712
13731WAT     H241436   5.503   7.265   8.681
13732WAT      O41437   8.316   6.505   2.597
13732WAT     H141438   8.280   6.489   2.505
13732WAT     H241439   8.406   6.547   2.592
13733WAT      O41440   0.475   9.766   3.069
13733WAT     H141441   0.448   9.781   2.974
13733WAT     H241442   0.407   9.709   3.115
13734WAT      O41443   1.311   1.950   6.450
13734WAT     H141444   1.373   1.959   6.528
13734WAT     H241445   1.233   2.012   6.463
13735WAT      O41446   9.111   9.564   6.700
13735WAT     H141447   9.150   9.593   6.613
13735WAT     H241448   9.175   9.584   6.774
13736WAT      O41449   7.087   6.854   4.746
13736WAT     H141450   7.152   6.925   4.721
13736WAT     H241451   7.033   6.827   4.666
13737WAT      O41452   8.237   3.618   6.819
13737WAT     H141453   8.231   3.541   6.883
13737WAT     H241454   8.333   3.644   6.808
13738WAT      O41455   6.249   6.602   2.267
13738WAT     H141456   6.255   6.663   2.188
13738WAT     H241457   6.153   6.576   2.282
13739WAT      O41458   3.916   9.221   0.048
13739WAT     H141459   3.895   9.135   0.001
13739WAT     H241460   3.895   9.212   0.146
13740WAT      O41461   3.344   3.525   2.647
13740WAT     H141462   3.324   3.430   2.668
13740WAT     H241463   3.278   3.558   2.579
13741WAT      O41464   0.994   1.253   8.418
13741WAT     H141465   1.036   1.229   8.331
13741WAT     H241466   1.040   1.203   8.492
13742WAT      O41467   8.944   9.223   7.316
13742WAT     H141468   8.858   9.173   7.308
13742WAT     H241469   9.020   9.160   7.297
13743WAT      O41470   6.003   8.645   6.763
13743WAT     H141471   6.026   8.549   6.750
13743WAT     H241472   6.075   8.703   6.723
13744WAT      O41473   1.771   6.955   0.153
13744WAT     H141474   1.699   6.886   0.144
13744WAT     H241475   1.771   7.013   0.071
13745WAT      O41476   3.637   5.665   5.353
13745WAT     H141477   3.718   5.607   5.351
13745WAT     H241478   3.556   5.608   5.364
13746WAT      O41479   6.745   0.402   0.536
13746WAT     H141480   6.759   0.319   0.590
13746WAT     H241481   6.759   0.482   0.595
13747WAT      O41482   0.789   5.254   5.151
13747WAT     H141483   0.883   5.247   5.184
13747WAT     H241484   0.790   5.257   5.051
13748WAT      O41485   6.422   4.183   0.251
13748WAT     H141486   6.522   4.187   0.249
13748WAT     H241487   6.387   4.245   0.321
13749WAT      O41488   2.047   7.233   6.027
13749WAT     H141489   1.996   7.298   6.083
13749WAT     H241490   2.145   7.244   6.043
13750WAT      O41491   3.728   7.913   6.717
13750WAT     H141492   3.679   7.848   6.774
13750WAT     H241493   3.816   7.934   6.759
13751WAT      O41494   2.221   4.058   4.616
13751WAT     H141495   2.244   3.961   4.627
13751WAT     H241496   2.289   4.102   4.559
13752WAT      O41497   7.746   8.836   0.470
13752WAT     H141498   7.760   8.858   0.567
13752WAT     H241499   7.810   8.764   0.443
13753WAT      O41500   2.597   5.117   7.874
13753WAT     H141501   2.602   5.114   7.774
13753WAT     H241502   2.684   5.089   7.913
13754WAT      O41503   5.091   6.154   7.905
13754WAT     H141504   5.029   6.159   7.827
13754WAT     H241505   5.063   6.080   7.965
13755WAT      O41506   9.373   3.126   5.059
13755WAT     H141507   9.345   3.201   5.000
13755WAT     H241508   9.472   3.116   5.055
13756WAT      O41509   4.993   9.218   9.049
13756WAT     H141510   4.909   9.229   8.995
13756WAT     H241511   4.969   9.215   9.146
13757WAT      O41512   8.952   5.673   3.713
13757WAT     H141513   8.987   5.713   3.798
13757WAT     H241514   9.005   5.592   3.689
13758WAT      O41515   6.408   1.223   0.285
13758WAT     H141516   6.314   1.232   0.317
13758WAT     H241517   6.410   1.171   0.200
13759WAT      O41518   5.340   8.586   2.864
13759WAT     H141519   5.255   8.639   2.873
13759WAT     H241520   5.399   8.630   2.796
13760WAT      O41521   8.213   4.045   9.530
13760WAT     H141522   8.251   4.049   9.437
13760WAT     H241523   8.287   4.026   9.595
13761WAT      O41524   4.978   1.965   6.690
13761WAT     H141525   4.986   1.895   6.761
13761WAT     H241526   4.887   2.007   6.695
13762WAT      O41527   7.943   5.074   9.021
13762WAT     H141528   7.931   4.994   8.963
13762WAT     H241529   7.897   5.152   8.980
13763WAT      O41530   5.875   1.425   2.631
13763WAT     H141531   5.970   1.437   2.603
13763WAT     H241532   5.859   1.476   2.716
13764WAT      O41533   1.202   5.524   0.769
13764WAT     H141534   1.223   5.448   0.709
13764WAT     H241535   1.148   5.592   0.720
13765WAT      O41536   2.531   5.906   7.632
13765WAT     H141537   2.478   5.882   7.713
13765WAT     H241538   2.531   5.829   7.568
13766WAT      O41539   0.963   5.231   2.669
13766WAT     H141540   0.973   5.214   2.768
13766WAT     H241541   1.053   5.225   2.626
13767WAT      O41542   6.563   6.264   7.005
13767WAT     H141543   6.506   6.343   7.027
13767WAT     H241544   6.652   6.295   6.972
13768WAT      O41545   1.427   5.075   8.275
13768WAT     H141546   1.406   5.069   8.178
13768WAT     H241547   1.521   5.045   8.291
13769WAT      O41548   8.419   0.939   2.916
13769WAT     H141549   8.380   0.989   2.994
13769WAT     H241550   8.356   0.944   2.838
13770WAT      O41551   6.090   9.031   4.425
13770WAT     H141552   6.128   9.088   4.352
13770WAT     H241553   6.010   8.982   4.392
13771WAT      O41554   4.080   7.465   1.877
13771WAT     H141555   4.029   7.388   1.915
13771WAT     H241556   4.110   7.525   1.951
13772WAT      O41557   7.623   3.146   5.245
13772WAT     H141558   7.624   3.183   5.339
13772WAT     H241559   7.686   3.069   5.239
13773WAT      O41560   2.096   8.878   8.975
13773WAT     H141561   2.072   8.928   9.058
13773WAT     H241562   2.022   8.814   8.953
13774WAT      O41563   4.400   4.746   2.895
13774WAT     H141564   4.465   4.697   2.953
13774WAT     H241565   4.313   4.757   2.943
13775WAT      O41566   2.661   8.866   8.181
13775WAT     H141567   2.623   8.931   8.115
13775WAT     H241568   2.751   8.835   8.150
13776WAT      O41569   0.604   0.490   3.028
13776WAT     H141570   0.663   0.564   2.994
13776WAT     H241571   0.527   0.530   3.078
13777WAT      O41572   3.639   2.997   0.032
13777WAT     H141573   3.735   3.008   0.006
13777WAT     H241574   3.607   2.906   0.003
13778WAT      O41575   5.847   6.854   9.068
13778WAT     H141576   5.908   6.888   8.996
13778WAT     H241577   5.799   6.931   9.109
13779WAT      O41578   2.032   1.575   2.513
13779WAT     H141579   1.983   1.499   2.556
13779WAT     H241580   2.060   1.549   2.421
13780WAT      O41581   9.750   2.545   4.602
13780WAT     H141582   9.847   2.556   4.624
13780WAT     H241583   9.705   2.633   4.608
13781WAT      O41584   5.758   8.760   3.469
13781WAT     H141585   5.835   8.791   3.413
13781WAT     H241586   5.731   8.668   3.442
13782WAT      O41587   4.901   0.919   5.104
13782WAT     H141588   4.862   0.965   5.024
13782WAT     H241589   4.965   0.980   5.150
13783WAT      O41590   1.881   6.129   7.198
13783WAT     H141591   1.839   6.120   7.107
13783WAT     H241592   1.911   6.039   7.229
13784WAT      O41593   9.372   8.355   5.244
13784WAT     H141594   9.397   8.295   5.169
13784WAT     H241595   9.343   8.300   5.323
13785WAT      O41596   8.864   1.818   0.502
13785WAT     H141597   8.913   1.902   0.476
13785WAT     H241598   8.826   1.775   0.420
13786WAT      O41599   7.249   7.859   6.114
13786WAT     H141600   7.345   7.845   6.141
13786WAT     H241601   7.210   7.934   6.167
13787WAT      O41602   4.848   1.706   5.624
13787WAT     H141603   4.823   1.658   5.540
13787WAT     H241604   4.838   1.804   5.609
13788WAT      O41605   2.054   4.316   5.274
13788WAT     H141606   2.022   4.222   5.290
13788WAT     H241607   2.090   4.324   5.181
13789WAT      O41608   6.491   5.576   5.853
13789WAT     H141609   6.552   5.556   5.930
13789WAT     H241610   6.488   5.498   5.791
13790WAT      O41611   7.372   0.867   8.599
13790WAT     H141612   7.452   0.910   8.557
13790WAT     H241613   7.393   0.841   8.693
13791WAT      O41614   3.120   4.054   2.653
13791WAT     H141615   3.211   4.097   2.648
13791WAT     H241616   3.131   3.957   2.673
13792WAT      O41617   2.723   4.389   1.515
13792WAT     H141618   2.751   4.355   1.605
13792WAT     H241619   2.636   4.347   1.489
13793WAT      O41620   9.074   3.781   5.789
13793WAT     H141621   9.058   3.856   5.854
13793WAT     H241622   8.987   3.744   5.758
13794WAT      O41623   3.106   8.747   3.897
13794WAT     H141624   3.097   8.647   3.897
13794WAT     H241625   3.201   8.772   3.883
13795WAT      O41626   6.514   4.939   7.333
13795WAT     H141627   6.567   4.890   7.402
13795WAT     H241628   6.527   4.894   7.244
13796WAT      O41629   9.352   6.339   0.222
13796WAT     H141630   9.376   6.408   0.154
13796WAT     H241631   9.254   6.319   0.217
13797WAT      O41632   4.573   7.476   3.289
13797WAT     H141633   4.601   7.537   3.364
13797WAT     H241634   4.556   7.530   3.207
13798WAT      O41635   5.138   7.934   7.332
13798WAT     H141636   5.155   7.866   7.404
13798WAT     H241637   5.073   7.897   7.266
13799WAT      O41638   7.303   0.342   1.551
13799WAT     H141639   7.367   0.414   1.579
13799WAT     H241640   7.271   0.293   1.632
13800WAT      O41641   2.676   4.481   1.256
13800WAT     H141642   2.751   4.437   1.207
13800WAT     H241643   2.683   4.462   1.354
13801WAT      O41644   2.377   5.989   4.682
13801WAT     H141645   2.328   5.995   4.594
13801WAT     H241646   2.414   5.897   4.693
13802WAT      O41647   2.274   7.482   7.139
13802WAT     H141648   2.237   7.413   7.077
13802WAT     H241649   2.369   7.503   7.113
13803WAT      O41650   6.564   1.634   2.294
13803WAT     H141651   6.475   1.669   2.265
13803WAT     H241652   6.622   1.711   2.321
13804WAT      O41653   2.828   3.662   6.801
13804WAT     H141654   2.913   3.713   6.814
13804WAT     H241655   2.805   3.612   6.884
13805WAT      O41656   7.402   3.778   0.168
13805WAT     H141657   7.481   3.775   0.229
13805WAT     H241658   7.430   3.814   0.079
13806WAT      O41659   0.856   9.573   5.947
13806WAT     H141660   0.843   9.503   5.877
13806WAT     H241661   0.779   9.569   6.012
13807WAT      O41662   6.684   0.752   5.853
13807WAT     H141663   6.658   0.731   5.947
13807WAT     H241664   6.603   0.777   5.801
13808WAT      O41665   4.055   3.275   9.352
13808WAT     H141666   4.087   3.184   9.376
13808WAT     H241667   4.035   3.326   9.436
13809WAT      O41668   1.576   7.256   0.179
13809WAT     H141669   1.546   7.310   0.257
13809WAT     H241670   1.658   7.298   0.139
13810WAT      O41671   7.165   8.828   8.672
13810WAT     H141672   7.183   8.889   8.595
13810WAT     H241673   7.108   8.875   8.739
13811WAT      O41674   4.007   2.388   4.275
13811WAT     H141675   3.995   2.337   4.361
13811WAT     H241676   3.953   2.472   4.278
13812WAT      O41677   7.848   6.916   1.868
13812WAT     H141678   7.859   6.928   1.769
13812WAT     H241679   7.876   7.000   1.915
13813WAT      O41680   2.818   1.908   3.745
13813WAT     H141681   2.837   1.815   3.777
13813WAT     H241682   2.802   1.968   3.824
13814WAT      O41683   6.440   1.374   9.149
13814WAT     H141684   6.415   1.381   9.246
13814WAT     H241685   6.401   1.291   9.111
13815WAT      O41686   4.446   4.704   9.701
13815WAT     H141687   4.502   4.728   9.780
13815WAT     H241688   4.440   4.783   9.639
13816WAT      O41689   6.517   4.338   7.330
13816WAT     H141690   6.521   4.374   7.423
13816WAT     H241691   6.520   4.238   7.334
13817WAT      O41692   8.642   6.395   7.569
13817WAT     H141693   8.736   6.410   7.539
13817WAT     H241694   8.619   6.462   7.639
13818WAT      O41695   5.521   7.751   5.408
13818WAT     H141696   5.495   7.759   5.312
13818WAT     H241697   5.473   7.820   5.461
13819WAT      O41698   6.096   5.715   5.291
13819WAT     H141699   6.183   5.707   5.340
13819WAT     H241700   6.055   5.805   5.309
13820WAT      O41701   2.856   7.564   0.260
13820WAT     H141702   2.758   7.570   0.283
13820WAT     H241703   2.876   7.475   0.220
13821WAT      O41704   0.362   2.291   2.051
13821WAT     H141705   0.442   2.235   2.069
13821WAT     H241706   0.281   2.249   2.091
13822WAT      O41707   2.277   1.730   9.184
13822WAT     H141708   2.332   1.748   9.101
13822WAT     H241709   2.317   1.779   9.261
13823WAT      O41710   3.206   8.437   5.139
13823WAT     H141711   3.226   8.501   5.066
13823WAT     H241712   3.110   8.446   5.167
13824WAT      O41713   0.115   4.875   3.152
13824WAT     H141714   0.043   4.805   3.159
13824WAT     H241715   0.178   4.866   3.229
13825WAT      O41716   2.938   5.231   3.922
13825WAT     H141717   2.962   5.140   3.956
13825WAT     H241718   2.929   5.295   3.999
13826WAT      O41719   6.624   9.545   2.391
13826WAT     H141720   6.585   9.540   2.299
13826WAT     H241721   6.711   9.497   2.393
13827WAT      O41722   8.685   9.690   6.055
13827WAT     H141723   8.647   9.672   5.964
13827WAT     H241724   8.662   9.615   6.116
13828WAT      O41725   2.164   4.637   7.684
13828WAT     H141726   2.166   4.717   7.624
13828WAT     H241727   2.100   4.570   7.649
13829WAT      O41728   9.202   9.034   5.367
13829WAT     H141729   9.133   9.073   5.306
13829WAT     H241730   9.215   8.937   5.345
13830WAT      O41731   3.253   1.917   2.439
13830WAT     H141732   3.155   1.924   2.420
13830WAT     H241733   3.299   2.001   2.409
13831WAT      O41734   6.019   5.202   3.513
13831WAT     H141735   5.981   5.262   3.443
13831WAT     H241736   6.075   5.257   3.576
13832WAT      O41737   9.762   1.793   2.046
13832WAT     H141738   9.779   1.709   1.996
13832WAT     H241739   9.723   1.772   2.136
13833WAT      O41740   0.339   8.387   2.990
13833WAT     H141741   0.312   8.344   3.076
13833WAT     H241742   0.349   8.316   2.919
13834WAT      O41743   8.787   0.045   8.964
13834WAT     H141744   8.885   0.055   8.979
13834WAT     H241745   8.764  -0.050   8.947
13835WAT      O41746   6.159   4.155   0.111
13835WAT     H141747   6.223   4.144   0.187
13835WAT     H241748   6.104   4.238   0.125
13836WAT      O41749   9.637   8.222   1.400
13836WAT     H141750   9.694   8.210   1.481
13836WAT     H241751   9.614   8.132   1.363
13837WAT      O41752   1.461   3.627   2.524
13837WAT     H141753   1.440   3.537   2.485
13837WAT     H241754   1.448   3.698   2.455
13838WAT      O41755   3.478   5.534   7.427
13838WAT     H141756   3.549   5.582   7.376
13838WAT     H241757   3.467   5.441   7.391
13839WAT      O41758   8.190   2.770   9.678
13839WAT     H141759   8.232   2.781   9.588
13839WAT     H241760   8.096   2.737   9.667
13840WAT      O41761   0.058   0.592   7.692
13840WAT     H141762  -0.014   0.657   7.669
13840WAT     H241763   0.029   0.538   7.771
13841WAT      O41764   8.336   6.457   7.580
13841WAT     H141765   8.420   6.404   7.570
13841WAT     H241766   8.332   6.497   7.672
13842WAT      O41767   6.181   2.319   3.741
13842WAT     H141768   6.129   2.250   3.790
13842WAT     H241769   6.186   2.294   3.644
13843WAT      O41770   0.433   3.722   7.253
13843WAT     H141771   0.381   3.808   7.242
13843WAT     H241772   0.462   3.690   7.163
13844WAT      O41773   8.469   4.073   6.006
13844WAT     H141774   8.370   4.066   5.998
13844WAT     H241775   8.510   4.075   5.915
13845WAT      O41776   6.870   9.829   3.850
13845WAT     H141777   6.909   9.741   3.878
13845WAT     H241778   6.806   9.860   3.920
13846WAT      O41779   7.765   0.759   2.542
13846WAT     H141780   7.824   0.685   2.508
13846WAT     H241781   7.770   0.761   2.642
13847WAT      O41782   0.924   0.379   5.797
13847WAT     H141783   0.853   0.318   5.832
13847WAT     H241784   0.995   0.325   5.752
13848WAT      O41785   5.039   6.202   6.549
13848WAT     H141786   4.956   6.208   6.604
13848WAT     H241787   5.019   6.235   6.456
13849WAT      O41788   9.830   1.455   5.267
13849WAT     H141789   9.834   1.520   5.190
13849WAT     H241790   9.922   1.421   5.286
13850WAT      O41791   1.462   0.867   7.193
13850WAT     H141792   1.538   0.932   7.190
13850WAT     H241793   1.493   0.783   7.237
13851WAT      O41794   8.469   1.408   7.855
13851WAT     H141795   8.526   1.488   7.872
13851WAT     H241796   8.436   1.371   7.942
13852WAT      O41797   1.556   2.055   7.709
13852WAT     H141798   1.526   1.960   7.722
13852WAT     H241799   1.481   2.116   7.735
13853WAT      O41800   3.618   0.999   0.782
13853WAT     H141801   3.717   1.001   0.770
13853WAT     H241802   3.574   1.048   0.707
13854WAT      O41803   8.733   4.646   9.079
13854WAT     H141804   8.796   4.719   9.107
13854WAT     H241805   8.639   4.675   9.100
13855WAT      O41806   7.344   8.794   1.028
13855WAT     H141807   7.301   8.822   0.943
13855WAT     H241808   7.431   8.842   1.039
13856WAT      O41809   6.654   0.244   1.298
13856WAT     H141810   6.640   0.340   1.273
13856WAT     H241811   6.593   0.221   1.373
13857WAT      O41812   2.576   5.227   9.564
13857WAT     H141813   2.654   5.255   9.620
13857WAT     H241814   2.561   5.129   9.574
13858WAT      O41815   5.671   1.731   3.266
13858WAT     H141816   5.741   1.732   3.195
13858WAT     H241817   5.590   1.778   3.234
13859WAT      O41818   7.914   5.505   6.305
13859WAT     H141819   7.827   5.460   6.284
13859WAT     H241820   7.904   5.561   6.387
13860WAT      O41821   3.168   2.708   4.129
13860WAT     H141822   3.196   2.692   4.224
13860WAT     H241823   3.249   2.704   4.070
13861WAT      O41824   2.784   2.538   0.490
13861WAT     H141825   2.785   2.472   0.565
13861WAT     H241826   2.689   2.560   0.467
13862WAT      O41827   5.197   9.247   8.873
13862WAT     H141828   5.106   9.244   8.914
13862WAT     H241829   5.266   9.227   8.944
13863WAT      O41830   2.383   5.423   3.105
13863WAT     H141831   2.381   5.338   3.052
13863WAT     H241832   2.359   5.403   3.200
13864WAT      O41833   7.835   1.172   3.987
13864WAT     H141834   7.899   1.247   3.969
13864WAT     H241835   7.885   1.093   4.021
13865WAT      O41836   8.527   0.526   4.265
13865WAT     H141837   8.547   0.477   4.180
13865WAT     H241838   8.437   0.498   4.298
13866WAT      O41839   0.992   3.328   8.285
13866WAT     H141840   0.953   3.245   8.244
13866WAT     H241841   1.059   3.367   8.222
13867WAT      O41842   2.742   5.835   6.222
13867WAT     H141843   2.780   5.814   6.312
13867WAT     H241844   2.662   5.777   6.204
13868WAT      O41845   4.955   4.643   0.880
13868WAT     H141846   5.016   4.678   0.952
13868WAT     H241847   4.860   4.663   0.904
13869WAT      O41848   7.141   8.119   1.902
13869WAT     H141849   7.041   8.128   1.896
13869WAT     H241850   7.181   8.206   1.928
13870WAT      O41851   0.350   7.384   8.343
13870WAT     H141852   0.362   7.333   8.258
13870WAT     H241853   0.387   7.477   8.332
13871WAT      O41854   1.301   2.533   2.661
13871WAT     H141855   1.323   2.629   2.649
13871WAT     H241856   1.375   2.477   2.624
13872WAT      O41857   3.159   0.979   9.486
13872WAT     H141858   3.252   1.012   9.467
13872WAT     H241859   3.114   0.954   9.400
13873WAT      O41860   2.309   0.069   8.560
13873WAT     H141861   2.401   0.097   8.532
13873WAT     H241862   2.316  -0.003   8.629
13874WAT      O41863   4.906   3.956   6.385
13874WAT     H141864   4.815   3.999   6.382
13874WAT     H241865   4.976   4.027   6.398
13875WAT      O41866   6.473   6.118   9.562
13875WAT     H141867   6.426   6.203   9.541
13875WAT     H241868   6.410   6.054   9.606
13876WAT      O41869   7.077   7.747   9.151
13876WAT     H141870   7.029   7.810   9.089
13876WAT     H241871   7.123   7.676   9.096
13877WAT      O41872   9.697   5.887   2.684
13877WAT     H141873   9.684   5.885   2.783
13877WAT     H241874   9.611   5.908   2.638
13878WAT      O41875   5.115   1.254   1.197
13878WAT     H141876   5.120   1.154   1.188
13878WAT     H241877   5.176   1.296   1.130
13879WAT      O41878   4.119   9.323   5.735
13879WAT     H141879   4.038   9.377   5.710
13879WAT     H241880   4.100   9.273   5.820
13880WAT      O41881   7.866   6.955   1.320
13880WAT     H141882   7.779   6.972   1.275
13880WAT     H241883   7.880   6.856   1.331
13881WAT      O41884   1.460   8.754   8.343
13881WAT     H141885   1.512   8.833   8.376
13881WAT     H241886   1.460   8.753   8.243
13882WAT      O41887   1.213   0.929   4.107
13882WAT     H141888   1.155   0.848   4.095
13882WAT     H241889   1.293   0.905   4.163
13883WAT      O41890   8.481   7.065   0.448
13883WAT     H141891   8.410   7.008   0.490
13883WAT     H241892   8.452   7.091   0.356
13884WAT      O41893   8.726   2.044   7.054
13884WAT     H141894   8.798   1.979   7.029
13884WAT     H241895   8.667   2.004   7.124
13885WAT      O41896   6.845   6.258   6.982
13885WAT     H141897   6.928   6.307   7.010
13885WAT     H241898   6.849   6.163   7.015
13886WAT      O41899   5.509   0.366   6.501
13886WAT     H141900   5.550   0.367   6.409
13886WAT     H241901   5.575   0.329   6.566
13887WAT      O41902   8.543   8.034   6.557
13887WAT     H141903   8.528   7.978   6.639
13887WAT     H241904   8.574   8.125   6.585
13888WAT      O41905   1.775   0.787   9.594
13888WAT     H141906   1.704   0.790   9.664
13888WAT     H241907   1.764   0.705   9.538
13889WAT      O41908   9.733   1.513   6.090
13889WAT     H141909   9.743   1.425   6.045
13889WAT     H241910   9.756   1.587   6.026
13890WAT      O41911   1.782   7.351   2.805
13890WAT     H141912   1.846   7.275   2.796
13890WAT     H241913   1.832   7.438   2.798
13891WAT      O41914   8.054   9.048   9.026
13891WAT     H141915   7.994   8.977   9.062
13891WAT     H241916   8.149   9.014   9.027
13892WAT      O41917   0.879   0.455   2.195
13892WAT     H141918   0.805   0.403   2.239
13892WAT     H241919   0.950   0.391   2.166
13893WAT      O41920   3.101   1.629   3.545
13893WAT     H141921   3.131   1.715   3.588
13893WAT     H241922   3.034   1.649   3.474
13894WAT      O41923   4.275   9.673   4.193
13894WAT     H141924   4.184   9.683   4.152
13894WAT     H241925   4.313   9.763   4.213
13895WAT      O41926   0.934   1.502   8.784
13895WAT     H141927   0.854   1.503   8.724
13895WAT     H241928   0.984   1.588   8.775
13896WAT      O41929   8.959   8.492   0.531
13896WAT     H141930   9.057   8.497   0.552
13896WAT     H241931   8.932   8.573   0.479
13897WAT      O41932   4.676   7.321   1.410
13897WAT     H141933   4.716   7.229   1.409
13897WAT     H241934   4.724   7.378   1.344
13898WAT      O41935   3.272   9.000   2.881
13898WAT     H141936   3.185   9.038   2.911
13898WAT     H241937   3.347   9.055   2.917
13899WAT      O41938   7.793   8.982   1.002
13899WAT     H141939   7.711   9.009   1.053
13899WAT     H241940   7.844   9.064   0.975
13900WAT      O41941   4.582   4.134   8.899
13900WAT     H141942   4.530   4.106   8.980
13900WAT     H241943   4.674   4.163   8.926
13901WAT      O41944   2.240   4.820   2.270
13901WAT     H141945   2.276   4.901   2.316
13901WAT     H241946   2.236   4.744   2.334
13902WAT      O41947   4.801   4.019   0.521
13902WAT     H141948   4.894   4.001   0.553
13902WAT     H241949   4.760   4.091   0.577
13903WAT      O41950   9.438   3.166   4.046
13903WAT     H141951   9.477   3.161   4.138
13903WAT     H241952   9.500   3.217   3.987
13904WAT      O41953   0.042   8.650   9.494
13904WAT     H141954   0.082   8.737   9.524
13904WAT     H241955   0.033   8.650   9.394
13905WAT      O41956   3.138   9.450   9.569
13905WAT     H141957   3.071   9.519   9.598
13905WAT     H241958   3.158   9.389   9.646
13906WAT      O41959   3.160   5.548   0.550
13906WAT     H141960   3.086   5.496   0.592
13906WAT     H241961   3.239   5.550   0.610
13907WAT      O41962   1.008   2.480   6.833
13907WAT     H141963   0.923   2.431   6.812
13907WAT     H241964   1.061   2.492   6.750
13908WAT      O41965   3.901   9.046   0.789
13908WAT     H141966   3.871   9.049   0.693
13908WAT     H241967   3.926   8.953   0.814
13909WAT      O41968   6.706   4.265   8.647
13909WAT     H141969   6.658   4.181   8.621
13909WAT     H241970   6.801   4.260   8.615
13910WAT      O41971   0.158   1.181   1.504
13910WAT     H141972   0.162   1.198   1.603
13910WAT     H241973   0.235   1.227   1.460
13911WAT      O41974   7.942   9.588   0.495
13911WAT     H141975   7.943   9.501   0.545
13911WAT     H241976   7.884   9.654   0.544
13912WAT      O41977   2.937   6.448   9.082
13912WAT     H141978   2.949   6.483   8.990
13912WAT     H241979   2.851   6.396   9.088
13913WAT      O41980   5.980   5.081   8.774
13913WAT     H141981   5.937   5.168   8.798
13913WAT     H241982   6.066   5.098   8.727
13914WAT      O41983   2.256   9.362   4.034
13914WAT     H141984   2.184   9.338   4.100
13914WAT     H241985   2.217   9.366   3.942
13915WAT      O41986   5.188   7.270   0.869
13915WAT     H141987   5.245   7.237   0.794
13915WAT     H241988   5.094   7.282   0.836
13916WAT      O41989   5.459   1.472   1.772
13916WAT     H141990   5.417   1.399   1.826
13916WAT     H241991   5.434   1.561   1.810
13917WAT      O41992   6.133   5.227   3.197
13917WAT     H141993   6.060   5.285   3.233
13917WAT     H241994   6.093   5.151   3.145
13918WAT      O41995   5.279   6.264   2.120
13918WAT     H141996   5.340   6.303   2.051
13918WAT     H241997   5.234   6.339   2.169
13919WAT      O41998   8.153   0.071   4.530
13919WAT     H141999   8.089   0.064   4.453
13919WAT     H242000   8.156   0.165   4.562
13920WAT      O42001   2.013   1.931   8.026
13920WAT     H142002   1.992   1.834   8.030
13920WAT     H242003   2.085   1.948   7.958
13921WAT      O42004   2.007   6.072   9.771
13921WAT     H142005   1.960   5.994   9.814
13921WAT     H242006   2.076   6.107   9.833
13922WAT      O42007   9.363   8.624   3.719
13922WAT     H142008   9.375   8.720   3.743
13922WAT     H242009   9.431   8.569   3.769
13923WAT      O42010   5.316   0.442   1.580
13923WAT     H142011   5.357   0.513   1.523
13923WAT     H242012   5.244   0.481   1.636
13924WAT      O42013   0.443   0.223   7.688
13924WAT     H142014   0.392   0.307   7.705
13924WAT     H242015   0.530   0.226   7.737
13925WAT      O42016   8.526   0.378   4.993
13925WAT     H142017   8.559   0.369   4.900
13925WAT     H242018   8.539   0.292   5.042
13926WAT      O42019   8.348   4.737   2.130
13926WAT     H142020   8.300   4.651   2.116
13926WAT     H242021   8.391   4.737   2.220
13927WAT      O42022   1.273   7.884   4.119
13927WAT     H142023   1.358   7.834   4.104
13927WAT     H242024   1.286   7.950   4.193
13928WAT      O42025   0.960   6.982   1.325
13928WAT     H142026   1.032   6.923   1.363
13928WAT     H242027   0.906   7.020   1.399
13929WAT      O42028   2.674   4.676   2.064
13929WAT     H142029   2.656   4.581   2.041
13929WAT     H242030   2.602   4.734   2.026
13930WAT      O42031   8.181   5.982   2.068
13930WAT     H142032   8.153   6.023   1.980
13930WAT     H242033   8.108   5.994   2.135
13931WAT      O42034   3.297   7.116   0.293
13931WAT     H142035   3.288   7.121   0.194
13931WAT     H242036   3.208   7.131   0.336
13932WAT      O42037   1.293   3.163   1.955
13932WAT     H142038   1.225   3.235   1.967
13932WAT     H242039   1.250   3.083   1.912
13933WAT      O42040   2.224   6.830   7.761
13933WAT     H142041   2.200   6.738   7.791
13933WAT     H242042   2.289   6.824   7.685
13934WAT      O42043   7.461   7.245   9.428
13934WAT     H142044   7.494   7.173   9.367
13934WAT     H242045   7.528   7.262   9.500
13935WAT      O42046   4.298   3.121   2.486
13935WAT     H142047   4.280   3.075   2.399
13935WAT     H242048   4.360   3.065   2.541
13936WAT      O42049   0.104   2.258   3.243
13936WAT     H142050   0.031   2.196   3.216
13936WAT     H242051   0.071   2.319   3.315
13937WAT      O42052   1.945   5.605   7.994
13937WAT     H142053   1.947   5.505   7.990
13937WAT     H242054   2.035   5.640   8.020
13938WAT      O42055   5.351   5.644   9.752
13938WAT     H142056   5.392   5.720   9.804
13938WAT     H242057   5.330   5.569   9.815
13939WAT      O42058   9.264   5.982   6.535
13939WAT     H142059   9.190   5.915   6.527
13939WAT     H242060   9.254   6.051   6.463
13940WAT      O42061   0.771   1.305   3.144
13940WAT     H142062   0.797   1.238   3.074
13940WAT     H242063   0.681   1.343   3.122
13941WAT      O42064   7.906   5.688   5.734
13941WAT     H142065   7.860   5.680   5.822
13941WAT     H242066   8.004   5.670   5.745
13942WAT      O42067   7.242   7.606   4.871
13942WAT     H142068   7.163   7.577   4.818
13942WAT     H242069   7.292   7.677   4.820
13943WAT      O42070   6.232   4.028   1.250
13943WAT     H142071   6.329   4.029   1.229
13943WAT     H242072   6.218   4.057   1.345
13944WAT      O42073   3.563   2.670   5.098
13944WAT     H142074   3.576   2.736   5.024
13944WAT     H242075   3.474   2.686   5.141
13945WAT      O42076   2.046   1.569   3.164
13945WAT     H142077   2.039   1.470   3.147
13945WAT     H242078   2.128   1.588   3.218
13946WAT      O42079   9.765   3.713   0.940
13946WAT     H142080   9.860   3.684   0.953
13946WAT     H242081   9.759   3.769   0.857
13947WAT      O42082   4.650   1.359   4.336
13947WAT     H142083   4.691   1.304   4.264
13947WAT     H242084   4.572   1.410   4.299
13948WAT      O42085   6.114   7.886   1.249
13948WAT     H142086   6.023   7.918   1.273
13948WAT     H242087   6.109   7.825   1.170
13949WAT      O42088   6.369   0.434   1.628
13949WAT     H142089   6.367   0.401   1.722
13949WAT     H242090   6.330   0.527   1.625
13950WAT      O42091   3.938   7.797   8.887
13950WAT     H142092   3.941   7.897   8.896
13950WAT     H242093   3.955   7.771   8.792
13951WAT      O42094   1.746   8.434   4.428
13951WAT     H142095   1.671   8.485   4.469
13951WAT     H242096   1.718   8.399   4.338
13952WAT      O42097   2.981   9.510   1.210
13952WAT     H142098   2.888   9.501   1.177
13952WAT     H242099   3.045   9.505   1.133
13953WAT      O42100   6.435   7.477   4.512
13953WAT     H142101   6.486   7.562   4.513
13953WAT     H242102   6.469   7.418   4.439
13954WAT      O42103   6.041   6.382   3.925
13954WAT     H142104   6.092   6.465   3.948
13954WAT     H242105   5.943   6.397   3.939
13955WAT      O42106   5.203   1.249   8.381
13955WAT     H142107   5.247   1.233   8.293
13955WAT     H242108   5.112   1.286   8.366
13956WAT      O42109   0.307   2.839   6.533
13956WAT     H142110   0.387   2.883   6.574
13956WAT     H242111   0.224   2.880   6.569
13957WAT      O42112   2.521   9.536   5.163
13957WAT     H142113   2.449   9.576   5.108
13957WAT     H242114   2.543   9.597   5.239
13958WAT      O42115   9.088   1.777   0.778
13958WAT     H142116   9.163   1.712   0.767
13958WAT     H242117   9.123   1.870   0.760
13959WAT      O42118   5.843   2.781   2.106
13959WAT     H142119   5.873   2.852   2.042
13959WAT     H242120   5.907   2.704   2.103
13960WAT      O42121   0.293   3.940   4.201
13960WAT     H142122   0.379   3.944   4.253
13960WAT     H242123   0.240   4.023   4.217
13961WAT      O42124   9.649   3.237   1.783
13961WAT     H142125   9.744   3.234   1.815
13961WAT     H242126   9.599   3.159   1.822
13962WAT      O42127   6.425   6.122   8.943
13962WAT     H142128   6.498   6.103   8.877
13962WAT     H242129   6.340   6.079   8.911
13963WAT      O42130   7.541   8.640   8.362
13963WAT     H142131   7.479   8.647   8.439
13963WAT     H242132   7.622   8.697   8.378
13964WAT      O42133   2.138   5.541   1.823
13964WAT     H142134   2.211   5.569   1.886
13964WAT     H242135   2.179   5.499   1.742
13965WAT      O42136   2.998   2.157   6.226
13965WAT     H142137   2.910   2.149   6.272
13965WAT     H242138   3.028   2.066   6.195
13966WAT      O42139   2.041   4.263   7.838
13966WAT     H142140   2.009   4.237   7.747
13966WAT     H242141   2.136   4.296   7.832
13967WAT      O42142   2.782   9.421   7.916
13967WAT     H142143   2.764   9.477   7.998
13967WAT     H242144   2.701   9.421   7.858
13968WAT      O42145   0.508   9.040   4.448
13968WAT     H142146   0.540   9.005   4.360
13968WAT     H242147   0.585   9.074   4.501
13969WAT      O42148   0.674   8.147   8.860
13969WAT     H142149   0.753   8.208   8.861
13969WAT     H242150   0.590   8.201   8.861
13970WAT      O42151   1.801   3.173   1.337
13970WAT     H142152   1.797   3.101   1.268
13970WAT     H242153   1.735   3.244   1.315
13971WAT      O42154   5.948   7.416   0.312
13971WAT     H142155   6.029   7.448   0.263
13971WAT     H242156   5.926   7.323   0.284
13972WAT      O42157   8.546   5.110   9.031
13972WAT     H142158   8.557   5.018   9.069
13972WAT     H242159   8.524   5.104   8.934
13973WAT      O42160   9.317   3.717   1.828
13973WAT     H142161   9.278   3.663   1.753
13973WAT     H242162   9.406   3.680   1.852
13974WAT      O42163   8.115   0.207   3.949
13974WAT     H142164   8.069   0.288   3.911
13974WAT     H242165   8.197   0.187   3.895
13975WAT      O42166   8.872   6.367   1.854
13975WAT     H142167   8.772   6.366   1.848
13975WAT     H242168   8.899   6.425   1.931
13976WAT      O42169   1.982   1.782   0.329
13976WAT     H142170   1.937   1.869   0.310
13976WAT     H242171   2.071   1.799   0.372
13977WAT      O42172   1.491   2.416   2.526
13977WAT     H142173   1.495   2.478   2.447
13977WAT     H242174   1.479   2.322   2.495
13978WAT      O42175   1.582   9.485   0.864
13978WAT     H142176   1.674   9.475   0.900
13978WAT     H242177   1.525   9.534   0.930
13979WAT      O42178   6.166   2.634   2.792
13979WAT     H142179   6.099   2.702   2.763
13979WAT     H242180   6.152   2.549   2.740
13980WAT      O42181   8.376   2.913   7.107
13980WAT     H142182   8.352   2.918   7.205
13980WAT     H242183   8.322   2.981   7.057
13981WAT      O42184   8.138   0.573   8.897
13981WAT     H142185   8.092   0.485   8.890
13981WAT     H242186   8.070   0.646   8.893
13982WAT      O42187   8.617   3.313   0.442
13982WAT     H142188   8.558   3.394   0.443
13982WAT     H242189   8.661   3.303   0.531
13983WAT      O42190   4.103   3.764   3.124
13983WAT     H142191   4.092   3.681   3.178
13983WAT     H242192   4.064   3.842   3.174
13984WAT      O42193   0.054   0.046   5.338
13984WAT     H142194   0.033  -0.045   5.301
13984WAT     H242195  -0.030   0.090   5.369
13985WAT      O42196   2.799   7.613   9.717
13985WAT     H142197   2.756   7.626   9.627
13985WAT     H242198   2.889   7.571   9.705
13986WAT      O42199   5.050   0.605   3.992
13986WAT     H142200   4.959   0.601   4.032
13986WAT     H242201   5.049   0.666   3.913
13987WAT      O42202   1.936   5.318   3.895
13987WAT     H142203   1.957   5.409   3.929
13987WAT     H242204   1.998   5.295   3.820
13988WAT      O42205   9.626   5.099   7.461
13988WAT     H142206   9.623   5.008   7.502
13988WAT     H242207   9.662   5.164   7.528
13989WAT      O42208   9.064   7.503   8.482
13989WAT     H142209   9.091   7.591   8.522
13989WAT     H242210   9.129   7.432   8.510
13990WAT      O42211   1.902   2.691   8.025
13990WAT     H142212   2.000   2.682   8.006
13990WAT     H242213   1.884   2.662   8.120
13991WAT      O42214   2.110   3.127   8.281
13991WAT     H142215   2.085   3.060   8.351
13991WAT     H242216   2.027   3.164   8.239
13992WAT      O42217   4.559   3.314   0.381
13992WAT     H142218   4.630   3.257   0.338
13992WAT     H242219   4.496   3.255   0.431
13993WAT      O42220   5.600   3.042   0.942
13993WAT     H142221   5.628   2.947   0.948
13993WAT     H242222   5.556   3.059   0.854
13994WAT      O42223   9.604   6.771   8.741
13994WAT     H142224   9.505   6.755   8.739
13994WAT     H242225   9.651   6.693   8.698
13995WAT      O42226   9.034   2.498   2.536
13995WAT     H142227   9.044   2.473   2.439
13995WAT     H242228   8.957   2.561   2.547
13996WAT      O42229   9.541   3.255   7.111
13996WAT     H142230   9.453   3.299   7.095
13996WAT     H242231   9.582   3.231   7.023
13997WAT      O42232   2.565   6.121   6.659
13997WAT     H142233   2.596   6.142   6.752
13997WAT     H242234   2.544   6.206   6.611
13998WAT      O42235   4.870   3.519   6.281
13998WAT     H142236   4.852   3.421   6.277
13998WAT     H242237   4.804   3.563   6.341
13999WAT      O42238   5.376   4.564   8.727
13999WAT     H142239   5.350   4.480   8.775
13999WAT     H242240   5.400   4.634   8.794
14000WAT      O42241   4.915   6.401   8.839
14000WAT     H142242   4.984   6.469   8.816
14000WAT     H242243   4.824   6.441   8.832
14001WAT      O42244   5.875   8.440   3.657
14001WAT     H142245   5.916   8.357   3.620
14001WAT     H242246   5.776   8.435   3.650
14002WAT      O42247   1.908   1.738   7.187
14002WAT     H142248   1.887   1.656   7.240
14002WAT     H242249   1.902   1.819   7.246
14003WAT      O42250   5.173   4.349   3.248
14003WAT     H142251   5.198   4.369   3.342
14003WAT     H242252   5.246   4.379   3.187
14004WAT      O42253   5.453   5.401   2.286
14004WAT     H142254   5.458   5.457   2.369
14004WAT     H242255   5.534   5.417   2.230
14005WAT      O42256   2.967   6.942   5.347
14005WAT     H142257   2.926   6.891   5.422
14005WAT     H242258   3.061   6.968   5.372
14006WAT      O42259   9.497   7.763   7.031
14006WAT     H142260   9.587   7.771   7.073
14006WAT     H242261   9.504   7.709   6.947
14007WAT      O42262   3.337   3.860   3.284
14007WAT     H142263   3.258   3.896   3.235
14007WAT     H242264   3.319   3.765   3.312
14008WAT      O42265   0.217   2.483   0.753
14008WAT     H142266   0.244   2.400   0.703
14008WAT     H242267   0.177   2.548   0.688
14009WAT      O42268   1.618   2.364   4.002
14009WAT     H142269   1.710   2.390   3.974
14009WAT     H242270   1.556   2.369   3.924
14010WAT      O42271   3.004   4.619   0.936
14010WAT     H142272   2.963   4.534   0.903
14010WAT     H242273   2.964   4.643   1.024
14011WAT      O42274   5.221   9.597   1.153
14011WAT     H142275   5.255   9.504   1.169
14011WAT     H242276   5.297   9.655   1.123
14012WAT      O42277   7.925   2.029   7.449
14012WAT     H142278   7.923   1.931   7.467
14012WAT     H242279   8.020   2.061   7.447
14013WAT      O42280   4.023   3.945   3.460
14013WAT     H142281   3.958   3.869   3.456
14013WAT     H242282   4.099   3.921   3.520
14014WAT      O42283   6.595   9.077   3.865
14014WAT     H142284   6.606   9.171   3.897
14014WAT     H242285   6.570   9.078   3.768
14015WAT      O42286   7.822   9.301   2.968
14015WAT     H142287   7.816   9.264   3.061
14015WAT     H242288   7.781   9.392   2.965
14016WAT      O42289   2.572   3.863   8.979
14016WAT     H142290   2.552   3.814   8.894
14016WAT     H242291   2.599   3.957   8.957
14017WAT      O42292   5.203   4.741   1.654
14017WAT     H142293   5.265   4.663   1.671
14017WAT     H242294   5.112   4.706   1.634
14018WAT      O42295   3.728   7.615   2.941
14018WAT     H142296   3.727   7.517   2.921
14018WAT     H242297   3.687   7.665   2.865
14019WAT      O42298   1.925   9.084   1.303
14019WAT     H142299   1.838   9.084   1.254
14019WAT     H242300   1.999   9.059   1.239
14020WAT      O42301   6.537   1.600   7.110
14020WAT     H142302   6.442   1.578   7.088
14020WAT     H242303   6.597   1.570   7.036
14021WAT      O42304   3.085   0.075   4.511
14021WAT     H142305   3.005   0.018   4.530
14021WAT     H242306   3.093   0.145   4.582
14022WAT      O42307   7.168   2.449   0.444
14022WAT     H142308   7.195   2.502   0.525
14022WAT     H242309   7.243   2.388   0.418
14023WAT      O42310   2.082   4.987   2.679
14023WAT     H142311   2.155   5.045   2.644
14023WAT     H242312   2.077   4.995   2.779
14024WAT      O42313   1.930   5.564   6.577
14024WAT     H142314   1.942   5.531   6.671
14024WAT     H242315   1.975   5.653   6.567
14025WAT      O42316   5.787   9.512   0.471
14025WAT     H142317   5.882   9.489   0.488
14025WAT     H242318   5.745   9.548   0.555
14026WAT      O42319   2.407   2.567   1.527
14026WAT     H142320   2.424   2.663   1.502
14026WAT     H242321   2.493   2.516   1.523
14027WAT      O42322   5.550   4.749   9.175
14027WAT     H142323   5.532   4.779   9.269
14027WAT     H242324   5.628   4.687   9.174
14028WAT      O42325   8.724   7.029   4.252
14028WAT     H142326   8.793   7.013   4.183
14028WAT     H242327   8.727   6.956   4.321
14029WAT      O42328   3.949   3.239   8.850
14029WAT     H142329   4.016   3.234   8.775
14029WAT     H242330   3.997   3.246   8.937
14030WAT      O42331   9.116   8.061   6.178
14030WAT     H142332   9.199   8.020   6.139
14030WAT     H242333   9.071   8.118   6.109
14031WAT      O42334   8.232   8.345   1.562
14031WAT     H142335   8.280   8.273   1.611
14031WAT     H242336   8.225   8.426   1.620
14032WAT      O42337   3.462   5.019   4.769
14032WAT     H142338   3.454   5.117   4.787
14032WAT     H242339   3.387   4.970   4.814
14033WAT      O42340   4.049   8.583   2.128
14033WAT     H142341   4.070   8.485   2.122
14033WAT     H242342   3.959   8.601   2.089
14034WAT      O42343   3.796   9.584   7.471
14034WAT     H142344   3.731   9.510   7.487
14034WAT     H242345   3.855   9.560   7.394
14035WAT      O42346   8.739   1.433   4.066
14035WAT     H142347   8.677   1.366   4.026
14035WAT     H242348   8.748   1.512   4.005
14036WAT      O42349   6.162   6.116   9.513
14036WAT     H142350   6.181   6.084   9.420
14036WAT     H242351   6.220   6.195   9.534
14037WAT      O42352   2.536   6.329   1.502
14037WAT     H142353   2.544   6.247   1.559
14037WAT     H242354   2.561   6.410   1.556
14038WAT      O42355   9.875   9.825   4.969
14038WAT     H142356   9.918   9.881   4.898
14038WAT     H242357   9.943   9.804   5.040
14039WAT      O42358   7.710   1.223   6.885
14039WAT     H142359   7.638   1.181   6.830
14039WAT     H242360   7.794   1.167   6.878
14040WAT      O42361   2.507   1.392   3.317
14040WAT     H142362   2.409   1.402   3.336
14040WAT     H242363   2.560   1.417   3.398
14041WAT      O42364   8.540   8.940   0.431
14041WAT     H142365   8.621   8.881   0.432
14041WAT     H242366   8.501   8.945   0.523
14042WAT      O42367   0.510   3.395   5.311
14042WAT     H142368   0.579   3.339   5.265
14042WAT     H242369   0.549   3.433   5.395
14043WAT      O42370   1.171   7.960   7.635
14043WAT     H142371   1.184   8.059   7.636
14043WAT     H242372   1.242   7.918   7.579
14044WAT      O42373   1.543   9.749   7.237
14044WAT     H142374   1.499   9.833   7.208
14044WAT     H242375   1.479   9.673   7.229
14045WAT      O42376   7.505   7.031   1.530
14045WAT     H142377   7.586   7.084   1.505
14045WAT     H242378   7.444   7.087   1.585
14046WAT      O42379   4.729   5.694   0.893
14046WAT     H142380   4.804   5.717   0.955
14046WAT     H242381   4.744   5.737   0.804
14047WAT      O42382   2.234   2.285   8.460
14047WAT     H142383   2.174   2.239   8.396
14047WAT     H242384   2.327   2.248   8.452
14048WAT      O42385   2.306   8.629   5.934
14048WAT     H142386   2.274   8.546   5.888
14048WAT     H242387   2.362   8.683   5.872
14049WAT      O42388   8.021   5.067   0.741
14049WAT     H142389   7.939   5.112   0.707
14049WAT     H242390   8.012   5.049   0.839
14050WAT      O42391   1.922   7.674   8.744
14050WAT     H142392   1.894   7.578   8.758
14050WAT     H242393   2.017   7.677   8.714
14051WAT      O42394   9.272   4.787   6.075
14051WAT     H142395   9.281   4.688   6.090
14051WAT     H242396   9.178   4.809   6.050
14052WAT      O42397   1.988   3.324   2.225
14052WAT     H142398   2.012   3.255   2.157
14052WAT     H242399   1.913   3.289   2.283
14053WAT      O42400   9.107   7.232   6.779
14053WAT     H142401   9.099   7.330   6.760
14053WAT     H242402   9.175   7.217   6.851
14054WAT      O42403   5.168   1.908   0.833
14054WAT     H142404   5.258   1.907   0.788
14054WAT     H242405   5.103   1.958   0.775
14055WAT      O42406   9.436   6.101   1.979
14055WAT     H142407   9.490   6.173   1.934
14055WAT     H242408   9.386   6.050   1.910
14056WAT      O42409   6.687   8.901   1.594
14056WAT     H142410   6.698   8.940   1.503
14056WAT     H242411   6.777   8.890   1.636
14057WAT      O42412   6.849   5.003   4.833
14057WAT     H142413   6.861   5.097   4.862
14057WAT     H242414   6.933   4.951   4.851
14058WAT      O42415   9.527   9.045   3.120
14058WAT     H142416   9.448   9.038   3.059
14058WAT     H242417   9.496   9.072   3.211
14059WAT      O42418   1.170   3.788   6.393
14059WAT     H142419   1.077   3.823   6.403
14059WAT     H242420   1.235   3.852   6.433
14060WAT      O42421   5.186   4.106   2.622
14060WAT     H142422   5.263   4.051   2.590
14060WAT     H242423   5.179   4.189   2.567
14061WAT      O42424   5.583   9.513   2.516
14061WAT     H142425   5.508   9.465   2.470
14061WAT     H242426   5.642   9.447   2.563
14062WAT      O42427   0.737   3.550   4.551
14062WAT     H142428   0.693   3.613   4.615
14062WAT     H242429   0.834   3.543   4.573
14063WAT      O42430   4.340   0.563   0.419
14063WAT     H142431   4.439   0.549   0.413
14063WAT     H242432   4.300   0.565   0.327
14064WAT      O42433   7.532   0.591   9.892
14064WAT     H142434   7.496   0.530   9.822
14064WAT     H242435   7.465   0.662   9.913
14065WAT      O42436   5.590   5.433   0.913
14065WAT     H142437   5.610   5.345   0.956
14065WAT     H242438   5.662   5.454   0.847
14066WAT      O42439   1.356   6.647   9.445
14066WAT     H142440   1.298   6.569   9.419
14066WAT     H242441   1.373   6.644   9.544
14067WAT      O42442   6.390   3.106   8.357
14067WAT     H142443   6.315   3.050   8.393
14067WAT     H242444   6.442   3.054   8.290
14068WAT      O42445   0.106   8.640   4.135
14068WAT     H142446   0.063   8.631   4.046
14068WAT     H242447   0.097   8.554   4.185
14069WAT      O42448   1.940   9.215   5.521
14069WAT     H142449   1.871   9.287   5.523
14069WAT     H242450   1.995   9.223   5.439
14070WAT      O42451   8.274   5.599   3.564
14070WAT     H142452   8.181   5.634   3.576
14070WAT     H242453   8.281   5.550   3.477
14071WAT      O42454   3.321   1.388   7.172
14071WAT     H142455   3.416   1.407   7.149
14071WAT     H242456   3.316   1.303   7.225
14072WAT      O42457   4.855   9.718   0.912
14072WAT     H142458   4.952   9.709   0.936
14072WAT     H242459   4.812   9.785   0.972
14073WAT      O42460   1.874   0.833   0.862
14073WAT     H142461   1.862   0.737   0.889
14073WAT     H242462   1.787   0.870   0.832
14074WAT      O42463   2.458   7.005   6.586
14074WAT     H142464   2.515   6.924   6.579
14074WAT     H242465   2.481   7.056   6.669
14075WAT      O42466   9.052   7.092   9.410
14075WAT     H142467   9.123   7.022   9.399
14075WAT     H242468   9.095   7.178   9.438
14076WAT      O42469   3.611   1.678   8.188
14076WAT     H142470   3.672   1.757   8.190
14076WAT     H242471   3.663   1.595   8.168
14077WAT      O42472   2.441   9.074   3.722
14077WAT     H142473   2.509   9.127   3.773
14077WAT     H242474   2.481   9.043   3.636
14078WAT      O42475   3.737   3.649   3.785
14078WAT     H142476   3.729   3.725   3.850
14078WAT     H242477   3.807   3.585   3.818
14079WAT      O42478   9.330   5.964   0.474
14079WAT     H142479   9.268   5.967   0.552
14079WAT     H242480   9.421   5.936   0.504
14080WAT      O42481   5.042   9.020   9.688
14080WAT     H142482   5.124   9.031   9.743
14080WAT     H242483   4.996   8.934   9.713
14081WAT      O42484   9.550   6.283   4.654
14081WAT     H142485   9.626   6.347   4.661
14081WAT     H242486   9.464   6.332   4.670
14082WAT      O42487   8.941   4.864   6.722
14082WAT     H142488   8.908   4.955   6.748
14082WAT     H242489   8.921   4.848   6.625
14083WAT      O42490   6.657   7.956   3.917
14083WAT     H142491   6.567   7.963   3.958
14083WAT     H242492   6.727   7.982   3.983
14084WAT      O42493   5.146   7.267   0.484
14084WAT     H142494   5.231   7.249   0.532
14084WAT     H242495   5.092   7.183   0.479
14085WAT      O42496   6.423   9.492   4.166
14085WAT     H142497   6.476   9.566   4.125
14085WAT     H242498   6.391   9.520   4.257
14086WAT      O42499   0.040   0.409   5.578
14086WAT     H142500   0.041   0.314   5.610
14086WAT     H242501   0.053   0.411   5.479
14087WAT      O42502   0.623   5.314   6.788
14087WAT     H142503   0.587   5.384   6.850
14087WAT     H242504   0.720   5.301   6.806
14088WAT      O42505   4.452   1.099   5.467
14088WAT     H142506   4.368   1.049   5.486
14088WAT     H242507   4.459   1.177   5.529
14089WAT      O42508   2.715   6.421   3.606
14089WAT     H142509   2.658   6.340   3.614
14089WAT     H242510   2.809   6.394   3.587
14090WAT      O42511   0.874   3.806   6.434
14090WAT     H142512   0.775   3.792   6.442
14090WAT     H242513   0.897   3.825   6.339
14091WAT      O42514   2.439   3.640   0.499
14091WAT     H142515   2.522   3.663   0.447
14091WAT     H242516   2.386   3.571   0.449
14092WAT      O42517   9.660   2.111   8.717
14092WAT     H142518   9.729   2.045   8.685
14092WAT     H242519   9.687   2.203   8.690
14093WAT      O42520   4.820   1.866   3.438
14093WAT     H142521   4.827   1.925   3.518
14093WAT     H242522   4.726   1.867   3.404
14094WAT      O42523   0.781   7.821   1.153
14094WAT     H142524   0.861   7.798   1.098
14094WAT     H242525   0.756   7.742   1.209
14095WAT      O42526   5.346   7.713   7.228
14095WAT     H142527   5.276   7.775   7.262
14095WAT     H242528   5.424   7.766   7.194
14096WAT      O42529   9.521   7.147   8.286
14096WAT     H142530   9.523   7.159   8.187
14096WAT     H242531   9.520   7.049   8.308
14097WAT      O42532   8.863   8.773   5.918
14097WAT     H142533   8.922   8.780   5.998
14097WAT     H242534   8.798   8.698   5.931
14098WAT      O42535   6.270   1.915   8.333
14098WAT     H142536   6.174   1.909   8.308
14098WAT     H242537   6.294   2.011   8.350
14099WAT      O42538   5.606   6.429   1.167
14099WAT     H142539   5.701   6.398   1.163
14099WAT     H242540   5.603   6.520   1.210
14100WAT      O42541   3.704   4.589   3.529
14100WAT     H142542   3.760   4.531   3.587
14100WAT     H242543   3.755   4.672   3.506
14101WAT      O42544   2.563   4.677   6.073
14101WAT     H142545   2.659   4.690   6.046
14101WAT     H242546   2.546   4.725   6.159
14102WAT      O42547   6.306   5.922   0.409
14102WAT     H142548   6.333   6.000   0.351
14102WAT     H242549   6.381   5.901   0.472
14103WAT      O42550   4.934   0.900   2.770
14103WAT     H142551   4.970   0.935   2.857
14103WAT     H242552   4.881   0.817   2.787
14104WAT      O42553   2.830   5.451   8.223
14104WAT     H142554   2.922   5.470   8.188
14104WAT     H242555   2.798   5.364   8.185
14105WAT      O42556   8.192   5.541   5.004
14105WAT     H142557   8.230   5.550   4.912
14105WAT     H242558   8.116   5.476   5.003
14106WAT      O42559   8.788   4.608   1.628
14106WAT     H142560   8.729   4.535   1.596
14106WAT     H242561   8.733   4.684   1.662
14107WAT      O42562   8.829   1.932   8.720
14107WAT     H142563   8.858   2.027   8.731
14107WAT     H242564   8.893   1.872   8.767
14108WAT      O42565   2.879   9.395   6.919
14108WAT     H142566   2.796   9.344   6.941
14108WAT     H242567   2.940   9.338   6.865
14109WAT      O42568   1.823   9.275   1.497
14109WAT     H142569   1.836   9.217   1.417
14109WAT     H242570   1.725   9.290   1.512
14110WAT      O42571   1.107   3.594   0.696
14110WAT     H142572   1.195   3.631   0.729
14110WAT     H242573   1.036   3.664   0.706
14111WAT      O42574   9.763   7.323   3.680
14111WAT     H142575   9.770   7.339   3.778
14111WAT     H242576   9.667   7.308   3.656
14112WAT      O42577   3.468   0.340   1.361
14112WAT     H142578   3.544   0.364   1.421
14112WAT     H242579   3.386   0.389   1.390
14113WAT      O42580   2.447   2.177   3.709
14113WAT     H142581   2.514   2.126   3.655
14113WAT     H242582   2.387   2.228   3.647
14114WAT      O42583   0.810   7.519   1.263
14114WAT     H142584   0.715   7.531   1.290
14114WAT     H242585   0.815   7.505   1.164
14115WAT      O42586   8.980   6.425   6.205
14115WAT     H142587   8.990   6.330   6.232
14115WAT     H242588   9.061   6.477   6.231
14116WAT      O42589   5.373   9.019   2.452
14116WAT     H142590   5.448   9.069   2.409
14116WAT     H242591   5.393   9.006   2.549
14117WAT      O42592   4.588   3.096   5.860
14117WAT     H142593   4.624   3.126   5.772
14117WAT     H242594   4.599   2.997   5.869
14118WAT      O42595   5.554   2.477   5.560
14118WAT     H142596   5.622   2.549   5.566
14118WAT     H242597   5.576   2.404   5.624
14119WAT      O42598   6.315   6.937   2.947
14119WAT     H142599   6.371   6.995   3.006
14119WAT     H242600   6.357   6.847   2.940
14120WAT      O42601   8.243   3.467   6.593
14120WAT     H142602   8.150   3.443   6.566
14120WAT     H242603   8.241   3.551   6.648
14121WAT      O42604   5.030   1.938   6.436
14121WAT     H142605   5.019   1.940   6.536
14121WAT     H242606   5.022   2.031   6.400
14122WAT      O42607   6.058   6.957   8.912
14122WAT     H142608   6.057   7.049   8.952
14122WAT     H242609   6.009   6.957   8.826
14123WAT      O42610   4.033   2.706   6.105
14123WAT     H142611   4.093   2.693   6.026
14123WAT     H242612   4.088   2.701   6.189
14124WAT      O42613   9.000   2.648   1.231
14124WAT     H142614   9.065   2.614   1.163
14124WAT     H242615   8.907   2.622   1.205
14125WAT      O42616   0.399   9.440   9.082
14125WAT     H142617   0.307   9.480   9.087
14125WAT     H242618   0.396   9.355   9.029
14126WAT      O42619   5.264   4.860   2.044
14126WAT     H142620   5.204   4.781   2.048
14126WAT     H242621   5.360   4.831   2.049
14127WAT      O42622   6.225   6.190   2.527
14127WAT     H142623   6.266   6.225   2.443
14127WAT     H242624   6.252   6.248   2.604
14128WAT      O42625   1.594   2.831   9.578
14128WAT     H142626   1.495   2.821   9.581
14128WAT     H242627   1.621   2.863   9.487
14129WAT      O42628   8.862   0.958   1.775
14129WAT     H142629   8.775   0.995   1.807
14129WAT     H242630   8.923   1.033   1.750
14130WAT      O42631   3.430   6.847   3.975
14130WAT     H142632   3.525   6.877   3.960
14130WAT     H242633   3.368   6.921   3.950
14131WAT      O42634   1.195   7.871   1.521
14131WAT     H142635   1.157   7.933   1.452
14131WAT     H242636   1.131   7.863   1.597
14132WAT      O42637   1.439   5.416   0.465
14132WAT     H142638   1.348   5.383   0.489
14132WAT     H242639   1.499   5.338   0.446
14133WAT      O42640   8.471   7.861   1.535
14133WAT     H142641   8.566   7.890   1.524
14133WAT     H242642   8.461   7.810   1.620
14134WAT      O42643   8.604   2.680   8.546
14134WAT     H142644   8.587   2.740   8.625
14134WAT     H242645   8.703   2.677   8.529
14135WAT      O42646   6.313   5.209   8.469
14135WAT     H142647   6.277   5.128   8.423
14135WAT     H242648   6.401   5.235   8.427
14136WAT      O42649   1.549   3.063   9.766
14136WAT     H142650   1.565   3.067   9.865
14136WAT     H242651   1.603   2.990   9.726
14137WAT      O42652   0.460   1.384   0.517
14137WAT     H142653   0.471   1.288   0.543
14137WAT     H242654   0.449   1.440   0.599
14138WAT      O42655   6.293   4.083   5.940
14138WAT     H142656   6.336   3.993   5.932
14138WAT     H242657   6.364   4.154   5.937
14139WAT      O42658   0.777   3.297   4.687
14139WAT     H142659   0.738   3.388   4.671
14139WAT     H242660   0.801   3.288   4.784
14140WAT      O42661   5.550   8.391   2.800
14140WAT     H142662   5.493   8.396   2.883
14140WAT     H242663   5.561   8.483   2.763
14141WAT      O42664   1.482   2.562   1.330
14141WAT     H142665   1.407   2.497   1.343
14141WAT     H242666   1.541   2.562   1.411
14142WAT      O42667   4.052   8.579   4.820
14142WAT     H142668   3.965   8.534   4.799
14142WAT     H242669   4.123   8.511   4.834
14143WAT      O42670   2.614   3.113   6.865
14143WAT     H142671   2.532   3.083   6.815
14143WAT     H242672   2.591   3.194   6.919
14144WAT      O42673   1.041   9.585   3.264
14144WAT     H142674   1.068   9.592   3.167
14144WAT     H242675   0.956   9.533   3.272
14145WAT      O42676   7.742   6.479   7.257
14145WAT     H142677   7.706   6.563   7.296
14145WAT     H242678   7.752   6.410   7.329
14146WAT      O42679   5.452   2.693   7.829
14146WAT     H142680   5.452   2.774   7.889
14146WAT     H242681   5.361   2.652   7.829
14147WAT      O42682   1.849   1.798   3.195
14147WAT     H142683   1.815   1.807   3.289
14147WAT     H242684   1.907   1.717   3.188
14148WAT      O42685   7.462   0.049   7.599
14148WAT     H142686   7.394   0.013   7.663
14148WAT     H242687   7.456   0.149   7.597
14149WAT      O42688   5.816   1.110   6.634
14149WAT     H142689   5.820   1.054   6.716
14149WAT     H242690   5.878   1.188   6.643
14150WAT      O42691   6.849   7.937   5.587
14150WAT     H142692   6.849   8.022   5.640
14150WAT     H242693   6.942   7.913   5.562
14151WAT      O42694   6.294   5.686   5.480
14151WAT     H142695   6.276   5.593   5.512
14151WAT     H242696   6.360   5.729   5.541
14152WAT      O42697   9.706   0.251   2.253
14152WAT     H142698   9.750   0.181   2.197
14152WAT     H242699   9.745   0.341   2.231
14153WAT      O42700   4.978   1.331   5.411
14153WAT     H142701   4.950   1.296   5.501
14153WAT     H242702   4.919   1.292   5.341
14154WAT      O42703   6.889   3.129   9.274
14154WAT     H142704   6.942   3.102   9.355
14154WAT     H242705   6.937   3.099   9.192
14155WAT      O42706   8.870   8.318   4.437
14155WAT     H142707   8.817   8.234   4.444
14155WAT     H242708   8.808   8.397   4.445
14156WAT      O42709   6.619   4.013   0.779
14156WAT     H142710   6.628   4.061   0.692
14156WAT     H242711   6.698   3.952   0.792
14157WAT      O42712   6.233   7.699   9.816
14157WAT     H142713   6.302   7.770   9.804
14157WAT     H242714   6.191   7.677   9.728
14158WAT      O42715   9.679   3.989   9.489
14158WAT     H142716   9.733   4.066   9.521
14158WAT     H242717   9.594   3.984   9.542
14159WAT      O42718   0.422   2.185   4.361
14159WAT     H142719   0.441   2.255   4.430
14159WAT     H242720   0.507   2.137   4.339
14160WAT      O42721   0.034   8.627   0.439
14160WAT     H142722   0.033   8.621   0.339
14160WAT     H242723  -0.008   8.714   0.467
14161WAT      O42724   4.761   7.992   8.843
14161WAT     H142725   4.676   7.996   8.790
14161WAT     H242726   4.814   7.912   8.816
14162WAT      O42727   9.075   3.948   7.268
14162WAT     H142728   9.018   4.029   7.273
14162WAT     H242729   9.020   3.866   7.283
14163WAT      O42730   6.834   7.425   3.846
14163WAT     H142731   6.802   7.336   3.813
14163WAT     H242732   6.798   7.497   3.787
14164WAT      O42733   8.001   7.267   7.042
14164WAT     H142734   8.066   7.309   7.105
14164WAT     H242735   7.909   7.276   7.080
14165WAT      O42736   5.076   3.730   6.887
14165WAT     H142737   5.043   3.819   6.854
14165WAT     H242738   5.159   3.705   6.837
14166WAT      O42739   9.858   3.943   8.762
14166WAT     H142740   9.903   3.953   8.851
14166WAT     H242741   9.760   3.957   8.774
14167WAT      O42742   0.771   9.332   8.795
14167WAT     H142743   0.732   9.241   8.808
14167WAT     H242744   0.708   9.401   8.829
14168WAT      O42745   3.833   8.758   3.850
14168WAT     H142746   3.760   8.763   3.781
14168WAT     H242747   3.916   8.798   3.812
14169WAT      O42748   0.656   1.023   8.402
14169WAT     H142749   0.719   0.959   8.357
14169WAT     H242750   0.582   0.972   8.445
14170WAT      O42751   4.506   4.582   5.951
14170WAT     H142752   4.414   4.581   5.990
14170WAT     H242753   4.571   4.616   6.018
14171WAT      O42754   2.983   9.085   9.883
14171WAT     H142755   3.081   9.063   9.878
14171WAT     H242756   2.955   9.092   9.979
14172WAT      O42757   3.277   2.721   5.206
14172WAT     H142758   3.180   2.708   5.185
14172WAT     H242759   3.299   2.679   5.293
14173WAT      O42760   1.667   3.227   2.616
14173WAT     H142761   1.709   3.225   2.525
14173WAT     H242762   1.666   3.321   2.650
14174WAT      O42763   1.266   0.205   8.194
14174WAT     H142764   1.288   0.194   8.290
14174WAT     H242765   1.227   0.296   8.179
14175WAT      O42766   4.957   5.563   8.245
14175WAT     H142767   5.039   5.616   8.222
14175WAT     H242768   4.983   5.483   8.299
14176WAT      O42769   9.870   0.435   0.637
14176WAT     H142770   9.872   0.446   0.736
14176WAT     H242771   9.862   0.338   0.614
14177WAT      O42772   1.191   9.672   5.802
14177WAT     H142773   1.109   9.675   5.859
14177WAT     H242774   1.220   9.577   5.791
14178WAT      O42775   6.717   8.838   7.485
14178WAT     H142776   6.719   8.895   7.402
14178WAT     H242777   6.783   8.764   7.475
14179WAT      O42778   6.698   5.880   6.628
14179WAT     H142779   6.760   5.954   6.602
14179WAT     H242780   6.604   5.914   6.632
14180WAT      O42781   3.710   3.784   6.536
14180WAT     H142782   3.763   3.805   6.618
14180WAT     H242783   3.650   3.707   6.553
14181WAT      O42784   7.818   5.016   4.900
14181WAT     H142785   7.852   4.925   4.875
14181WAT     H242786   7.895   5.072   4.932
14182WAT      O42787   1.431   7.585   6.504
14182WAT     H142788   1.487   7.648   6.450
14182WAT     H242789   1.366   7.636   6.559
14183WAT      O42790   8.922   0.931   6.423
14183WAT     H142791   9.009   0.908   6.379
14183WAT     H242792   8.867   0.986   6.360
14184WAT      O42793   5.577   9.352   9.371
14184WAT     H142794   5.532   9.428   9.417
14184WAT     H242795   5.523   9.269   9.384
14185WAT      O42796   3.132   7.397   3.457
14185WAT     H142797   3.201   7.377   3.388
14185WAT     H242798   3.098   7.490   3.444
14186WAT      O42799   4.282   8.077   5.811
14186WAT     H142800   4.320   8.090   5.902
14186WAT     H242801   4.182   8.080   5.815
14187WAT      O42802   3.871   7.871   7.334
14187WAT     H142803   3.939   7.902   7.400
14187WAT     H242804   3.781   7.904   7.362
14188WAT      O42805   6.612   4.797   7.530
14188WAT     H142806   6.614   4.697   7.537
14188WAT     H242807   6.552   4.834   7.601
14189WAT      O42808   0.322   2.202   9.007
14189WAT     H142809   0.274   2.123   9.044
14189WAT     H242810   0.281   2.286   9.043
14190WAT      O42811   9.806   1.372   4.242
14190WAT     H142812   9.815   1.470   4.228
14190WAT     H242813   9.712   1.344   4.223
14191WAT      O42814   0.980   0.126   9.562
14191WAT     H142815   0.951   0.032   9.547
14191WAT     H242816   0.960   0.181   9.480
14192WAT      O42817   3.352   1.538   6.099
14192WAT     H142818   3.270   1.536   6.157
14192WAT     H242819   3.352   1.622   6.044
14193WAT      O42820   7.200   6.684   9.220
14193WAT     H142821   7.178   6.772   9.262
14193WAT     H242822   7.116   6.639   9.191
14194WAT      O42823   0.019   3.990   9.302
14194WAT     H142824  -0.045   3.984   9.379
14194WAT     H242825  -0.031   4.017   9.219
14195WAT      O42826   8.959   4.628   3.725
14195WAT     H142827   8.981   4.535   3.697
14195WAT     H242828   8.984   4.691   3.651
14196WAT      O42829   1.419   1.217   1.299
14196WAT     H142830   1.479   1.280   1.349
14196WAT     H242831   1.329   1.216   1.344
14197WAT      O42832   7.533   2.502   3.711
14197WAT     H142833   7.610   2.564   3.721
14197WAT     H242834   7.456   2.551   3.670
14198WAT      O42835   0.185   8.651   8.981
14198WAT     H142836   0.224   8.657   8.889
14198WAT     H242837   0.226   8.720   9.040
14199WAT      O42838   4.340   9.797   0.499
14199WAT     H142839   4.249   9.837   0.506
14199WAT     H242840   4.388   9.837   0.421
14200WAT      O42841   0.744   7.356   6.344
14200WAT     H142842   0.769   7.449   6.320
14200WAT     H242843   0.689   7.315   6.272
14201WAT      O42844   0.497   9.641   9.245
14201WAT     H142845   0.547   9.600   9.321
14201WAT     H242846   0.463   9.569   9.185
14202WAT      O42847   3.327   5.313   5.853
14202WAT     H142848   3.385   5.365   5.791
14202WAT     H242849   3.241   5.289   5.807
14203WAT      O42850   6.061   6.969   4.144
14203WAT     H142851   5.970   7.005   4.167
14203WAT     H242852   6.119   6.972   4.225
14204WAT      O42853   1.406   0.948   5.982
14204WAT     H142854   1.332   0.965   5.916
14204WAT     H242855   1.381   0.871   6.040
14205WAT      O42856   6.183   1.578   6.750
14205WAT     H142857   6.115   1.599   6.680
14205WAT     H242858   6.270   1.555   6.706
14206WAT      O42859   4.675   0.440   7.418
14206WAT     H142860   4.635   0.417   7.507
14206WAT     H242861   4.607   0.430   7.346
14207WAT      O42862   5.054   4.281   2.431
14207WAT     H142863   5.065   4.379   2.418
14207WAT     H242864   5.005   4.242   2.353
14208WAT      O42865   3.856   3.787   6.791
14208WAT     H142866   3.849   3.886   6.783
14208WAT     H242867   3.822   3.759   6.881
14209WAT      O42868   6.592   3.081   5.469
14209WAT     H142869   6.690   3.064   5.471
14209WAT     H242870   6.575   3.179   5.457
14210WAT      O42871   7.804   2.547   1.094
14210WAT     H142872   7.710   2.571   1.069
14210WAT     H242873   7.845   2.623   1.145
14211WAT      O42874   3.086   7.118   3.485
14211WAT     H142875   3.109   7.214   3.469
14211WAT     H242876   3.081   7.100   3.583
14212WAT      O42877   7.394   0.950   7.639
14212WAT     H142878   7.389   1.045   7.672
14212WAT     H242879   7.307   0.904   7.659
14213WAT      O42880   7.231   7.363   7.003
14213WAT     H142881   7.190   7.391   7.090
14213WAT     H242882   7.167   7.303   6.954
14214WAT      O42883   9.877   0.738   0.279
14214WAT     H142884   9.919   0.718   0.191
14214WAT     H242885   9.838   0.831   0.277
14215WAT      O42886   7.507   4.562   1.913
14215WAT     H142887   7.576   4.563   1.841
14215WAT     H242888   7.456   4.476   1.908
14216WAT      O42889   9.593   3.681   5.712
14216WAT     H142890   9.543   3.766   5.726
14216WAT     H242891   9.554   3.632   5.633
14217WAT      O42892   6.894   0.178   4.927
14217WAT     H142893   6.909   0.267   4.885
14217WAT     H242894   6.834   0.188   5.007
14218WAT      O42895   0.364   8.279   4.977
14218WAT     H142896   0.339   8.250   5.069
14218WAT     H242897   0.408   8.203   4.929
14219WAT      O42898   6.415   6.179   6.146
14219WAT     H142899   6.432   6.181   6.245
14219WAT     H242900   6.415   6.084   6.114
14220WAT      O42901   7.539   9.374   2.468
14220WAT     H142902   7.548   9.286   2.514
14220WAT     H242903   7.623   9.396   2.419
14221WAT      O42904   2.892   2.845   2.892
14221WAT     H142905   2.812   2.847   2.952
14221WAT     H242906   2.965   2.793   2.937
14222WAT      O42907   8.727   1.007   3.930
14222WAT     H142908   8.696   0.915   3.904
14222WAT     H242909   8.648   1.064   3.952
14223WAT      O42910   5.641   6.207   5.001
14223WAT     H142911   5.693   6.158   4.931
14223WAT     H242912   5.691   6.204   5.087
14224WAT      O42913   9.104   5.397   8.707
14224WAT     H142914   9.154   5.474   8.745
14224WAT     H242915   9.025   5.376   8.765
14225WAT      O42916   2.811   2.817   3.522
14225WAT     H142917   2.902   2.783   3.542
14225WAT     H242918   2.796   2.903   3.571
14226WAT      O42919   8.833   0.408   4.170
14226WAT     H142920   8.749   0.377   4.125
14226WAT     H242921   8.818   0.499   4.209
14227WAT      O42922   9.593   3.845   9.143
14227WAT     H142923   9.680   3.796   9.135
14227WAT     H242924   9.525   3.786   9.185
14228WAT      O42925   1.343   5.870   2.629
14228WAT     H142926   1.364   5.807   2.705
14228WAT     H242927   1.260   5.839   2.583
14229WAT      O42928   5.349   3.166   2.775
14229WAT     H142929   5.423   3.144   2.711
14229WAT     H242930   5.386   3.215   2.854
14230WAT      O42931   7.559   4.341   3.454
14230WAT     H142932   7.462   4.320   3.468
14230WAT     H242933   7.613   4.304   3.530
14231WAT      O42934   7.894   6.993   5.143
14231WAT     H142935   7.873   6.940   5.225
14231WAT     H242936   7.968   7.057   5.162
14232WAT      O42937   0.924   2.640   2.473
14232WAT     H142938   0.945   2.737   2.486
14232WAT     H242939   0.834   2.631   2.430
14233WAT      O42940   8.382   5.812   9.355
14233WAT     H142941   8.380   5.715   9.334
14233WAT     H242942   8.448   5.858   9.295
14234WAT      O42943   5.711   5.411   0.082
14234WAT     H142944   5.654   5.385   0.004
14234WAT     H242945   5.705   5.510   0.095
14235WAT      O42946   0.116   6.444   7.020
14235WAT     H142947   0.168   6.411   7.099
14235WAT     H242948   0.173   6.506   6.966
14236WAT      O42949   0.173   2.311   2.446
14236WAT     H142950   0.252   2.372   2.447
14236WAT     H242951   0.103   2.347   2.385
14237WAT      O42952   8.846   5.063   5.443
14237WAT     H142953   8.891   5.100   5.362
14237WAT     H242954   8.914   5.021   5.503
14238WAT      O42955   8.992   8.264   8.311
14238WAT     H142956   8.937   8.180   8.315
14238WAT     H242957   8.974   8.312   8.225
14239WAT      O42958   7.385   3.499   3.243
14239WAT     H142959   7.393   3.405   3.211
14239WAT     H242960   7.309   3.507   3.307
14240WAT      O42961   7.005   0.058   9.659
14240WAT     H142962   7.053   0.122   9.599
14240WAT     H242963   7.016  -0.035   9.624
14241WAT      O42964   1.620   3.358   1.324
14241WAT     H142965   1.629   3.410   1.409
14241WAT     H242966   1.633   3.419   1.246
14242WAT      O42967   5.445   0.612   7.099
14242WAT     H142968   5.508   0.545   7.061
14242WAT     H242969   5.486   0.703   7.092
14243WAT      O42970   5.575   6.375   4.700
14243WAT     H142971   5.652   6.315   4.679
14243WAT     H242972   5.593   6.422   4.787
14244WAT      O42973   7.539   2.619   6.381
14244WAT     H142974   7.559   2.590   6.475
14244WAT     H242975   7.511   2.715   6.382
14245WAT      O42976   1.555   0.962   6.619
14245WAT     H142977   1.638   1.016   6.634
14245WAT     H242978   1.528   0.967   6.523
14246WAT      O42979   5.619   7.379   2.813
14246WAT     H142980   5.583   7.430   2.891
14246WAT     H242981   5.697   7.428   2.775
14247WAT      O42982   2.796   3.131   4.152
14247WAT     H142983   2.760   3.071   4.224
14247WAT     H242984   2.895   3.139   4.162
14248WAT      O42985   7.705   3.678   4.584
14248WAT     H142986   7.631   3.689   4.651
14248WAT     H242987   7.792   3.705   4.627
14249WAT      O42988   8.930   1.698   6.999
14249WAT     H142989   8.851   1.696   6.938
14249WAT     H242990   8.987   1.777   6.978
14250WAT      O42991   0.727   5.462   8.947
14250WAT     H142992   0.652   5.437   9.009
14250WAT     H242993   0.695   5.531   8.883
14251WAT      O42994   8.373   1.644   4.598
14251WAT     H142995   8.431   1.570   4.630
14251WAT     H242996   8.286   1.642   4.648
14252WAT      O42997   7.282   3.978   5.255
14252WAT     H142998   7.188   3.946   5.259
14252WAT     H242999   7.295   4.037   5.175
14253WAT      O43000   6.272   8.093   1.084
14253WAT     H143001   6.319   8.144   1.155
14253WAT     H243002   6.234   8.009   1.124
14254WAT      O43003   8.243   8.538   4.365
14254WAT     H143004   8.205   8.489   4.286
14254WAT     H243005   8.326   8.493   4.396
14255WAT      O43006   7.085   5.503   4.414
14255WAT     H143007   6.991   5.483   4.387
14255WAT     H243008   7.145   5.501   4.334
14256WAT      O43009   3.799   2.441   6.749
14256WAT     H143010   3.800   2.368   6.680
14256WAT     H243011   3.786   2.400   6.840
14257WAT      O43012   0.077   6.387   3.576
14257WAT     H143013   0.053   6.293   3.549
14257WAT     H243014   0.113   6.387   3.669
14258WAT      O43015   5.455   7.834   9.557
14258WAT     H143016   5.393   7.755   9.555
14258WAT     H243017   5.550   7.803   9.554
14259WAT      O43018   2.369   9.203   5.216
14259WAT     H143019   2.314   9.136   5.266
14259WAT     H243020   2.461   9.205   5.253
14260WAT      O43021   8.867   1.768   1.762
14260WAT     H143022   8.917   1.715   1.692
14260WAT     H243023   8.769   1.767   1.740
14261WAT      O43024   3.765   5.918   8.386
14261WAT     H143025   3.763   5.961   8.296
14261WAT     H243026   3.687   5.856   8.394
14262WAT      O43027   1.889   8.598   3.353
14262WAT     H143028   1.931   8.643   3.432
14262WAT     H243029   1.897   8.657   3.272
14263WAT      O43030   5.061   6.658   3.703
14263WAT     H143031   5.114   6.585   3.661
14263WAT     H243032   5.113   6.698   3.779
14264WAT      O43033   1.175   4.430   9.426
14264WAT     H143034   1.173   4.507   9.490
14264WAT     H243035   1.230   4.356   9.465
14265WAT      O43036   2.506   4.826   8.243
14265WAT     H143037   2.593   4.867   8.269
14265WAT     H243038   2.523   4.747   8.184
14266WAT      O43039   4.551   2.191   2.614
14266WAT     H143040   4.560   2.110   2.557
14266WAT     H243041   4.467   2.240   2.590
14267WAT      O43042   6.098   6.268   5.563
14267WAT     H143043   6.097   6.299   5.658
14267WAT     H243044   6.008   6.231   5.540
14268WAT      O43045   9.420   0.796   3.089
14268WAT     H143046   9.497   0.747   3.130
14268WAT     H243047   9.375   0.738   3.021
14269WAT      O43048   9.734   0.498   9.341
14269WAT     H143049   9.800   0.515   9.267
14269WAT     H243050   9.647   0.542   9.319
14270WAT      O43051   7.654   3.178   2.518
14270WAT     H143052   7.656   3.189   2.419
14270WAT     H243053   7.597   3.249   2.559
14271WAT      O43054   1.446   9.291   8.065
14271WAT     H143055   1.374   9.229   8.098
14271WAT     H243056   1.459   9.364   8.132
14272WAT      O43057   0.612   1.990   3.563
14272WAT     H143058   0.526   1.964   3.606
14272WAT     H243059   0.688   1.969   3.625
14273WAT      O43060   9.581   5.608   2.952
14273WAT     H143061   9.482   5.597   2.949
14273WAT     H243062   9.620   5.583   2.863
14274WAT      O43063   8.065   6.878   4.343
14274WAT     H143064   7.979   6.911   4.382
14274WAT     H243065   8.117   6.829   4.413
14275WAT      O43066   3.565   3.513   3.225
14275WAT     H143067   3.516   3.451   3.164
14275WAT     H243068   3.567   3.474   3.317
14276WAT      O43069   4.519   1.808   1.725
14276WAT     H143070   4.439   1.856   1.758
14276WAT     H243071   4.588   1.874   1.694
14277WAT      O43072   9.364   0.650   3.400
14277WAT     H143073   9.376   0.555   3.371
14277WAT     H243074   9.280   0.658   3.453
14278WAT      O43075   0.195   9.836   7.942
14278WAT     H143076   0.253   9.761   7.910
14278WAT     H243077   0.251   9.900   7.995
14279WAT      O43078   2.218   1.581   1.874
14279WAT     H143079   2.121   1.594   1.895
14279WAT     H243080   2.251   1.498   1.921
14280WAT      O43081   0.199   4.576   5.150
14280WAT     H143082   0.184   4.674   5.138
14280WAT     H243083   0.156   4.545   5.234
14281WAT      O43084   9.251   5.501   6.103
14281WAT     H143085   9.276   5.573   6.168
14281WAT     H243086   9.213   5.542   6.020
14282WAT      O43087   0.862   1.294   2.584
14282WAT     H143088   0.791   1.363   2.569
14282WAT     H243089   0.872   1.238   2.501
14283WAT      O43090   3.618   4.400   6.669
14283WAT     H143091   3.682   4.371   6.739
14283WAT     H243092   3.663   4.461   6.605
14284WAT      O43093   8.142   3.417   8.933
14284WAT     H143094   8.187   3.349   8.875
14284WAT     H243095   8.183   3.415   9.024
14285WAT      O43096   6.272   3.366   7.661
14285WAT     H143097   6.231   3.367   7.570
14285WAT     H243098   6.290   3.460   7.690
14286WAT      O43099   1.862   9.312   2.087
14286WAT     H143100   1.915   9.328   2.171
14286WAT     H243101   1.889   9.380   2.019
14287WAT      O43102   6.895   2.215   7.350
14287WAT     H143103   6.841   2.191   7.269
14287WAT     H243104   6.904   2.135   7.409
14288WAT      O43105   2.457   1.800   7.225
14288WAT     H143106   2.420   1.774   7.137
14288WAT     H243107   2.392   1.777   7.297
14289WAT      O43108   3.448   8.556   8.459
14289WAT     H143109   3.413   8.489   8.525
14289WAT     H243110   3.548   8.547   8.453
14290WAT      O43111   7.107   2.228   9.639
14290WAT     H143112   7.187   2.203   9.694
14290WAT     H243113   7.097   2.163   9.563
14291WAT      O43114   7.611   4.061   3.166
14291WAT     H143115   7.524   4.020   3.193
14291WAT     H243116   7.651   4.108   3.245
14292WAT      O43117   7.192   1.570   0.551
14292WAT     H143118   7.129   1.592   0.625
14292WAT     H243119   7.286   1.568   0.586
14293WAT      O43120   5.052   6.410   4.017
14293WAT     H143121   5.126   6.446   3.960
14293WAT     H243122   4.964   6.445   3.983
14294WAT      O43123   9.058   8.457   4.608
14294WAT     H143124   8.998   8.422   4.536
14294WAT     H243125   9.028   8.548   4.635
14295WAT      O43126   9.265   0.615   7.134
14295WAT     H143127   9.339   0.563   7.176
14295WAT     H243128   9.214   0.663   7.205
14296WAT      O43129   2.510   8.226   1.586
14296WAT     H143130   2.488   8.189   1.496
14296WAT     H243131   2.580   8.170   1.629
14297WAT      O43132   0.359   9.030   9.555
14297WAT     H143133   0.408   9.114   9.579
14297WAT     H243134   0.419   8.951   9.566
14298WAT      O43135   3.721   7.399   2.188
14298WAT     H143136   3.697   7.419   2.093
14298WAT     H243137   3.796   7.333   2.190
14299WAT      O43138   9.595   8.060   0.473
14299WAT     H143139   9.504   8.101   0.467
14299WAT     H243140   9.607   8.022   0.565
14300WAT      O43141   0.600   2.968   6.213
14300WAT     H143142   0.548   3.054   6.215
14300WAT     H243143   0.663   2.965   6.291
14301WAT      O43144   5.432   9.804   1.792
14301WAT     H143145   5.436   9.892   1.745
14301WAT     H243146   5.524   9.770   1.806
14302WAT      O43147   6.721   5.032   7.710
14302WAT     H143148   6.786   5.106   7.725
14302WAT     H243149   6.650   5.063   7.647
14303WAT      O43150   9.666   0.831   5.223
14303WAT     H143151   9.725   0.910   5.214
14303WAT     H243152   9.593   0.836   5.155
14304WAT      O43153   6.971   9.436   4.172
14304WAT     H143154   7.052   9.397   4.214
14304WAT     H243155   6.925   9.367   4.117
14305WAT      O43156   8.965   6.611   1.236
14305WAT     H143157   8.964   6.711   1.238
14305WAT     H243158   9.026   6.577   1.308
14306WAT      O43159   7.197   2.883   4.796
14306WAT     H143160   7.205   2.922   4.704
14306WAT     H243161   7.142   2.944   4.854
14307WAT      O43162   0.737   7.541   4.554
14307WAT     H143163   0.697   7.632   4.566
14307WAT     H243164   0.697   7.497   4.474
14308WAT      O43165   4.777   3.432   4.582
14308WAT     H143166   4.692   3.476   4.556
14308WAT     H243167   4.841   3.434   4.505
14309WAT      O43168   8.909   6.930   9.569
14309WAT     H143169   8.812   6.908   9.578
14309WAT     H243170   8.920   7.011   9.512
14310WAT      O43171   7.540   0.838   9.528
14310WAT     H143172   7.444   0.815   9.546
14310WAT     H243173   7.595   0.754   9.534
14311WAT      O43174   9.223   5.160   6.388
14311WAT     H143175   9.242   5.069   6.351
14311WAT     H243176   9.153   5.153   6.459
14312WAT      O43177   1.496   2.888   3.112
14312WAT     H143178   1.461   2.844   3.030
14312WAT     H243179   1.472   2.986   3.109
14313WAT      O43180   3.096   8.755   4.834
14313WAT     H143181   3.150   8.839   4.842
14313WAT     H243182   3.089   8.728   4.738
14314WAT      O43183   5.813   7.969   2.951
14314WAT     H143184   5.771   7.986   3.040
14314WAT     H243185   5.749   7.994   2.878
14315WAT      O43186   1.836   7.102   1.532
14315WAT     H143187   1.821   7.078   1.628
14315WAT     H243188   1.755   7.079   1.479
14316WAT      O43189   1.247   5.280   0.628
14316WAT     H143190   1.333   5.247   0.666
14316WAT     H243191   1.181   5.204   0.625
14317WAT      O43192   5.024   6.077   1.596
14317WAT     H143193   5.035   6.159   1.540
14317WAT     H243194   5.101   6.016   1.582
14318WAT      O43195   6.524   2.399   7.901
14318WAT     H143196   6.623   2.396   7.913
14318WAT     H243197   6.484   2.461   7.968
14319WAT      O43198   3.827   6.214   2.981
14319WAT     H143199   3.747   6.225   2.923
14319WAT     H243200   3.803   6.234   3.076
14320WAT      O43201   6.993   4.028   0.340
14320WAT     H143202   7.051   3.957   0.298
14320WAT     H243203   6.977   4.102   0.275
14321WAT      O43204   8.580   8.528   5.312
14321WAT     H143205   8.503   8.520   5.249
14321WAT     H243206   8.610   8.438   5.342
14322WAT      O43207   2.543   6.133   4.033
14322WAT     H143208   2.531   6.040   3.996
14322WAT     H243209   2.616   6.132   4.101
14323WAT      O43210   5.887   1.514   1.222
14323WAT     H143211   5.894   1.596   1.165
14323WAT     H243212   5.974   1.498   1.269
14324WAT      O43213   9.397   2.280   6.238
14324WAT     H143214   9.473   2.309   6.296
14324WAT     H243215   9.415   2.309   6.144
14325WAT      O43216   9.685   4.442   1.757
14325WAT     H143217   9.744   4.362   1.752
14325WAT     H243218   9.691   4.493   1.671
14326WAT      O43219   6.684   3.991   5.101
14326WAT     H143220   6.696   4.044   5.185
14326WAT     H243221   6.729   3.902   5.111
14327WAT      O43222   2.593   4.144   1.209
14327WAT     H143223   2.584   4.185   1.300
14327WAT     H243224   2.651   4.202   1.152
14328WAT      O43225   5.103   0.050   6.114
14328WAT     H143226   5.078   0.028   6.020
14328WAT     H243227   5.198   0.079   6.117
14329WAT      O43228   7.295   9.412   6.229
14329WAT     H143229   7.359   9.352   6.278
14329WAT     H243230   7.314   9.507   6.253
14330WAT      O43231   8.337   1.111   5.439
14330WAT     H143232   8.295   1.178   5.501
14330WAT     H243233   8.331   1.145   5.345
14331WAT      O43234   9.811   5.018   3.355
14331WAT     H143235   9.839   5.006   3.450
14331WAT     H243236   9.776   4.931   3.319
14332WAT      O43237   0.218   2.745   2.853
14332WAT     H143238   0.195   2.841   2.840
14332WAT     H243239   0.281   2.735   2.930
14333WAT      O43240   4.419   8.570   2.008
14333WAT     H143241   4.504   8.526   2.039
14333WAT     H243242   4.374   8.511   1.940
14334WAT      O43243   8.967   4.176   9.545
14334WAT     H143244   8.924   4.122   9.474
14334WAT     H243245   8.896   4.216   9.604
14335WAT      O43246   8.598   9.357   3.450
14335WAT     H143247   8.648   9.413   3.517
14335WAT     H243248   8.624   9.261   3.462
14336WAT      O43249   3.897   9.813   8.303
14336WAT     H143250   3.819   9.759   8.336
14336WAT     H243251   3.921   9.784   8.211
14337WAT      O43252   8.586   7.407   2.327
14337WAT     H143253   8.655   7.475   2.304
14337WAT     H243254   8.625   7.340   2.391
14338WAT      O43255   9.292   9.186   4.669
14338WAT     H143256   9.268   9.096   4.633
14338WAT     H243257   9.240   9.257   4.620
14339WAT      O43258   6.383   7.865   8.342
14339WAT     H143259   6.450   7.940   8.348
14339WAT     H243260   6.408   7.804   8.267
14340WAT      O43261   0.629   3.767   7.752
14340WAT     H143262   0.543   3.780   7.703
14340WAT     H243263   0.700   3.740   7.687
14341WAT      O43264   2.731   0.315   8.096
14341WAT     H143265   2.644   0.280   8.131
14341WAT     H243266   2.802   0.303   8.166
14342WAT      O43267   9.627   7.766   1.895
14342WAT     H143268   9.534   7.802   1.883
14342WAT     H243269   9.690   7.843   1.906
14343WAT      O43270   8.276   5.283   1.967
14343WAT     H143271   8.330   5.247   2.043
14343WAT     H243272   8.335   5.334   1.906
14344WAT      O43273   9.746   7.357   7.609
14344WAT     H143274   9.717   7.372   7.515
14344WAT     H243275   9.675   7.390   7.671
14345WAT      O43276   5.103   9.637   9.607
14345WAT     H143277   5.031   9.679   9.662
14345WAT     H243278   5.179   9.611   9.666
14346WAT      O43279   9.207   4.739   5.421
14346WAT     H143280   9.247   4.682   5.493
14346WAT     H243281   9.154   4.813   5.462
14347WAT      O43282   2.662   1.443   3.931
14347WAT     H143283   2.741   1.470   3.875
14347WAT     H243284   2.646   1.512   4.000
14348WAT      O43285   7.434   7.376   3.574
14348WAT     H143286   7.358   7.425   3.616
14348WAT     H243287   7.513   7.378   3.635
14349WAT      O43288   2.153   5.419   4.603
14349WAT     H143289   2.229   5.353   4.598
14349WAT     H243290   2.086   5.387   4.669
14350WAT      O43291   3.217   7.664   6.737
14350WAT     H143292   3.166   7.671   6.652
14350WAT     H243293   3.315   7.656   6.717
14351WAT      O43294   9.357   3.820   3.413
14351WAT     H143295   9.287   3.864   3.358
14351WAT     H243296   9.317   3.742   3.461
14352WAT      O43297   7.663   0.139   4.757
14352WAT     H143298   7.684   0.056   4.705
14352WAT     H243299   7.567   0.163   4.743
14353WAT      O43300   9.233   2.879   7.020
14353WAT     H143301   9.281   2.946   7.075
14353WAT     H243302   9.232   2.791   7.067
14354WAT      O43303   0.172   9.660   0.432
14354WAT     H143304   0.131   9.599   0.500
14354WAT     H243305   0.228   9.729   0.478
14355WAT      O43306   5.765   9.604   7.258
14355WAT     H143307   5.705   9.645   7.326
14355WAT     H243308   5.859   9.635   7.274
14356WAT      O43309   9.037   8.063   8.579
14356WAT     H143310   9.029   8.026   8.487
14356WAT     H243311   9.080   8.154   8.575
14357WAT      O43312   1.220   8.645   7.637
14357WAT     H143313   1.266   8.606   7.716
14357WAT     H243314   1.281   8.710   7.591
14358WAT      O43315   3.374   9.336   8.079
14358WAT     H143316   3.310   9.354   8.004
14358WAT     H243317   3.327   9.345   8.166
14359WAT      O43318   9.111   9.144   8.723
14359WAT     H143319   9.034   9.132   8.660
14359WAT     H243320   9.190   9.093   8.688
14360WAT      O43321   0.107   1.935   1.050
14360WAT     H143322   0.072   1.854   1.003
14360WAT     H243323   0.043   1.962   1.122
14361WAT      O43324   9.892   2.184   4.502
14361WAT     H143325   9.808   2.215   4.546
14361WAT     H243326   9.897   2.220   4.409
14362WAT      O43327   9.447   8.680   8.866
14362WAT     H143328   9.357   8.670   8.823
14362WAT     H243329   9.495   8.592   8.862
14363WAT      O43330   5.570   4.900   4.898
14363WAT     H143331   5.514   4.849   4.964
14363WAT     H243332   5.627   4.836   4.847
14364WAT      O43333   6.216   1.091   8.506
14364WAT     H143334   6.157   1.062   8.430
14364WAT     H243335   6.305   1.047   8.499
14365WAT      O43336   7.310   5.459   7.362
14365WAT     H143337   7.331   5.514   7.281
14365WAT     H243338   7.381   5.390   7.376
14366WAT      O43339   2.396   0.490   5.415
14366WAT     H143340   2.445   0.551   5.477
14366WAT     H243341   2.301   0.482   5.443
14367WAT      O43342   8.814   7.109   2.985
14367WAT     H143343   8.904   7.099   2.944
14367WAT     H243344   8.822   7.134   3.081
14368WAT      O43345   2.878   3.229   2.486
14368WAT     H143346   2.863   3.146   2.540
14368WAT     H243347   2.889   3.307   2.547
14369WAT      O43348   7.222   2.400   5.771
14369WAT     H143349   7.163   2.471   5.734
14369WAT     H243350   7.234   2.414   5.869
14370WAT      O43351   6.928   0.950   1.910
14370WAT     H143352   6.935   0.881   1.982
14370WAT     H243353   6.942   0.906   1.821
14371WAT      O43354   0.451   8.433   0.153
14371WAT     H143355   0.428   8.336   0.164
14371WAT     H243356   0.481   8.449   0.059
14372WAT      O43357   9.818   4.957   9.594
14372WAT     H143358   9.838   4.859   9.595
14372WAT     H243359   9.799   4.986   9.500
14373WAT      O43360   7.388   0.500   5.472
14373WAT     H143361   7.337   0.477   5.389
14373WAT     H243362   7.461   0.565   5.450
14374WAT      O43363   3.751   2.168   3.302
14374WAT     H143364   3.672   2.142   3.246
14374WAT     H243365   3.822   2.099   3.294
14375WAT      O43366   3.606   8.557   1.442
14375WAT     H143367   3.617   8.516   1.352
14375WAT     H243368   3.695   8.588   1.476
14376WAT      O43369   9.808   9.350   3.081
14376WAT     H143370   9.848   9.290   3.150
14376WAT     H243371   9.873   9.422   3.056
14377WAT      O43372   5.223   1.713   7.954
14377WAT     H143373   5.173   1.767   8.022
14377WAT     H243374   5.293   1.771   7.911
14378WAT      O43375   8.596   7.668   6.317
14378WAT     H143376   8.615   7.584   6.267
14378WAT     H243377   8.535   7.649   6.393
14379WAT      O43378   5.656   2.852   6.896
14379WAT     H143379   5.655   2.929   6.960
14379WAT     H243380   5.713   2.875   6.817
14380WAT      O43381   0.935   9.032   5.509
14380WAT     H143382   0.873   9.102   5.474
14380WAT     H243383   1.021   9.073   5.537
14381WAT      O43384   0.374   3.936   6.297
14381WAT     H143385   0.464   3.976   6.278
14381WAT     H243386   0.336   3.899   6.212
14382WAT      O43387   4.489   7.152   3.980
14382WAT     H143388   4.530   7.179   3.893
14382WAT     H243389   4.405   7.204   3.996
14383WAT      O43390   5.965   0.956   1.766
14383WAT     H143391   6.048   1.003   1.736
14383WAT     H243392   5.890   1.022   1.773
14384WAT      O43393   4.657   7.316   0.803
14384WAT     H143394   4.653   7.370   0.719
14384WAT     H243395   4.573   7.262   0.813
14385WAT      O43396   7.079   9.269   5.572
14385WAT     H143397   7.105   9.365   5.564
14385WAT     H243398   7.007   9.248   5.505
14386WAT      O43399   1.356   8.977   0.002
14386WAT     H143400   1.443   8.948   0.042
14386WAT     H243401   1.331   8.915  -0.072
14387WAT      O43402   6.309   5.363   0.901
14387WAT     H143403   6.373   5.326   0.833
14387WAT     H243404   6.252   5.432   0.857
14388WAT      O43405   8.462   6.887   6.080
14388WAT     H143406   8.434   6.805   6.129
14388WAT     H243407   8.520   6.861   6.002
14389WAT      O43408   7.350   2.966   9.298
14389WAT     H143409   7.369   3.059   9.265
14389WAT     H243410   7.436   2.917   9.313
14390WAT      O43411   0.037   1.526   7.163
14390WAT     H143412  -0.018   1.527   7.246
14390WAT     H243413  -0.022   1.517   7.083
14391WAT      O43414   3.029   8.055   5.541
14391WAT     H143415   3.114   8.004   5.553
14391WAT     H243416   2.983   8.023   5.458
14392WAT      O43417   1.808   9.569   0.251
14392WAT     H143418   1.864   9.496   0.212
14392WAT     H243419   1.730   9.528   0.300
14393WAT      O43420   3.102   7.000   2.648
14393WAT     H143421   3.191   7.045   2.659
14393WAT     H243422   3.033   7.048   2.702
14394WAT      O43423   0.303   2.299   6.138
14394WAT     H143424   0.297   2.399   6.140
14394WAT     H243425   0.297   2.267   6.043
14395WAT      O43426   8.052   1.442   1.536
14395WAT     H143427   7.958   1.475   1.528
14395WAT     H243428   8.061   1.355   1.487
14396WAT      O43429   6.771   5.047   1.889
14396WAT     H143430   6.868   5.068   1.902
14396WAT     H243431   6.745   5.068   1.795
14397WAT      O43432   2.925   6.580   1.929
14397WAT     H143433   2.995   6.572   1.858
14397WAT     H243434   2.891   6.674   1.931
14398WAT      O43435   7.772   4.754   5.794
14398WAT     H143436   7.720   4.759   5.709
14398WAT     H243437   7.777   4.844   5.836
14399WAT      O43438   1.589   0.248   1.071
14399WAT     H143439   1.507   0.249   1.128
14399WAT     H243440   1.565   0.214   0.980
14400WAT      O43441   5.026   3.821   6.157
14400WAT     H143442   5.097   3.866   6.103
14400WAT     H243443   5.010   3.873   6.241
14401WAT      O43444   7.226   5.117   0.861
14401WAT     H143445   7.275   5.030   0.850
14401WAT     H243446   7.245   5.154   0.952
14402WAT      O43447   8.588   5.538   3.490
14402WAT     H143448   8.609   5.595   3.569
14402WAT     H243449   8.518   5.583   3.434
14403WAT      O43450   0.554   1.610   8.070
14403WAT     H143451   0.541   1.617   8.169
14403WAT     H243452   0.642   1.566   8.051
14404WAT      O43453   6.101   4.901   9.003
14404WAT     H143454   6.058   4.954   8.929
14404WAT     H243455   6.059   4.810   9.007
14405WAT      O43456   0.045   3.166   6.382
14405WAT     H143457   0.107   3.214   6.445
14405WAT     H243458  -0.007   3.234   6.330
14406WAT      O43459   5.275   8.588   0.739
14406WAT     H143460   5.331   8.509   0.766
14406WAT     H243461   5.201   8.600   0.805
14407WAT      O43462   7.910   4.193   5.235
14407WAT     H143463   7.872   4.218   5.147
14407WAT     H243464   7.955   4.104   5.228
14408WAT      O43465   9.515   3.020   1.877
14408WAT     H143466   9.488   2.934   1.833
14408WAT     H243467   9.554   3.000   1.967
14409WAT      O43468   8.728   6.750   5.445
14409WAT     H143469   8.632   6.740   5.472
14409WAT     H243470   8.733   6.781   5.350
14410WAT      O43471   3.004   2.002   1.031
14410WAT     H143472   3.025   1.966   1.122
14410WAT     H243473   2.922   2.059   1.036
14411WAT      O43474   5.563   0.151   5.620
14411WAT     H143475   5.561   0.249   5.604
14411WAT     H243476   5.649   0.113   5.586
14412WAT      O43477   5.809   3.955   8.733
14412WAT     H143478   5.732   3.973   8.672
14412WAT     H243479   5.885   4.016   8.709
14413WAT      O43480   2.588   7.321   9.197
14413WAT     H143481   2.510   7.326   9.135
14413WAT     H243482   2.623   7.227   9.198
14414WAT      O43483   4.770   6.814   3.899
14414WAT     H143484   4.845   6.879   3.894
14414WAT     H243485   4.761   6.781   3.993
14415WAT      O43486   1.881   9.314   4.560
14415WAT     H143487   1.892   9.405   4.520
14415WAT     H243488   1.814   9.263   4.507
14416WAT      O43489   2.942   4.723   4.990
14416WAT     H143490   2.880   4.681   4.924
14416WAT     H243491   3.036   4.715   4.958
14417WAT      O43492   1.629   6.915   5.833
14417WAT     H143493   1.699   6.849   5.809
14417WAT     H243494   1.643   6.946   5.927
14418WAT      O43495   8.070   4.655   9.787
14418WAT     H143496   8.145   4.706   9.746
14418WAT     H243497   8.104   4.568   9.823
14419WAT      O43498   2.993   3.366   6.098
14419WAT     H143499   2.903   3.323   6.101
14419WAT     H243500   2.987   3.460   6.129
14420WAT      O43501   0.841   5.449   1.972
14420WAT     H143502   0.852   5.355   2.005
14420WAT     H243503   0.925   5.500   1.991
14421WAT      O43504   3.238   9.636   3.532
14421WAT     H143505   3.335   9.629   3.507
14421WAT     H243506   3.188   9.559   3.494
14422WAT      O43507   3.124   9.726   2.617
14422WAT     H143508   3.104   9.785   2.539
14422WAT     H243509   3.209   9.755   2.660
14423WAT      O43510   3.867   5.642   9.546
14423WAT     H143511   3.875   5.687   9.635
14423WAT     H243512   3.782   5.669   9.502
14424WAT      O43513   0.438   1.197   3.082
14424WAT     H143514   0.490   1.124   3.038
14424WAT     H243515   0.351   1.161   3.116
14425WAT      O43516   5.638   7.323   2.289
14425WAT     H143517   5.566   7.261   2.257
14425WAT     H243518   5.616   7.354   2.382
14426WAT      O43519   2.605   9.292   3.503
14426WAT     H143520   2.632   9.386   3.524
14426WAT     H243521   2.687   9.237   3.486
14427WAT      O43522   4.847   9.459   1.994
14427WAT     H143523   4.865   9.366   2.025
14427WAT     H243524   4.931   9.500   1.959
14428WAT      O43525   3.482   0.320   3.483
14428WAT     H143526   3.541   0.244   3.455
14428WAT     H243527   3.441   0.362   3.402
14429WAT      O43528   7.439   1.197   9.181
14429WAT     H143529   7.470   1.128   9.116
14429WAT     H243530   7.519   1.245   9.218
14430WAT      O43531   2.049   3.532   6.705
14430WAT     H143532   2.087   3.551   6.614
14430WAT     H243533   2.110   3.569   6.775
14431WAT      O43534   3.434   4.418   5.808
14431WAT     H143535   3.418   4.403   5.905
14431WAT     H243536   3.527   4.452   5.794
14432WAT      O43537   8.335   1.964   0.354
14432WAT     H143538   8.380   1.911   0.283
14432WAT     H243539   8.394   1.971   0.434
14433WAT      O43540   5.798   3.566   1.205
14433WAT     H143541   5.745   3.595   1.125
14433WAT     H243542   5.759   3.482   1.242
14434WAT      O43543   7.583   7.707   0.174
14434WAT     H143544   7.634   7.631   0.133
14434WAT     H243545   7.646   7.764   0.226
14435WAT      O43546   7.552   7.349   3.973
14435WAT     H143547   7.645   7.384   3.958
14435WAT     H243548   7.527   7.363   4.069
14436WAT      O43549   6.694   5.483   8.060
14436WAT     H143550   6.638   5.450   8.136
14436WAT     H243551   6.790   5.464   8.079
14437WAT      O43552   8.156   2.184   3.956
14437WAT     H143553   8.114   2.117   3.896
14437WAT     H243554   8.091   2.210   4.028
14438WAT      O43555   3.640   6.145   5.817
14438WAT     H143556   3.681   6.233   5.795
14438WAT     H243557   3.625   6.139   5.916
14439WAT      O43558   4.366   4.711   6.431
14439WAT     H143559   4.440   4.661   6.476
14439WAT     H243560   4.279   4.664   6.449
14440WAT      O43561   3.312   7.490   8.976
14440WAT     H143562   3.411   7.488   8.991
14440WAT     H243563   3.293   7.491   8.878
14441WAT      O43564   9.836   7.143   7.996
14441WAT     H143565   9.765   7.197   8.043
14441WAT     H243566   9.821   7.147   7.898
14442WAT      O43567   0.204   5.460   4.275
14442WAT     H143568   0.263   5.462   4.355
14442WAT     H243569   0.163   5.370   4.265
14443WAT      O43570   0.506   6.448   4.935
14443WAT     H143571   0.593   6.473   4.978
14443WAT     H243572   0.487   6.511   4.860
14444WAT      O43573   9.168   0.235   1.055
14444WAT     H143574   9.213   0.186   0.980
14444WAT     H243575   9.216   0.321   1.071
14445WAT      O43576   8.688   1.341   6.615
14445WAT     H143577   8.762   1.403   6.588
14445WAT     H243578   8.717   1.247   6.600
14446WAT      O43579   6.132   0.752   8.609
14446WAT     H143580   6.035   0.770   8.595
14446WAT     H243581   6.179   0.749   8.521
14447WAT      O43582   1.168   7.198   5.432
14447WAT     H143583   1.106   7.206   5.354
14447WAT     H243584   1.261   7.222   5.404
14448WAT      O43585   6.773   5.291   3.723
14448WAT     H143586   6.787   5.195   3.748
14448WAT     H243587   6.854   5.326   3.677
14449WAT      O43588   8.885   4.190   6.012
14449WAT     H143589   8.870   4.203   5.914
14449WAT     H243590   8.803   4.219   6.062
14450WAT      O43591   3.181   0.911   3.971
14450WAT     H143592   3.270   0.894   3.930
14450WAT     H243593   3.185   0.994   4.027
14451WAT      O43594   4.506   2.634   6.100
14451WAT     H143595   4.477   2.551   6.051
14451WAT     H243596   4.428   2.671   6.150
14452WAT      O43597   8.600   8.479   8.112
14452WAT     H143598   8.582   8.408   8.045
14452WAT     H243599   8.522   8.542   8.116
14453WAT      O43600   0.806   6.523   2.127
14453WAT     H143601   0.811   6.614   2.169
14453WAT     H243602   0.850   6.457   2.187
14454WAT      O43603   2.508   8.651   2.037
14454WAT     H143604   2.454   8.718   1.985
14454WAT     H243605   2.447   8.595   2.092
14455WAT      O43606   4.007   0.674   3.166
14455WAT     H143607   3.942   0.645   3.237
14455WAT     H243608   4.099   0.678   3.205
14456WAT      O43609   3.856   9.684   5.277
14456WAT     H143610   3.778   9.716   5.223
14456WAT     H243611   3.909   9.618   5.224
14457WAT      O43612   1.435   8.605   5.004
14457WAT     H143613   1.531   8.626   5.018
14457WAT     H243614   1.390   8.591   5.092
14458WAT      O43615   0.195   4.744   4.252
14458WAT     H143616   0.178   4.662   4.197
14458WAT     H243617   0.291   4.771   4.243
14459WAT      O43618   2.478   7.848   7.797
14459WAT     H143619   2.533   7.812   7.722
14459WAT     H243620   2.430   7.773   7.842
14460WAT      O43621   5.956   2.833   9.257
14460WAT     H143622   5.894   2.763   9.292
14460WAT     H243623   5.923   2.866   9.168
14461WAT      O43624   8.735   0.225   3.278
14461WAT     H143625   8.819   0.276   3.296
14461WAT     H243626   8.684   0.270   3.204
14462WAT      O43627   8.583   1.492   0.926
14462WAT     H143628   8.539   1.474   0.838
14462WAT     H243629   8.551   1.579   0.962
14463WAT      O43630   8.199   9.407   4.080
14463WAT     H143631   8.149   9.322   4.065
14463WAT     H243632   8.277   9.390   4.139
14464WAT      O43633   4.730   7.629   2.645
14464WAT     H143634   4.745   7.539   2.685
14464WAT     H243635   4.632   7.649   2.642
14465WAT      O43636   3.213   8.479   7.938
14465WAT     H143637   3.243   8.390   7.904
14465WAT     H243638   3.242   8.490   8.033
14466WAT      O43639   3.633   4.369   2.629
14466WAT     H143640   3.662   4.278   2.658
14466WAT     H243641   3.538   4.365   2.599
14467WAT      O43642   6.756   6.104   9.020
14467WAT     H143643   6.739   6.005   9.020
14467WAT     H243644   6.818   6.127   9.096
14468WAT      O43645   5.581   6.242   0.228
14468WAT     H143646   5.527   6.236   0.144
14468WAT     H243647   5.524   6.214   0.306
14469WAT      O43648   5.437   4.354   7.359
14469WAT     H143649   5.481   4.273   7.397
14469WAT     H243650   5.338   4.339   7.354
14470WAT      O43651   3.755   1.688   6.895
14470WAT     H143652   3.663   1.714   6.866
14470WAT     H243653   3.819   1.762   6.874
14471WAT      O43654   1.263   7.838   7.846
14471WAT     H143655   1.213   7.854   7.932
14471WAT     H243656   1.213   7.880   7.770
14472WAT      O43657   8.367   8.727   6.691
14472WAT     H143658   8.319   8.815   6.694
14472WAT     H243659   8.444   8.730   6.755
14473WAT      O43660   2.722   3.522   9.139
14473WAT     H143661   2.692   3.551   9.230
14473WAT     H243662   2.646   3.478   9.092
14474WAT      O43663   3.415   7.336   6.080
14474WAT     H143664   3.407   7.334   5.980
14474WAT     H243665   3.499   7.384   6.106
14475WAT      O43666   4.165   0.095   4.407
14475WAT     H143667   4.141   0.185   4.444
14475WAT     H243668   4.254   0.100   4.361
14476WAT      O43669   1.871   7.447   1.737
14476WAT     H143670   1.928   7.386   1.792
14476WAT     H243671   1.914   7.462   1.648
14477WAT      O43672   8.483   3.511   1.648
14477WAT     H143673   8.494   3.607   1.674
14477WAT     H243674   8.511   3.500   1.552
14478WAT      O43675   5.496   7.902   3.825
14478WAT     H143676   5.500   7.853   3.912
14478WAT     H243677   5.400   7.919   3.801
14479WAT      O43678   6.434   7.907   4.060
14479WAT     H143679   6.424   7.826   4.118
14479WAT     H243680   6.346   7.954   4.053
14480WAT      O43681   7.829   9.709   2.582
14480WAT     H143682   7.918   9.678   2.615
14480WAT     H243683   7.757   9.652   2.621
14481WAT      O43684   1.785   8.625   0.562
14481WAT     H143685   1.712   8.645   0.626
14481WAT     H243686   1.749   8.628   0.468
14482WAT      O43687   5.479   2.277   7.194
14482WAT     H143688   5.403   2.217   7.219
14482WAT     H243689   5.552   2.268   7.262
14483WAT      O43690   4.197   2.276   5.514
14483WAT     H143691   4.128   2.322   5.571
14483WAT     H243692   4.244   2.207   5.569
14484WAT      O43693   3.276   7.002   4.648
14484WAT     H143694   3.203   6.946   4.688
14484WAT     H243695   3.363   6.980   4.693
14485WAT      O43696   7.625   5.746   1.014
14485WAT     H143697   7.651   5.726   1.108
14485WAT     H243698   7.685   5.817   0.977
14486WAT      O43699   0.197   1.309   4.927
14486WAT     H143700   0.190   1.280   5.023
14486WAT     H243701   0.119   1.366   4.904
14487WAT      O43702   9.728   0.661   2.586
14487WAT     H143703   9.680   0.577   2.560
14487WAT     H243704   9.682   0.703   2.665
14488WAT      O43705   7.121   4.786   7.794
14488WAT     H143706   7.123   4.731   7.878
14488WAT     H243707   7.026   4.808   7.772
14489WAT      O43708   6.324   3.559   0.528
14489WAT     H143709   6.334   3.657   0.549
14489WAT     H243710   6.410   3.525   0.489
14490WAT      O43711   8.046   4.544   5.609
14490WAT     H143712   8.087   4.453   5.599
14490WAT     H243713   7.948   4.538   5.590
14491WAT      O43714   4.830   8.836   4.216
14491WAT     H143715   4.904   8.900   4.195
14491WAT     H243716   4.763   8.881   4.275
14492WAT      O43717   6.539   6.728   6.455
14492WAT     H143718   6.584   6.813   6.426
14492WAT     H243719   6.600   6.679   6.518
14493WAT      O43720   8.107   2.950   3.797
14493WAT     H143721   8.045   2.932   3.873
14493WAT     H243722   8.057   2.991   3.721
14494WAT      O43723   8.122   8.510   9.042
14494WAT     H143724   8.063   8.430   9.058
14494WAT     H243725   8.210   8.495   9.086
14495WAT      O43726   5.675   5.009   0.336
14495WAT     H143727   5.611   4.967   0.272
14495WAT     H243728   5.712   4.939   0.397
14496WAT      O43729   9.431   1.033   1.250
14496WAT     H143730   9.437   0.942   1.291
14496WAT     H243731   9.369   1.030   1.172
14497WAT      O43732   7.088   8.453   9.402
14497WAT     H143733   7.090   8.362   9.445
14497WAT     H243734   7.082   8.443   9.303
14498WAT      O43735   6.751   6.787   1.822
14498WAT     H143736   6.821   6.775   1.892
14498WAT     H243737   6.721   6.883   1.821
14499WAT      O43738   7.278   4.866   8.456
14499WAT     H143739   7.293   4.891   8.552
14499WAT     H243740   7.219   4.935   8.413
14500WAT      O43741   5.191   4.565   2.859
14500WAT     H143742   5.123   4.523   2.798
14500WAT     H243743   5.163   4.659   2.880
14501WAT      O43744   1.977   6.425   7.104
14501WAT     H143745   1.915   6.349   7.083
14501WAT     H243746   1.927   6.496   7.154
14502WAT      O43747   6.213   6.996   6.051
14502WAT     H143748   6.164   6.969   6.134
14502WAT     H243749   6.232   6.916   5.995
14503WAT      O43750   4.627   3.137   2.755
14503WAT     H143751   4.582   3.127   2.844
14503WAT     H243752   4.574   3.090   2.685
14504WAT      O43753   6.171   8.454   9.483
14504WAT     H143754   6.136   8.523   9.420
14504WAT     H243755   6.096   8.393   9.511
14505WAT      O43756   7.255   7.505   8.271
14505WAT     H143757   7.254   7.416   8.225
14505WAT     H243758   7.166   7.520   8.314
14506WAT      O43759   2.915   0.050   1.059
14506WAT     H143760   2.967   0.035   1.143
14506WAT     H243761   2.945   0.135   1.016
14507WAT      O43762   4.266   9.408   2.239
14507WAT     H143763   4.302   9.499   2.257
14507WAT     H243764   4.256   9.394   2.141
14508WAT      O43765   8.981   8.417   8.528
14508WAT     H143766   8.889   8.456   8.526
14508WAT     H243767   8.991   8.353   8.452
14509WAT      O43768   9.874   6.668   1.994
14509WAT     H143769   9.915   6.729   2.063
14509WAT     H243770   9.777   6.655   2.015
14510WAT      O43771   7.438   6.706   6.723
14510WAT     H143772   7.509   6.654   6.676
14510WAT     H243773   7.395   6.769   6.658
14511WAT      O43774   8.327   9.094   3.697
14511WAT     H143775   8.287   9.182   3.673
14511WAT     H243776   8.398   9.107   3.766
14512WAT      O43777   0.663   8.399   9.206
14512WAT     H143778   0.583   8.343   9.226
14512WAT     H243779   0.745   8.342   9.213
14513WAT      O43780   4.230   8.637   0.165
14513WAT     H143781   4.203   8.733   0.172
14513WAT     H243782   4.330   8.630   0.166
14514WAT      O43783   4.306   0.060   9.825
14514WAT     H143784   4.208   0.071   9.807
14514WAT     H243785   4.343  -0.013   9.767
14515WAT      O43786   8.089   5.887   4.239
14515WAT     H143787   8.056   5.979   4.261
14515WAT     H243788   8.064   5.824   4.313
14516WAT      O43789   2.250   8.114   2.146
14516WAT     H143790   2.165   8.078   2.184
14516WAT     H243791   2.262   8.081   2.052
14517WAT      O43792   5.028   2.345   7.839
14517WAT     H143793   5.029   2.263   7.896
14517WAT     H243794   5.000   2.423   7.894
14518WAT      O43795   6.005   5.693   5.600
14518WAT     H143796   6.004   5.607   5.651
14518WAT     H243797   6.041   5.677   5.508
14519WAT      O43798   6.589   1.272   7.152
14519WAT     H143799   6.496   1.239   7.134
14519WAT     H243800   6.588   1.330   7.234
14520WAT      O43801   3.237   2.555   2.751
14520WAT     H143802   3.271   2.571   2.843
14520WAT     H243803   3.141   2.525   2.755
14521WAT      O43804   3.543   9.746   2.019
14521WAT     H143805   3.615   9.800   1.975
14521WAT     H243806   3.479   9.712   1.951
14522WAT      O43807   8.056   9.734   0.324
14522WAT     H143808   7.992   9.699   0.392
14522WAT     H243809   8.019   9.818   0.284
14523WAT      O43810   9.525   4.170   6.999
14523WAT     H143811   9.524   4.192   7.097
14523WAT     H243812   9.431   4.174   6.963
14524WAT      O43813   4.244   1.050   5.830
14524WAT     H143814   4.160   1.023   5.875
14524WAT     H243815   4.264   1.146   5.849
14525WAT      O43816   8.503   9.435   6.895
14525WAT     H143817   8.542   9.488   6.970
14525WAT     H243818   8.576   9.394   6.841
14526WAT      O43819   7.183   5.321   7.829
14526WAT     H143820   7.208   5.379   7.752
14526WAT     H243821   7.132   5.241   7.797
14527WAT      O43822   2.173   3.947   8.841
14527WAT     H143823   2.234   4.019   8.874
14527WAT     H243824   2.147   3.888   8.918
14528WAT      O43825   0.201   5.427   8.488
14528WAT     H143826   0.162   5.501   8.543
14528WAT     H243827   0.194   5.451   8.391
14529WAT      O43828   8.627   3.817   7.457
14529WAT     H143829   8.611   3.792   7.361
14529WAT     H243830   8.677   3.903   7.461
14530WAT      O43831   4.437   9.274   7.534
14530WAT     H143832   4.528   9.249   7.567
14530WAT     H243833   4.422   9.372   7.548
14531WAT      O43834   3.224   3.227   2.603
14531WAT     H143835   3.205   3.306   2.545
14531WAT     H243836   3.182   3.145   2.565
14532WAT      O43837   8.514   0.379   2.472
14532WAT     H143838   8.558   0.295   2.439
14532WAT     H243839   8.485   0.366   2.567
14533WAT      O43840   8.240   6.380   8.287
14533WAT     H143841   8.301   6.318   8.338
14533WAT     H243842   8.219   6.340   8.198
14534WAT      O43843   0.408   1.635   4.759
14534WAT     H143844   0.459   1.687   4.827
14534WAT     H243845   0.456   1.637   4.672
14535WAT      O43846   6.449   7.031   3.573
14535WAT     H143847   6.379   6.965   3.545
14535WAT     H243848   6.487   7.003   3.662
14536WAT      O43849   8.509   3.303   6.865
14536WAT     H143850   8.602   3.328   6.836
14536WAT     H243851   8.454   3.283   6.784
14537WAT      O43852   2.251   6.502   1.701
14537WAT     H143853   2.229   6.499   1.604
14537WAT     H243854   2.226   6.415   1.744
14538WAT      O43855   4.040   5.188   1.844
14538WAT     H143856   4.130   5.161   1.809
14538WAT     H243857   4.000   5.113   1.895
14539WAT      O43858   3.154   1.476   3.165
14539WAT     H143859   3.214   1.503   3.240
14539WAT     H243860   3.164   1.540   3.089
14540WAT      O43861   9.476   3.855   7.214
14540WAT     H143862   9.499   3.795   7.291
14540WAT     H243863   9.557   3.905   7.185
14541WAT      O43864   5.083   0.188   0.288
14541WAT     H143865   5.127   0.101   0.266
14541WAT     H243866   5.139   0.264   0.256
14542WAT      O43867   4.532   2.669   6.792
14542WAT     H143868   4.548   2.719   6.877
14542WAT     H243869   4.559   2.725   6.714
14543WAT      O43870   0.103   2.879   8.697
14543WAT     H143871   0.070   2.815   8.628
14543WAT     H243872   0.085   2.843   8.788
14544WAT      O43873   9.161   4.563   4.978
14544WAT     H143874   9.128   4.656   4.992
14544WAT     H243875   9.251   4.553   5.021
14545WAT      O43876   2.632   6.201   7.835
14545WAT     H143877   2.705   6.138   7.810
14545WAT     H243878   2.661   6.295   7.819
14546WAT      O43879   5.741   4.004   7.108
14546WAT     H143880   5.759   3.929   7.044
14546WAT     H243881   5.767   3.976   7.200
14547WAT      O43882   2.524   1.396   8.739
14547WAT     H143883   2.589   1.326   8.711
14547WAT     H243884   2.567   1.486   8.736
14548WAT      O43885   5.340   7.862   6.038
14548WAT     H143886   5.321   7.776   5.989
14548WAT     H243887   5.258   7.889   6.089
14549WAT      O43888   3.105   6.004   4.946
14549WAT     H143889   3.047   6.084   4.958
14549WAT     H243890   3.053   5.922   4.971
14550WAT      O43891   2.222   5.694   7.644
14550WAT     H143892   2.249   5.614   7.697
14550WAT     H243893   2.245   5.679   7.548
14551WAT      O43894   4.171   3.389   4.753
14551WAT     H143895   4.261   3.432   4.753
14551WAT     H243896   4.112   3.436   4.819
14552WAT      O43897   5.104   6.366   2.328
14552WAT     H143898   5.042   6.440   2.300
14552WAT     H243899   5.063   6.314   2.402
14553WAT      O43900   8.573   1.744   5.944
14553WAT     H143901   8.576   1.658   5.894
14553WAT     H243902   8.529   1.730   6.032
14554WAT      O43903   4.162   1.864   7.953
14554WAT     H143904   4.163   1.928   8.030
14554WAT     H243905   4.105   1.784   7.977
14555WAT      O43906   9.868   8.990   0.241
14555WAT     H143907   9.808   8.922   0.201
14555WAT     H243908   9.841   9.082   0.210
14556WAT      O43909   1.613   7.400   8.577
14556WAT     H143910   1.632   7.452   8.493
14556WAT     H243911   1.580   7.463   8.647
14557WAT      O43912   6.806   2.395   5.882
14557WAT     H143913   6.795   2.376   5.784
14557WAT     H243914   6.903   2.384   5.907
14558WAT      O43915   2.530   0.699   7.363
14558WAT     H143916   2.560   0.644   7.285
14558WAT     H243917   2.610   0.736   7.410
14559WAT      O43918   9.024   5.091   1.336
14559WAT     H143919   9.074   5.076   1.421
14559WAT     H243920   9.083   5.067   1.258
14560WAT      O43921   6.080   1.943   9.416
14560WAT     H143922   6.084   1.942   9.316
14560WAT     H243923   6.118   2.029   9.450
14561WAT      O43924   1.317   0.354   2.760
14561WAT     H143925   1.228   0.399   2.751
14561WAT     H243926   1.373   0.374   2.680
14562WAT      O43927   3.612   5.677   9.824
14562WAT     H143928   3.587   5.732   9.744
14562WAT     H243929   3.648   5.589   9.795
14563WAT      O43930   8.517   5.009   3.230
14563WAT     H143931   8.533   5.005   3.131
14563WAT     H243932   8.422   4.982   3.249
14564WAT      O43933   1.488   3.730   8.792
14564WAT     H143934   1.576   3.759   8.755
14564WAT     H243935   1.465   3.640   8.756
14565WAT      O43936   9.842   8.587   2.147
14565WAT     H143937   9.830   8.668   2.204
14565WAT     H243938   9.823   8.505   2.202
14566WAT      O43939   5.678   8.768   7.722
14566WAT     H143940   5.627   8.767   7.808
14566WAT     H243941   5.684   8.675   7.686
14567WAT      O43942   8.101   7.105   1.455
14567WAT     H143943   8.190   7.063   1.440
14567WAT     H243944   8.062   7.132   1.367
14568WAT      O43945   5.971   5.735   6.009
14568WAT     H143946   5.999   5.770   6.099
14568WAT     H243947   6.017   5.787   5.937
14569WAT      O43948   0.986   4.952   0.162
14569WAT     H143949   0.975   4.950   0.063
14569WAT     H243950   0.908   4.998   0.204
14570WAT      O43951   0.155   8.590   4.719
14570WAT     H143952   0.218   8.652   4.765
14570WAT     H243953   0.191   8.497   4.722
14571WAT      O43954   3.406   0.854   9.690
14571WAT     H143955   3.316   0.817   9.714
14571WAT     H243956   3.394   0.936   9.634
14572WAT      O43957   7.324   8.728   2.508
14572WAT     H143958   7.287   8.801   2.450
14572WAT     H243959   7.337   8.645   2.453
14573WAT      O43960   8.113   2.519   3.788
14573WAT     H143961   8.067   2.432   3.768
14573WAT     H243962   8.129   2.569   3.703
14574WAT      O43963   5.371   3.736   1.980
14574WAT     H143964   5.408   3.760   2.070
14574WAT     H243965   5.356   3.820   1.927
14575WAT      O43966   5.327   2.145   4.822
14575WAT     H143967   5.314   2.065   4.764
14575WAT     H243968   5.423   2.150   4.850
14576WAT      O43969   6.948   4.277   7.115
14576WAT     H143970   6.910   4.187   7.136
14576WAT     H243971   6.894   4.347   7.161
14577WAT      O43972   5.755   4.559   0.470
14577WAT     H143973   5.705   4.495   0.412
14577WAT     H243974   5.848   4.525   0.485
14578WAT      O43975   6.457   0.707   4.345
14578WAT     H143976   6.469   0.608   4.340
14578WAT     H243977   6.401   0.738   4.268
14579WAT      O43978   9.352   1.717   4.075
14579WAT     H143979   9.350   1.713   3.976
14579WAT     H243980   9.346   1.624   4.113
14580WAT      O43981   1.776   8.721   8.110
14580WAT     H143982   1.845   8.742   8.041
14580WAT     H243983   1.774   8.623   8.127
14581WAT      O43984   8.197   9.082   7.926
14581WAT     H143985   8.221   8.985   7.922
14581WAT     H243986   8.259   9.134   7.866
14582WAT      O43987   5.814   5.406   6.223
14582WAT     H143988   5.770   5.326   6.182
14582WAT     H243989   5.765   5.433   6.306
14583WAT      O43990   2.511   1.888   8.206
14583WAT     H143991   2.559   1.874   8.293
14583WAT     H243992   2.424   1.935   8.224
14584WAT      O43993   1.133   8.664   2.679
14584WAT     H143994   1.094   8.747   2.639
14584WAT     H243995   1.120   8.666   2.778
14585WAT      O43996   1.166   3.275   7.463
14585WAT     H143997   1.109   3.333   7.521
14585WAT     H243998   1.237   3.331   7.419
14586WAT      O43999   3.498   8.505   2.318
14586WAT     H144000   3.519   8.457   2.233
14586WAT     H244001   3.467   8.440   2.387
14587WAT      O44002   6.634   6.056   4.670
14587WAT     H144003   6.572   6.133   4.657
14587WAT     H244004   6.654   6.046   4.767
14588WAT      O44005   4.186   3.201   2.041
14588WAT     H144006   4.133   3.219   1.958
14588WAT     H244007   4.261   3.139   2.019
14589WAT      O44008   3.392   1.921   6.271
14589WAT     H144009   3.357   1.969   6.351
14589WAT     H244010   3.420   1.828   6.296
14590WAT      O44011   6.048   1.896   7.422
14590WAT     H144012   6.096   1.979   7.447
14590WAT     H244013   6.093   1.817   7.463
14591WAT      O44014   1.438   2.758   6.460
14591WAT     H144015   1.472   2.716   6.544
14591WAT     H244016   1.411   2.852   6.479
14592WAT      O44017   0.315   5.248   7.780
14592WAT     H144018   0.377   5.170   7.791
14592WAT     H244019   0.327   5.311   7.856
14593WAT      O44020   6.262   2.202   4.568
14593WAT     H144021   6.303   2.261   4.498
14593WAT     H244022   6.190   2.146   4.527
14594WAT      O44023   4.776   5.179   7.394
14594WAT     H144024   4.757   5.277   7.395
14594WAT     H244025   4.875   5.164   7.392
14595WAT      O44026   2.069   5.768   1.064
14595WAT     H144027   2.094   5.727   1.152
14595WAT     H244028   2.133   5.842   1.042
14596WAT      O44029   6.587   7.647   5.395
14596WAT     H144030   6.490   7.623   5.384
14596WAT     H244031   6.612   7.717   5.328
14597WAT      O44032   8.556   0.771   5.023
14597WAT     H144033   8.595   0.757   4.932
14597WAT     H244034   8.595   0.703   5.086
14598WAT      O44035   1.904   8.736   6.721
14598WAT     H144036   1.945   8.645   6.725
14598WAT     H244037   1.822   8.734   6.664
14599WAT      O44038   1.669   1.720   4.928
14599WAT     H144039   1.737   1.748   4.860
14599WAT     H244040   1.578   1.720   4.886
14600WAT      O44041   4.778   2.785   2.787
14600WAT     H144042   4.854   2.846   2.811
14600WAT     H244043   4.698   2.808   2.844
14601WAT      O44044   2.898   2.349   6.558
14601WAT     H144045   2.838   2.370   6.636
14601WAT     H244046   2.990   2.332   6.591
14602WAT      O44047   2.852   5.055   8.699
14602WAT     H144048   2.920   5.110   8.651
14602WAT     H244049   2.796   5.116   8.756
14603WAT      O44050   4.542   5.871   2.202
14603WAT     H144051   4.466   5.813   2.231
14603WAT     H244052   4.598   5.895   2.281
14604WAT      O44053   6.824   9.233   5.114
14604WAT     H144054   6.792   9.247   5.020
14604WAT     H244055   6.877   9.148   5.118
14605WAT      O44056   2.963   3.408   8.631
14605WAT     H144057   2.966   3.477   8.558
14605WAT     H244058   3.055   3.397   8.669
14606WAT      O44059   1.000   3.498   4.622
14606WAT     H144060   1.069   3.501   4.549
14606WAT     H244061   0.985   3.403   4.649
14607WAT      O44062   9.435   7.592   2.978
14607WAT     H144063   9.500   7.516   2.966
14607WAT     H244064   9.373   7.595   2.899
14608WAT      O44065   4.959   3.366   5.834
14608WAT     H144066   4.934   3.279   5.876
14608WAT     H244067   4.960   3.355   5.734
14609WAT      O44068   8.757   8.223   0.093
14609WAT     H144069   8.693   8.167   0.146
14609WAT     H244070   8.716   8.245   0.004
14610WAT      O44071   7.961   6.931   5.595
14610WAT     H144072   8.040   6.870   5.594
14610WAT     H244073   7.917   6.929   5.505
14611WAT      O44074   4.098   1.732   3.835
14611WAT     H144075   4.120   1.736   3.932
14611WAT     H244076   4.010   1.777   3.819
14612WAT      O44077   0.525   4.711   5.787
14612WAT     H144078   0.534   4.634   5.725
14612WAT     H244079   0.501   4.793   5.735
14613WAT      O44080   4.067   4.487   0.084
14613WAT     H144081   4.081   4.572   0.033
14613WAT     H244082   4.057   4.509   0.182
14614WAT      O44083   7.334   7.535   2.547
14614WAT     H144084   7.272   7.464   2.582
14614WAT     H244085   7.307   7.559   2.454
14615WAT      O44086   4.690   7.923   0.281
14615WAT     H144087   4.625   7.993   0.311
14615WAT     H244088   4.723   7.872   0.361
14616WAT      O44089   7.758   1.629   5.856
14616WAT     H144090   7.746   1.686   5.775
14616WAT     H244091   7.848   1.585   5.853
14617WAT      O44092   6.350   6.629   7.798
14617WAT     H144093   6.357   6.728   7.786
14617WAT     H244094   6.429   6.585   7.754
14618WAT      O44095   8.559   1.959   2.391
14618WAT     H144096   8.525   2.053   2.403
14618WAT     H244097   8.588   1.945   2.297
14619WAT      O44098   1.669   9.162   6.627
14619WAT     H144099   1.672   9.252   6.670
14619WAT     H244100   1.759   9.139   6.591
14620WAT      O44101   6.186   8.852   0.796
14620WAT     H144102   6.234   8.935   0.766
14620WAT     H244103   6.239   8.807   0.868
14621WAT      O44104   7.789   1.709   1.426
14621WAT     H144105   7.840   1.793   1.411
14621WAT     H244106   7.814   1.642   1.355
14622WAT      O44107   9.755   4.129   6.049
14622WAT     H144108   9.761   4.046   6.104
14622WAT     H244109   9.843   4.177   6.051
14623WAT      O44110   8.986   0.414   4.431
14623WAT     H144111   9.016   0.434   4.338
14623WAT     H244112   8.997   0.317   4.450
14624WAT      O44113   2.659   1.469   9.783
14624WAT     H144114   2.578   1.524   9.762
14624WAT     H244115   2.709   1.450   9.698
14625WAT      O44116   7.435   6.049   9.823
14625WAT     H144117   7.519   5.998   9.841
14625WAT     H244118   7.356   5.989   9.836
14626WAT      O44119   2.218   0.085   3.368
14626WAT     H144120   2.202   0.001   3.420
14626WAT     H244121   2.266   0.150   3.426
14627WAT      O44122   3.217   1.901   0.596
14627WAT     H144123   3.298   1.950   0.565
14627WAT     H244124   3.224   1.883   0.694
14628WAT      O44125   9.512   5.165   3.538
14628WAT     H144126   9.553   5.074   3.538
14628WAT     H244127   9.558   5.223   3.605
14629WAT      O44128   5.061   4.828   3.016
14629WAT     H144129   5.098   4.806   3.106
14629WAT     H244130   5.049   4.927   3.009
14630WAT      O44131   9.657   1.350   1.998
14630WAT     H144132   9.598   1.403   2.060
14630WAT     H244133   9.600   1.293   1.939
14631WAT      O44134   7.397   4.579   3.540
14631WAT     H144135   7.387   4.515   3.616
14631WAT     H244136   7.494   4.585   3.515
14632WAT      O44137   2.856   4.271   7.940
14632WAT     H144138   2.777   4.332   7.940
14632WAT     H244139   2.846   4.202   8.011
14633WAT      O44140   2.218   1.136   9.060
14633WAT     H144141   2.254   1.163   8.971
14633WAT     H244142   2.259   1.193   9.131
14634WAT      O44143   3.481   4.010   4.033
14634WAT     H144144   3.400   3.964   3.997
14634WAT     H244145   3.501   3.976   4.125
14635WAT      O44146   4.862   8.862   0.347
14635WAT     H144147   4.774   8.905   0.366
14635WAT     H244148   4.927   8.885   0.419
14636WAT      O44149   4.438   2.965   1.492
14636WAT     H144150   4.423   2.902   1.569
14636WAT     H244151   4.351   2.981   1.445
14637WAT      O44152   6.985   8.771   1.431
14637WAT     H144153   7.062   8.721   1.391
14637WAT     H244154   6.972   8.858   1.382
14638WAT      O44155   2.013   9.219   8.625
14638WAT     H144156   1.970   9.133   8.653
14638WAT     H244157   2.023   9.221   8.526
14639WAT      O44158   3.319   6.013   9.367
14639WAT     H144159   3.309   5.916   9.342
14639WAT     H244160   3.229   6.057   9.366
14640WAT      O44161   5.203   9.511   2.775
14640WAT     H144162   5.252   9.575   2.834
14640WAT     H244163   5.116   9.552   2.746
14641WAT      O44164   6.438   3.274   3.970
14641WAT     H144165   6.486   3.190   3.943
14641WAT     H244166   6.383   3.255   4.052
14642WAT      O44167   4.357   5.537   2.078
14642WAT     H144168   4.367   5.438   2.083
14642WAT     H244169   4.352   5.574   2.171
14643WAT      O44170   1.753   3.154   5.103
14643WAT     H144171   1.839   3.143   5.153
14643WAT     H244172   1.697   3.073   5.115
14644WAT      O44173   7.425   6.983   4.337
14644WAT     H144174   7.442   6.933   4.422
14644WAT     H244175   7.327   6.983   4.317
14645WAT      O44176   7.625   0.394   6.761
14645WAT     H144177   7.567   0.468   6.727
14645WAT     H244178   7.621   0.317   6.697
14646WAT      O44179   6.378   0.621   6.419
14646WAT     H144180   6.361   0.591   6.326
14646WAT     H244181   6.458   0.573   6.456
14647WAT      O44182   0.242   0.202   8.120
14647WAT     H144183   0.183   0.281   8.137
14647WAT     H244184   0.336   0.232   8.107
14648WAT      O44185   8.619   0.652   2.144
14648WAT     H144186   8.551   0.691   2.082
14648WAT     H244187   8.711   0.675   2.111
14649WAT      O44188   5.292   3.369   7.025
14649WAT     H144189   5.198   3.371   7.059
14649WAT     H244190   5.345   3.302   7.077
14650WAT      O44191   2.463   7.534   3.665
14650WAT     H144192   2.403   7.614   3.670
14650WAT     H244193   2.558   7.564   3.662
14651WAT      O44194   2.625   4.901   4.850
14651WAT     H144195   2.617   4.951   4.937
14651WAT     H244196   2.717   4.913   4.813
14652WAT      O44197   0.662   8.969   6.044
14652WAT     H144198   0.693   9.019   6.125
14652WAT     H244199   0.725   8.985   5.968
14653WAT      O44200   6.033   4.834   4.231
14653WAT     H144201   6.097   4.794   4.166
14653WAT     H244202   5.939   4.824   4.197
14654WAT      O44203   1.749   1.563   9.433
14654WAT     H144204   1.667   1.510   9.416
14654WAT     H244205   1.820   1.537   9.367
14655WAT      O44206   0.301   8.960   8.622
14655WAT     H144207   0.326   8.865   8.641
14655WAT     H244208   0.374   9.004   8.569
14656WAT      O44209   9.518   7.263   4.784
14656WAT     H144210   9.512   7.363   4.777
14656WAT     H244211   9.479   7.222   4.702
14657WAT      O44212   0.385   0.126   6.565
14657WAT     H144213   0.345   0.101   6.477
14657WAT     H244214   0.318   0.178   6.618
14658WAT      O44215   5.062   8.047   7.928
14658WAT     H144216   5.104   8.061   7.838
14658WAT     H244217   4.984   8.109   7.939
14659WAT      O44218   5.889   2.190   0.680
14659WAT     H144219   5.981   2.225   0.663
14659WAT     H244220   5.822   2.247   0.632
14660WAT      O44221   6.897   0.441   6.116
14660WAT     H144222   6.854   0.526   6.086
14660WAT     H244223   6.881   0.428   6.214
14661WAT      O44224   3.654   3.782   5.782
14661WAT     H144225   3.663   3.854   5.852
14661WAT     H244226   3.595   3.709   5.817
14662WAT      O44227   4.704   3.751   5.275
14662WAT     H144228   4.711   3.831   5.336
14662WAT     H244229   4.682   3.670   5.329
14663WAT      O44230   6.565   7.535   0.206
14663WAT     H144231   6.493   7.509   0.142
14663WAT     H244232   6.542   7.504   0.298
14664WAT      O44233   1.182   2.938   1.844
14664WAT     H144234   1.240   2.924   1.764
14664WAT     H244235   1.177   2.854   1.897
14665WAT      O44236   8.401   8.818   2.824
14665WAT     H144237   8.484   8.786   2.871
14665WAT     H244238   8.364   8.744   2.767
14666WAT      O44239   6.489   9.831   3.877
14666WAT     H144240   6.577   9.834   3.925
14666WAT     H244241   6.468   9.736   3.853
14667WAT      O44242   7.985   9.721   8.575
14667WAT     H144243   8.047   9.720   8.653
14667WAT     H244244   7.893   9.746   8.606
14668WAT      O44245   2.425   4.676   1.623
14668WAT     H144246   2.457   4.615   1.696
14668WAT     H244247   2.499   4.737   1.595
14669WAT      O44248   3.636   9.645   2.468
14669WAT     H144249   3.583   9.560   2.475
14669WAT     H244250   3.610   9.707   2.542
14670WAT      O44251   0.970   3.792   5.370
14670WAT     H144252   1.057   3.792   5.418
14670WAT     H244253   0.922   3.706   5.387
14671WAT      O44254   7.383   1.222   9.519
14671WAT     H144255   7.317   1.147   9.528
14671WAT     H244256   7.401   1.262   9.609
14672WAT      O44257   5.380   1.572   6.582
14672WAT     H144258   5.386   1.672   6.580
14672WAT     H244259   5.369   1.538   6.488
14673WAT      O44260   1.336   3.148   2.460
14673WAT     H144261   1.367   3.057   2.431
14673WAT     H244262   1.301   3.143   2.553
14674WAT      O44263   0.461   5.523   8.604
14674WAT     H144264   0.478   5.621   8.594
14674WAT     H244265   0.424   5.487   8.519
14675WAT      O44266   4.745   4.696   5.672
14675WAT     H144267   4.653   4.665   5.697
14675WAT     H244268   4.790   4.627   5.615
14676WAT      O44269   8.985   7.054   0.758
14676WAT     H144270   8.939   7.020   0.676
14676WAT     H244271   9.068   7.104   0.732
14677WAT      O44272   5.472   9.502   7.007
14677WAT     H144273   5.494   9.599   7.020
14677WAT     H244274   5.375   9.487   7.029
14678WAT      O44275   9.658   4.982   4.433
14678WAT     H144276   9.650   5.039   4.516
14678WAT     H244277   9.631   5.036   4.353
14679WAT      O44278   6.647   5.047   3.414
14679WAT     H144279   6.627   4.959   3.371
14679WAT     H244280   6.561   5.097   3.427
14680WAT      O44281   0.230   6.058   4.814
14680WAT     H144282   0.263   6.148   4.841
14680WAT     H244283   0.157   6.029   4.875
14681WAT      O44284   8.742   4.848   0.913
14681WAT     H144285   8.672   4.897   0.965
14681WAT     H244286   8.732   4.750   0.929
14682WAT      O44287   2.919   9.368   4.916
14682WAT     H144288   2.855   9.410   4.981
14682WAT     H244289   2.954   9.282   4.954
14683WAT      O44290   3.484   7.251   1.674
14683WAT     H144291   3.481   7.187   1.596
14683WAT     H244292   3.578   7.260   1.706
14684WAT      O44293   4.943   5.964   8.997
14684WAT     H144294   4.907   6.037   9.054
14684WAT     H244295   4.946   5.994   8.901
14685WAT      O44296   9.556   7.200   3.909
14685WAT     H144297   9.537   7.103   3.896
14685WAT     H244298   9.606   7.213   3.995
14686WAT      O44299   2.318   4.651   4.655
14686WAT     H144300   2.383   4.645   4.732
14686WAT     H244301   2.225   4.662   4.691
14687WAT      O44302   2.434   5.048   9.323
14687WAT     H144303   2.393   5.135   9.292
14687WAT     H244304   2.368   4.974   9.312
14688WAT      O44305   5.976   2.543   1.847
14688WAT     H144306   6.056   2.582   1.801
14688WAT     H244307   5.894   2.590   1.815
14689WAT      O44308   2.395   6.784   1.642
14689WAT     H144309   2.493   6.777   1.622
14689WAT     H244310   2.349   6.701   1.613
14690WAT      O44311   6.583   0.766   8.869
14690WAT     H144312   6.515   0.746   8.798
14690WAT     H244313   6.666   0.714   8.852
14691WAT      O44314   3.341   8.405   6.351
14691WAT     H144315   3.285   8.344   6.407
14691WAT     H244316   3.404   8.351   6.295
14692WAT      O44317   9.484   2.583   6.402
14692WAT     H144318   9.501   2.652   6.473
14692WAT     H244319   9.569   2.533   6.384
14693WAT      O44320   5.427   3.665   2.925
14693WAT     H144321   5.345   3.713   2.956
14693WAT     H244322   5.495   3.732   2.895
14694WAT      O44323   7.156   1.230   3.662
14694WAT     H144324   7.145   1.323   3.627
14694WAT     H244325   7.247   1.221   3.705
14695WAT      O44326   7.224   2.933   8.613
14695WAT     H144327   7.274   2.965   8.533
14695WAT     H244328   7.187   2.842   8.594
14696WAT      O44329   2.938   5.379   4.128
14696WAT     H144330   3.027   5.370   4.173
14696WAT     H244331   2.896   5.465   4.156
14697WAT      O44332   5.061   6.924   9.763
14697WAT     H144333   5.108   6.836   9.754
14697WAT     H244334   5.015   6.928   9.852
14698WAT      O44335   6.182   6.029   7.607
14698WAT     H144336   6.091   5.996   7.585
14698WAT     H244337   6.231   5.960   7.660
14699WAT      O44338   1.793   6.340   2.687
14699WAT     H144339   1.772   6.393   2.605
14699WAT     H244340   1.810   6.402   2.763
14700WAT      O44341   9.232   3.051   6.068
14700WAT     H144342   9.138   3.019   6.060
14700WAT     H244343   9.291   2.999   6.007
14701WAT      O44344   8.789   1.559   7.896
14701WAT     H144345   8.861   1.503   7.937
14701WAT     H244346   8.779   1.644   7.947
14702WAT      O44347   7.445   6.425   0.370
14702WAT     H144348   7.394   6.382   0.445
14702WAT     H244349   7.401   6.404   0.283
14703WAT      O44350   9.633   0.239   7.382
14703WAT     H144351   9.562   0.224   7.451
14703WAT     H244352   9.610   0.188   7.299
14704WAT      O44353   2.193   2.286   4.758
14704WAT     H144354   2.117   2.261   4.698
14704WAT     H244355   2.245   2.203   4.782
14705WAT      O44356   5.017   1.107   7.329
14705WAT     H144357   4.927   1.066   7.344
14705WAT     H244358   5.077   1.041   7.284
14706WAT      O44359   4.020   7.918   4.592
14706WAT     H144360   3.937   7.875   4.557
14706WAT     H244361   4.100   7.879   4.546
14707WAT      O44362   2.503   5.037   0.935
14707WAT     H144363   2.427   5.049   1.000
14707WAT     H244364   2.590   5.046   0.983
14708WAT      O44365   3.895   4.592   6.001
14708WAT     H144366   3.885   4.690   6.012
14708WAT     H244367   3.991   4.570   5.979
14709WAT      O44368   7.257   1.310   3.259
14709WAT     H144369   7.259   1.393   3.202
14709WAT     H244370   7.347   1.269   3.262
14710WAT      O44371   3.687   0.845   4.505
14710WAT     H144372   3.666   0.890   4.418
14710WAT     H244373   3.661   0.749   4.500
14711WAT      O44374   0.521   2.518   7.560
14711WAT     H144375   0.502   2.431   7.515
14711WAT     H244376   0.620   2.528   7.573
14712WAT      O44377   6.466   5.407   4.505
14712WAT     H144378   6.465   5.352   4.422
14712WAT     H244379   6.446   5.350   4.585
14713WAT      O44380   5.555   3.434   9.281
14713WAT     H144381   5.523   3.526   9.303
14713WAT     H244382   5.493   3.367   9.322
14714WAT      O44383   2.593   1.681   8.873
14714WAT     H144384   2.653   1.619   8.925
14714WAT     H244385   2.636   1.772   8.869
14715WAT      O44386   7.972   2.700   1.971
14715WAT     H144387   7.994   2.607   1.941
14715WAT     H244388   7.965   2.759   1.890
14716WAT      O44389   4.984   5.197   5.083
14716WAT     H144390   4.970   5.111   5.034
14716WAT     H244391   5.081   5.208   5.103
14717WAT      O44392   1.923   7.442   6.580
14717WAT     H144393   1.946   7.421   6.675
14717WAT     H244394   1.824   7.437   6.569
14718WAT      O44395   8.736   7.861   5.609
14718WAT     H144396   8.748   7.895   5.515
14718WAT     H244397   8.661   7.911   5.653
14719WAT      O44398   8.306   5.979   6.073
14719WAT     H144399   8.258   5.978   6.161
14719WAT     H244400   8.348   5.889   6.058
14720WAT      O44401   7.797   2.097   0.285
14720WAT     H144402   7.757   2.006   0.272
14720WAT     H244403   7.841   2.101   0.374
14721WAT      O44404   0.100   5.754   3.870
14721WAT     H144405   0.147   5.763   3.783
14721WAT     H244406   0.137   5.676   3.921
14722WAT      O44407   1.326   0.217   1.483
14722WAT     H144408   1.338   0.203   1.384
14722WAT     H244409   1.362   0.138   1.532
14723WAT      O44410   6.426   3.600   3.649
14723WAT     H144411   6.334   3.611   3.687
14723WAT     H244412   6.494   3.636   3.714
14724WAT      O44413   0.678   2.613   6.301
14724WAT     H144414   0.727   2.693   6.336
14724WAT     H244415   0.667   2.622   6.202
14725WAT      O44416   1.547   7.662   4.320
14725WAT     H144417   1.456   7.625   4.338
14725WAT     H244418   1.553   7.691   4.224
14726WAT      O44419   5.844   4.041   0.976
14726WAT     H144420   5.755   4.076   0.947
14726WAT     H244421   5.845   3.941   0.965
14727WAT      O44422   1.643   3.806   9.506
14727WAT     H144423   1.686   3.807   9.596
14727WAT     H244424   1.713   3.789   9.436
14728WAT      O44425   6.065   1.140   0.216
14728WAT     H144426   6.133   1.109   0.149
14728WAT     H244427   5.986   1.177   0.168
14729WAT      O44428   1.611   5.929   6.244
14729WAT     H144429   1.558   5.949   6.326
14729WAT     H244430   1.652   6.014   6.210
14730WAT      O44431   5.159   8.826   0.941
14730WAT     H144432   5.129   8.894   0.873
14730WAT     H244433   5.140   8.861   1.033
14731WAT      O44434   3.685   9.027   8.208
14731WAT     H144435   3.691   8.933   8.173
14731WAT     H244436   3.739   9.088   8.150
14732WAT      O44437   5.838   2.615   2.458
14732WAT     H144438   5.922   2.580   2.415
14732WAT     H244439   5.845   2.605   2.557
14733WAT      O44440   8.527   7.297   3.172
14733WAT     H144441   8.519   7.210   3.219
14733WAT     H244442   8.500   7.371   3.234
14734WAT      O44443   2.259   7.941   3.779
14734WAT     H144444   2.310   7.930   3.865
14734WAT     H244445   2.290   8.024   3.733
14735WAT      O44446   9.002   0.317   3.114
14735WAT     H144447   9.086   0.262   3.108
14735WAT     H244448   8.988   0.347   3.208
14736WAT      O44449   3.901   1.951   4.515
14736WAT     H144450   3.810   1.935   4.475
14736WAT     H244451   3.935   2.040   4.485
14737WAT      O44452   8.497   7.762   5.376
14737WAT     H144453   8.450   7.682   5.411
14737WAT     H244454   8.582   7.777   5.428
14738WAT      O44455   2.686   3.280   0.453
14738WAT     H144456   2.745   3.353   0.419
14738WAT     H244457   2.652   3.304   0.544
14739WAT      O44458   7.873   6.890   9.460
14739WAT     H144459   7.893   6.822   9.389
14739WAT     H244460   7.957   6.938   9.486
14740WAT      O44461   0.254   3.000   6.246
14740WAT     H144462   0.194   3.057   6.301
14740WAT     H244463   0.304   2.936   6.305
14741WAT      O44464   4.357   3.119   8.961
14741WAT     H144465   4.330   3.052   8.892
14741WAT     H244466   4.453   3.143   8.949
14742WAT      O44467   1.167   9.402   0.075
14742WAT     H144468   1.121   9.421  -0.011
14742WAT     H244469   1.161   9.483   0.135
14743WAT      O44470   5.019   2.032   5.998
14743WAT     H144471   4.970   2.010   6.083
14743WAT     H244472   4.984   1.974   5.924
14744WAT      O44473   4.127   7.722   4.244
14744WAT     H144474   4.102   7.625   4.250
14744WAT     H244475   4.194   7.743   4.315
14745WAT      O44476   3.913   5.276   4.922
14745WAT     H144477   3.916   5.178   4.937
14745WAT     H244478   3.910   5.295   4.824
14746WAT      O44479   2.282   4.450   5.995
14746WAT     H144480   2.376   4.416   5.998
14746WAT     H244481   2.220   4.376   5.968
14747WAT      O44482   0.425   4.116   3.807
14747WAT     H144483   0.428   4.134   3.906
14747WAT     H244484   0.498   4.166   3.762
14748WAT      O44485   9.044   5.843   6.622
14748WAT     H144486   8.980   5.796   6.561
14748WAT     H244487   9.043   5.798   6.711
14749WAT      O44488   9.765   3.755   9.693
14749WAT     H144489   9.721   3.770   9.605
14749WAT     H244490   9.861   3.781   9.688
14750WAT      O44491   4.859   3.246   6.248
14750WAT     H144492   4.923   3.207   6.314
14750WAT     H244493   4.765   3.221   6.274
14751WAT      O44494   7.859   1.972   2.806
14751WAT     H144495   7.854   1.970   2.706
14751WAT     H244496   7.949   2.006   2.834
14752WAT      O44497   3.963   0.873   3.517
14752WAT     H144498   3.914   0.926   3.586
14752WAT     H244499   4.046   0.923   3.490
14753WAT      O44500   6.740   4.463   8.386
14753WAT     H144501   6.802   4.540   8.367
14753WAT     H244502   6.765   4.422   8.473
14754WAT      O44503   9.039   7.551   5.074
14754WAT     H144504   8.962   7.577   5.133
14754WAT     H244505   9.016   7.466   5.026
14755WAT      O44506   6.314   1.581   9.033
14755WAT     H144507   6.351   1.489   9.043
14755WAT     H244508   6.273   1.590   8.942
14756WAT      O44509   0.601   3.087   3.934
14756WAT     H144510   0.683   3.106   3.988
14756WAT     H244511   0.627   3.048   3.846
14757WAT      O44512   7.734   0.798   2.799
14757WAT     H144513   7.685   0.729   2.852
14757WAT     H244514   7.815   0.828   2.849
14758WAT      O44515   4.292   4.655   0.319
14758WAT     H144516   4.327   4.735   0.271
14758WAT     H244517   4.365   4.614   0.374
14759WAT      O44518   9.282   4.719   1.215
14759WAT     H144519   9.223   4.709   1.135
14759WAT     H244520   9.372   4.681   1.194
14760WAT      O44521   9.253   1.119   5.772
14760WAT     H144522   9.296   1.076   5.693
14760WAT     H244523   9.280   1.215   5.777
14761WAT      O44524   2.402   8.879   6.935
14761WAT     H144525   2.307   8.855   6.957
14761WAT     H244526   2.425   8.966   6.978
14762WAT      O44527   2.167   0.187   4.819
14762WAT     H144528   2.165   0.089   4.798
14762WAT     H244529   2.079   0.227   4.795
14763WAT      O44530   5.655   3.683   9.145
14763WAT     H144531   5.663   3.727   9.056
14763WAT     H244532   5.633   3.586   9.133
14764WAT      O44533   7.367   8.318   7.155
14764WAT     H144534   7.273   8.318   7.189
14764WAT     H244535   7.429   8.343   7.230
14765WAT      O44536   6.706   4.703   6.697
14765WAT     H144537   6.629   4.653   6.658
14765WAT     H244538   6.784   4.697   6.635
14766WAT      O44539   9.136   3.296   7.732
14766WAT     H144540   9.215   3.269   7.677
14766WAT     H244541   9.052   3.277   7.681
14767WAT      O44542   4.541   8.551   3.176
14767WAT     H144543   4.569   8.477   3.115
14767WAT     H244544   4.619   8.612   3.192
14768WAT      O44545   8.605   7.821   0.065
14768WAT     H144546   8.658   7.822  -0.020
14768WAT     H244547   8.521   7.874   0.053
14769WAT      O44548   0.076   7.136   6.914
14769WAT     H144549   0.001   7.077   6.884
14769WAT     H244550   0.038   7.223   6.946
14770WAT      O44551   3.605   8.246   4.946
14770WAT     H144552   3.635   8.150   4.944
14770WAT     H244553   3.531   8.258   4.880
14771WAT      O44554   3.342   2.478   7.417
14771WAT     H144555   3.396   2.397   7.394
14771WAT     H244556   3.341   2.541   7.339
14772WAT      O44557   6.704   5.613   0.052
14772WAT     H144558   6.640   5.543   0.021
14772WAT     H244559   6.759   5.644  -0.026
14773WAT      O44560   8.807   7.285   4.098
14773WAT     H144561   8.711   7.260   4.084
14773WAT     H244562   8.856   7.208   4.139
14774WAT      O44563   2.401   6.815   4.810
14774WAT     H144564   2.469   6.780   4.876
14774WAT     H244565   2.310   6.809   4.851
14775WAT      O44566   9.154   9.193   4.363
14775WAT     H144567   9.165   9.226   4.270
14775WAT     H244568   9.147   9.272   4.425
14776WAT      O44569   1.720   3.356   6.321
14776WAT     H144570   1.677   3.367   6.410
14776WAT     H244571   1.657   3.385   6.249
14777WAT      O44572   5.679   0.346   2.189
14777WAT     H144573   5.596   0.349   2.246
14777WAT     H244574   5.657   0.380   2.098
14778WAT      O44575   5.501   3.174   5.904
14778WAT     H144576   5.441   3.144   5.978
14778WAT     H244577   5.471   3.265   5.873
14779WAT      O44578   4.465   8.339   7.038
14779WAT     H144579   4.532   8.396   6.990
14779WAT     H244580   4.382   8.393   7.056
14780WAT      O44581   1.814   1.140   8.102
14780WAT     H144582   1.868   1.125   8.019
14780WAT     H244583   1.721   1.166   8.076
14781WAT      O44584   5.056   1.464   3.211
14781WAT     H144585   5.020   1.376   3.181
14781WAT     H244586   5.083   1.518   3.131
14782WAT      O44587   7.722   6.601   5.258
14782WAT     H144588   7.796   6.562   5.202
14782WAT     H244589   7.717   6.552   5.345
14783WAT      O44590   8.832   9.114   6.945
14783WAT     H144591   8.852   9.035   7.003
14783WAT     H244592   8.781   9.083   6.864
14784WAT      O44593   7.926   3.930   1.585
14784WAT     H144594   7.890   3.841   1.614
14784WAT     H244595   7.851   3.986   1.550
14785WAT      O44596   4.080   7.379   1.370
14785WAT     H144597   4.108   7.440   1.295
14785WAT     H244598   4.137   7.398   1.450
14786WAT      O44599   9.371   1.249   9.413
14786WAT     H144600   9.375   1.149   9.417
14786WAT     H244601   9.276   1.279   9.408
14787WAT      O44602   7.991   2.973   7.958
14787WAT     H144603   7.899   2.995   7.926
14787WAT     H244604   8.020   3.040   8.026
14788WAT      O44605   4.328   4.417   9.544
14788WAT     H144606   4.246   4.378   9.503
14788WAT     H244607   4.359   4.495   9.488
14789WAT      O44608   8.376   1.514   3.935
14789WAT     H144609   8.299   1.491   3.874
14789WAT     H244610   8.417   1.430   3.970
14790WAT      O44611   2.077   6.939   2.866
14790WAT     H144612   2.010   6.877   2.907
14790WAT     H244613   2.032   6.999   2.801
14791WAT      O44614   4.523   6.715   9.534
14791WAT     H144615   4.485   6.623   9.522
14791WAT     H244616   4.611   6.708   9.580
14792WAT      O44617   2.764   2.480   5.187
14792WAT     H144618   2.837   2.411   5.193
14792WAT     H244619   2.705   2.459   5.110
14793WAT      O44620   7.555   8.613   8.075
14793WAT     H144621   7.628   8.565   8.026
14793WAT     H244622   7.570   8.606   8.174
14794WAT      O44623   0.446   3.560   0.359
14794WAT     H144624   0.380   3.633   0.373
14794WAT     H244625   0.482   3.565   0.266
14795WAT      O44626   0.057   7.472   8.370
14795WAT     H144627   0.145   7.441   8.334
14795WAT     H244628  -0.018   7.425   8.323
14796WAT      O44629   4.684   0.735   0.491
14796WAT     H144630   4.639   0.656   0.448
14796WAT     H244631   4.616   0.789   0.540
14797WAT      O44632   2.806   9.167   7.528
14797WAT     H144633   2.866   9.162   7.608
14797WAT     H244634   2.816   9.256   7.484
14798WAT      O44635   0.726   8.326   6.648
14798WAT     H144636   0.654   8.273   6.604
14798WAT     H244637   0.714   8.423   6.625
14799WAT      O44638   1.885   8.748   8.565
14799WAT     H144639   1.854   8.653   8.556
14799WAT     H244640   1.856   8.800   8.485
14800WAT      O44641   9.410   8.254   0.920
14800WAT     H144642   9.364   8.275   1.007
14800WAT     H244643   9.410   8.336   0.862
14801WAT      O44644   2.999   1.856   1.667
14801WAT     H144645   2.919   1.825   1.615
14801WAT     H244646   2.968   1.900   1.751
14802WAT      O44647   1.545   6.346   2.264
14802WAT     H144648   1.453   6.322   2.233
14802WAT     H244649   1.606   6.355   2.185
14803WAT      O44650   2.219   9.579   5.733
14803WAT     H144651   2.124   9.585   5.703
14803WAT     H244652   2.252   9.485   5.719
14804WAT      O44653   9.012   5.268   9.252
14804WAT     H144654   8.975   5.268   9.345
14804WAT     H244655   8.958   5.207   9.194
14805WAT      O44656   8.026   9.563   5.745
14805WAT     H144657   7.969   9.598   5.820
14805WAT     H244658   7.987   9.477   5.712
14806WAT      O44659   2.438   7.493   4.595
14806WAT     H144660   2.489   7.578   4.584
14806WAT     H244661   2.389   7.494   4.682
14807WAT      O44662   3.225   8.960   9.873
14807WAT     H144663   3.214   8.861   9.884
14807WAT     H244664   3.320   8.981   9.854
14808WAT      O44665   3.653   7.008   6.235
14808WAT     H144666   3.678   6.990   6.330
14808WAT     H244667   3.604   6.929   6.199
14809WAT      O44668   2.128   2.869   7.715
14809WAT     H144669   2.143   2.942   7.781
14809WAT     H244670   2.073   2.903   7.639
14810WAT      O44671   5.133   2.681   9.434
14810WAT     H144672   5.114   2.744   9.510
14810WAT     H244673   5.137   2.587   9.469
14811WAT      O44674   4.163   1.736   4.118
14811WAT     H144675   4.125   1.675   4.188
14811WAT     H244676   4.166   1.830   4.153
14812WAT      O44677   0.155   9.387   8.715
14812WAT     H144678   0.073   9.411   8.766
14812WAT     H244679   0.197   9.305   8.754
14813WAT      O44680   7.320   1.636   5.914
14813WAT     H144681   7.371   1.718   5.939
14813WAT     H244682   7.252   1.615   5.984
14814WAT      O44683   7.957   0.123   8.472
14814WAT     H144684   7.965   0.181   8.553
14814WAT     H244685   7.983   0.029   8.496
14815WAT      O44686   6.873   3.714   7.329
14815WAT     H144687   6.895   3.796   7.381
14815WAT     H244688   6.779   3.720   7.295
14816WAT      O44689   7.882   4.034   4.452
14816WAT     H144690   7.867   4.062   4.547
14816WAT     H244691   7.835   4.097   4.391
14817WAT      O44692   3.159   4.181   9.260
14817WAT     H144693   3.210   4.261   9.229
14817WAT     H244694   3.062   4.204   9.265
14818WAT      O44695   2.338   9.457   6.875
14818WAT     H144696   2.262   9.408   6.917
14818WAT     H244697   2.313   9.485   6.782
14819WAT      O44698   0.908   4.062   3.081
14819WAT     H144699   0.882   4.013   3.164
14819WAT     H244700   1.006   4.049   3.064
14820WAT      O44701   9.699   4.460   5.156
14820WAT     H144702   9.745   4.504   5.234
14820WAT     H244703   9.713   4.515   5.074
14821WAT      O44704   3.919   5.049   7.961
14821WAT     H144705   4.004   5.009   7.927
14821WAT     H244706   3.923   5.148   7.952
14822WAT      O44707   7.909   6.076   6.238
14822WAT     H144708   7.836   6.034   6.184
14822WAT     H244709   7.873   6.101   6.328
14823WAT      O44710   8.864   4.893   5.191
14823WAT     H144711   8.813   4.854   5.267
14823WAT     H244712   8.843   4.991   5.183
14824WAT      O44713   4.745   6.447   5.073
14824WAT     H144714   4.815   6.377   5.058
14824WAT     H244715   4.707   6.475   4.985
14825WAT      O44716   0.680   5.124   5.647
14825WAT     H144717   0.675   5.223   5.650
14825WAT     H244718   0.768   5.094   5.684
14826WAT      O44719   7.340   7.445   6.340
14826WAT     H144720   7.371   7.391   6.262
14826WAT     H244721   7.289   7.387   6.403
14827WAT      O44722   0.308   5.939   9.594
14827WAT     H144723   0.338   6.031   9.567
14827WAT     H244724   0.372   5.871   9.557
14828WAT      O44725   1.636   6.943   8.269
14828WAT     H144726   1.655   6.974   8.362
14828WAT     H244727   1.585   7.014   8.220
14829WAT      O44728   7.552   7.432   4.233
14829WAT     H144729   7.519   7.372   4.306
14829WAT     H244730   7.652   7.442   4.242
14830WAT      O44731   4.947   6.561   2.212
14830WAT     H144732   5.030   6.612   2.232
14830WAT     H244733   4.937   6.551   2.113
14831WAT      O44734   7.047   3.988   4.840
14831WAT     H144735   6.948   4.003   4.835
14831WAT     H244736   7.093   4.046   4.773
14832WAT      O44737   7.909   3.848   8.420
14832WAT     H144738   7.888   3.753   8.394
14832WAT     H244739   7.848   3.910   8.372
14833WAT      O44740   4.570   2.803   5.848
14833WAT     H144741   4.589   2.727   5.910
14833WAT     H244742   4.632   2.798   5.770
14834WAT      O44743   2.551   0.329   9.040
14834WAT     H144744   2.569   0.427   9.029
14834WAT     H244745   2.605   0.294   9.116
14835WAT      O44746   2.144   8.056   1.635
14835WAT     H144747   2.136   8.021   1.542
14835WAT     H244748   2.081   8.008   1.695
14836WAT      O44749   0.105   5.846   7.572
14836WAT     H144750   0.101   5.878   7.478
14836WAT     H244751   0.041   5.770   7.584
14837WAT      O44752   6.551   9.022   4.730
14837WAT     H144753   6.548   9.020   4.830
14837WAT     H244754   6.628   8.968   4.698
14838WAT      O44755   1.593   6.260   8.759
14838WAT     H144756   1.684   6.240   8.723
14838WAT     H244757   1.523   6.223   8.697
14839WAT      O44758   5.527   0.503   0.369
14839WAT     H144759   5.498   0.471   0.459
14839WAT     H244760   5.625   0.487   0.358
14840WAT      O44761   7.676   1.747   1.856
14840WAT     H144762   7.764   1.772   1.816
14840WAT     H244763   7.603   1.766   1.791
14841WAT      O44764   7.508   8.631   4.402
14841WAT     H144765   7.604   8.657   4.394
14841WAT     H244766   7.492   8.546   4.352
14842WAT      O44767   7.065   1.742   9.322
14842WAT     H144768   6.989   1.685   9.292
14842WAT     H244769   7.082   1.726   9.420
14843WAT      O44770   2.046   2.169   8.304
14843WAT     H144771   1.998   2.134   8.384
14843WAT     H244772   2.088   2.093   8.254
14844WAT      O44773   7.622   8.280   1.263
14844WAT     H144774   7.685   8.343   1.217
14844WAT     H244775   7.649   8.186   1.245
14845WAT      O44776   0.187   7.911   2.357
14845WAT     H144777   0.269   7.963   2.331
14845WAT     H244778   0.211   7.846   2.429
14846WAT      O44779   4.267   6.388   7.468
14846WAT     H144780   4.257   6.416   7.563
14846WAT     H244781   4.264   6.469   7.409
14847WAT      O44782   2.874   1.302   4.545
14847WAT     H144783   2.843   1.208   4.530
14847WAT     H244784   2.881   1.319   4.644
14848WAT      O44785   5.042   3.224   2.969
14848WAT     H144786   5.139   3.241   2.985
14848WAT     H244787   4.988   3.279   3.033
14849WAT      O44788   4.100   3.129   6.206
14849WAT     H144789   4.066   3.064   6.138
14849WAT     H244790   4.198   3.117   6.219
14850WAT      O44791   4.710   4.590   0.981
14850WAT     H144792   4.781   4.568   1.049
14850WAT     H244793   4.659   4.507   0.959
14851WAT      O44794   7.706   2.019   8.354
14851WAT     H144795   7.645   2.064   8.419
14851WAT     H244796   7.797   2.060   8.360
14852WAT      O44797   5.890   0.565   4.279
14852WAT     H144798   5.943   0.610   4.208
14852WAT     H244799   5.870   0.630   4.353
14853WAT      O44800   2.374   6.286   3.911
14853WAT     H144801   2.443   6.230   3.956
14853WAT     H244802   2.303   6.311   3.977
14854WAT      O44803   8.475   0.580   8.129
14854WAT     H144804   8.485   0.490   8.173
14854WAT     H244805   8.491   0.570   8.030
14855WAT      O44806   7.125   7.913   8.402
14855WAT     H144807   7.221   7.887   8.392
14855WAT     H244808   7.117   8.013   8.404
14856WAT      O44809   6.866   2.029   5.014
14856WAT     H144810   6.767   2.035   5.002
14856WAT     H244811   6.890   1.936   5.042
14857WAT      O44812   4.175   6.015   5.278
14857WAT     H144813   4.101   6.071   5.242
14857WAT     H244814   4.188   5.935   5.219
14858WAT      O44815   5.684   5.862   8.357
14858WAT     H144816   5.740   5.781   8.375
14858WAT     H244817   5.743   5.940   8.338
14859WAT      O44818   5.694   0.055   5.249
14859WAT     H144819   5.726   0.149   5.257
14859WAT     H244820   5.625   0.049   5.176
14860WAT      O44821   8.572   6.438   1.851
14860WAT     H144822   8.553   6.354   1.902
14860WAT     H244823   8.533   6.516   1.900
14861WAT      O44824   2.846   9.639   2.628
14861WAT     H144825   2.935   9.684   2.635
14861WAT     H244826   2.843   9.560   2.689
14862WAT      O44827   9.432   0.466   4.741
14862WAT     H144828   9.343   0.421   4.732
14862WAT     H244829   9.419   0.564   4.756
14863WAT      O44830   6.096   5.194   7.632
14863WAT     H144831   6.115   5.149   7.719
14863WAT     H244832   6.125   5.134   7.557
14864WAT      O44833   3.609   8.354   0.906
14864WAT     H144834   3.633   8.259   0.882
14864WAT     H244835   3.628   8.369   1.003
14865WAT      O44836   2.133   1.170   6.348
14865WAT     H144837   2.134   1.092   6.410
14865WAT     H244838   2.226   1.186   6.314
14866WAT      O44839   3.164   5.331   3.820
14866WAT     H144840   3.089   5.282   3.865
14866WAT     H244841   3.126   5.406   3.766
14867WAT      O44842   5.581   4.908   7.033
14867WAT     H144843   5.525   4.896   7.115
14867WAT     H244844   5.582   4.823   6.981
14868WAT      O44845   5.497   1.166   6.915
14868WAT     H144846   5.597   1.169   6.915
14868WAT     H244847   5.467   1.078   6.880
14869WAT      O44848   9.011   7.822   5.637
14869WAT     H144849   9.038   7.819   5.733
14869WAT     H244850   8.912   7.828   5.631
14870WAT      O44851   7.621   1.311   2.261
14870WAT     H144852   7.598   1.284   2.354
14870WAT     H244853   7.578   1.248   2.197
14871WAT      O44854   1.007   8.912   0.170
14871WAT     H144855   1.098   8.893   0.208
14871WAT     H244856   0.962   8.982   0.226
14872WAT      O44857   3.963   6.229   2.141
14872WAT     H144858   3.865   6.232   2.125
14872WAT     H244859   3.981   6.237   2.239
14873WAT      O44860   2.193   6.822   9.468
14873WAT     H144861   2.104   6.849   9.431
14873WAT     H244862   2.186   6.812   9.567
14874WAT      O44863   7.710   0.948   5.840
14874WAT     H144864   7.770   0.901   5.775
14874WAT     H244865   7.643   1.002   5.790
14875WAT      O44866   5.805   1.788   1.934
14875WAT     H144867   5.882   1.830   1.886
14875WAT     H244868   5.799   1.824   2.027
14876WAT      O44869   3.912   5.176   3.505
14876WAT     H144870   3.883   5.265   3.539
14876WAT     H244871   3.836   5.133   3.456
14877WAT      O44872   3.885   9.123   4.235
14877WAT     H144873   3.833   9.092   4.314
14877WAT     H244874   3.827   9.180   4.177
14878WAT      O44875   0.549   1.655   5.003
14878WAT     H144876   0.469   1.694   5.049
14878WAT     H244877   0.632   1.700   5.037
14879WAT      O44878   2.953   1.515   5.872
14879WAT     H144879   2.883   1.447   5.850
14879WAT     H244880   2.986   1.499   5.965
14880WAT      O44881   0.526   1.130   0.615
14880WAT     H144882   0.501   1.120   0.711
14880WAT     H244883   0.463   1.078   0.558
14881WAT      O44884   8.468   4.726   2.368
14881WAT     H144885   8.475   4.800   2.434
14881WAT     H244886   8.546   4.665   2.377
14882WAT      O44887   3.547   7.279   0.159
14882WAT     H144888   3.562   7.359   0.217
14882WAT     H244889   3.452   7.249   0.166
14883WAT      O44890   9.461   7.640   0.833
14883WAT     H144891   9.465   7.724   0.887
14883WAT     H244892   9.461   7.662   0.736
14884WAT      O44893   6.952   3.563   5.311
14884WAT     H144894   6.941   3.620   5.392
14884WAT     H244895   7.048   3.561   5.284
14885WAT      O44896   5.611   7.162   8.397
14885WAT     H144897   5.597   7.219   8.478
14885WAT     H244898   5.527   7.110   8.378
14886WAT      O44899   0.770   4.708   6.954
14886WAT     H144900   0.738   4.615   6.934
14886WAT     H244901   0.850   4.703   7.012
14887WAT      O44902   1.883   8.371   2.502
14887WAT     H144903   1.935   8.295   2.541
14887WAT     H244904   1.855   8.347   2.409
14888WAT      O44905   0.932   8.332   0.397
14888WAT     H144906   0.902   8.357   0.489
14888WAT     H244907   0.867   8.367   0.330
14889WAT      O44908   1.200   2.213   6.532
14889WAT     H144909   1.128   2.202   6.600
14889WAT     H244910   1.159   2.218   6.440
14890WAT      O44911   6.310   1.349   7.859
14890WAT     H144912   6.292   1.430   7.803
14890WAT     H244913   6.408   1.329   7.859
14891WAT      O44914   7.674   4.236   1.879
14891WAT     H144915   7.740   4.278   1.941
14891WAT     H244916   7.720   4.211   1.794
14892WAT      O44917   1.014   1.930   7.747
14892WAT     H144918   0.926   1.929   7.795
14892WAT     H244919   1.078   1.868   7.792
14893WAT      O44920   7.368   2.080   7.551
14893WAT     H144921   7.320   2.082   7.639
14893WAT     H244922   7.450   2.023   7.559
14894WAT      O44923   4.129   5.503   8.907
14894WAT     H144924   4.202   5.513   8.839
14894WAT     H244925   4.162   5.446   8.982
14895WAT      O44926   5.949   7.988   8.532
14895WAT     H144927   5.872   8.031   8.485
14895WAT     H244928   6.014   7.951   8.464
14896WAT      O44929   5.683   1.129   7.530
14896WAT     H144930   5.698   1.051   7.591
14896WAT     H244931   5.716   1.106   7.438
14897WAT      O44932   4.957   3.548   5.206
14897WAT     H144933   4.918   3.585   5.122
14897WAT     H244934   5.049   3.514   5.187
14898WAT      O44935   4.127   0.457   3.344
14898WAT     H144936   4.195   0.484   3.412
14898WAT     H244937   4.145   0.363   3.314
14899WAT      O44938   2.139   2.620   3.842
14899WAT     H144939   2.234   2.640   3.819
14899WAT     H244940   2.079   2.686   3.798
14900WAT      O44941   7.968   3.697   2.912
14900WAT     H144942   7.930   3.772   2.857
14900WAT     H244943   7.951   3.610   2.865
14901WAT      O44944   6.912   4.787   5.119
14901WAT     H144945   6.935   4.837   5.036
14901WAT     H244946   6.949   4.835   5.198
14902WAT      O44947   7.811   3.570   3.108
14902WAT     H144948   7.828   3.474   3.128
14902WAT     H244949   7.876   3.602   3.039
14903WAT      O44950   0.689   2.840   5.967
14903WAT     H144951   0.675   2.880   6.057
14903WAT     H244952   0.674   2.741   5.971
14904WAT      O44953   6.958   4.549   1.462
14904WAT     H144954   6.927   4.644   1.459
14904WAT     H244955   6.890   4.494   1.511
14905WAT      O44956   8.620   3.408   8.265
14905WAT     H144957   8.712   3.434   8.237
14905WAT     H244958   8.570   3.490   8.294
14906WAT      O44959   8.780   9.350   2.661
14906WAT     H144960   8.693   9.395   2.681
14906WAT     H244961   8.767   9.251   2.658
14907WAT      O44962   1.115   8.732   3.991
14907WAT     H144963   1.108   8.718   4.090
14907WAT     H244964   1.040   8.791   3.961
14908WAT      O44965   5.680   6.125   4.571
14908WAT     H144966   5.662   6.026   4.564
14908WAT     H244967   5.639   6.171   4.492
14909WAT      O44968   6.518   4.564   1.579
14909WAT     H144969   6.447   4.586   1.646
14909WAT     H244970   6.479   4.569   1.487
14910WAT      O44971   9.210   7.893   0.915
14910WAT     H144972   9.157   7.813   0.942
14910WAT     H244973   9.173   7.975   0.958
14911WAT      O44974   9.757   6.137   3.609
14911WAT     H144975   9.812   6.169   3.686
14911WAT     H244976   9.786   6.044   3.585
14912WAT      O44977   3.997   0.839   8.553
14912WAT     H144978   4.094   0.832   8.532
14912WAT     H244979   3.986   0.860   8.651
14913WAT      O44980   4.297   9.611   8.381
14913WAT     H144981   4.201   9.593   8.404
14913WAT     H244982   4.303   9.645   8.287
14914WAT      O44983   7.520   6.227   0.121
14914WAT     H144984   7.486   6.188   0.036
14914WAT     H244985   7.618   6.246   0.112
14915WAT      O44986   6.311   7.806   2.495
14915WAT     H144987   6.379   7.879   2.500
14915WAT     H244988   6.287   7.776   2.588
14916WAT      O44989   2.246   8.239   8.883
14916WAT     H144990   2.329   8.266   8.932
14916WAT     H244991   2.168   8.240   8.946
14917WAT      O44992   2.605   6.981   8.613
14917WAT     H144993   2.608   7.048   8.687
14917WAT     H244994   2.510   6.966   8.584
14918WAT      O44995   2.331   8.271   4.074
14918WAT     H144996   2.286   8.220   4.001
14918WAT     H244997   2.424   8.295   4.046
14919WAT      O44998   7.720   3.297   5.533
14919WAT     H144999   7.640   3.357   5.531
14919WAT     H245000   7.700   3.215   5.585
14920WAT      O45001   5.993   4.044   9.115
14920WAT     H145002   6.013   4.117   9.049
14920WAT     H245003   5.982   3.957   9.066
14921WAT      O45004   1.322   8.490   0.343
14921WAT     H145005   1.391   8.418   0.347
14921WAT     H245006   1.340   8.549   0.263
14922WAT      O45007   9.658   4.331   4.595
14922WAT     H145008   9.730   4.380   4.644
14922WAT     H245009   9.583   4.309   4.658
14923WAT      O45010   9.345   6.631   9.499
14923WAT     H145011   9.313   6.650   9.406
14923WAT     H245012   9.289   6.559   9.539
14924WAT      O45013   1.790   2.444   6.642
14924WAT     H145014   1.758   2.349   6.644
14924WAT     H245015   1.865   2.454   6.708
14925WAT      O45016   4.070   8.722   4.556
14925WAT     H145017   4.087   8.629   4.525
14925WAT     H245018   4.056   8.723   4.655
14926WAT      O45019   4.597   7.542   7.387
14926WAT     H145020   4.572   7.634   7.356
14926WAT     H245021   4.585   7.477   7.312
14927WAT      O45022   7.554   7.099   3.262
14927WAT     H145023   7.463   7.137   3.245
14927WAT     H245024   7.554   7.051   3.349
14928WAT      O45025   7.875   3.796   8.950
14928WAT     H145026   7.896   3.757   8.861
14928WAT     H245027   7.796   3.857   8.942
14929WAT      O45028   0.260   3.495   1.384
14929WAT     H145029   0.247   3.459   1.292
14929WAT     H245030   0.314   3.578   1.380
14930WAT      O45031   9.882   8.537   8.824
14930WAT     H145032   9.947   8.559   8.896
14930WAT     H245033   9.927   8.542   8.735
14931WAT      O45034   4.372   3.986   7.840
14931WAT     H145035   4.330   3.952   7.756
14931WAT     H245036   4.459   3.938   7.856
14932WAT      O45037   1.494   4.635   0.676
14932WAT     H145038   1.510   4.608   0.771
14932WAT     H245039   1.407   4.598   0.645
14933WAT      O45040   7.971   6.900   3.409
14933WAT     H145041   7.941   6.989   3.374
14933WAT     H245042   7.904   6.866   3.476
14934WAT      O45043   8.944   1.780   5.698
14934WAT     H145044   9.025   1.837   5.685
14934WAT     H245045   8.972   1.686   5.722
14935WAT      O45046   6.098   3.022   3.713
14935WAT     H145047   6.123   3.044   3.808
14935WAT     H245048   6.041   3.095   3.676
14936WAT      O45049   9.866   5.608   4.417
14936WAT     H145050   9.899   5.692   4.461
14936WAT     H245051   9.920   5.591   4.335
14937WAT      O45052   5.302   6.805   3.807
14937WAT     H145053   5.312   6.900   3.777
14937WAT     H245054   5.393   6.763   3.812
14938WAT      O45055   0.575   1.803   4.003
14938WAT     H145056   0.579   1.760   3.913
14938WAT     H245057   0.479   1.813   4.031
14939WAT      O45058   6.899   9.554   6.433
14939WAT     H145059   6.855   9.543   6.522
14939WAT     H245060   6.836   9.598   6.369
14940WAT      O45061   4.256   3.767   2.134
14940WAT     H145062   4.241   3.699   2.063
14940WAT     H245063   4.348   3.806   2.125
14941WAT      O45064   7.893   5.603   3.008
14941WAT     H145065   7.884   5.508   2.979
14941WAT     H245066   7.856   5.663   2.937
14942WAT      O45067   0.535   3.911   9.865
14942WAT     H145068   0.570   3.979   9.929
14942WAT     H245069   0.611   3.868   9.817
14943WAT      O45070   0.835   3.327   1.343
14943WAT     H145071   0.861   3.375   1.427
14943WAT     H245072   0.859   3.383   1.264
14944WAT      O45073   5.423   2.712   2.274
14944WAT     H145074   5.332   2.676   2.296
14944WAT     H245075   5.491   2.639   2.282
14945WAT      O45076   2.612   8.992   2.664
14945WAT     H145077   2.644   8.908   2.707
14945WAT     H245078   2.533   8.972   2.607
14946WAT      O45079   5.570   9.002   0.427
14946WAT     H145080   5.520   9.083   0.458
14946WAT     H245081   5.560   8.929   0.494
14947WAT      O45082   8.600   8.127   2.549
14947WAT     H145083   8.509   8.133   2.507
14947WAT     H245084   8.642   8.217   2.550
14948WAT      O45085   1.306   6.562   6.090
14948WAT     H145086   1.323   6.660   6.082
14948WAT     H245087   1.393   6.512   6.088
14949WAT      O45088   1.454   6.191   2.628
14949WAT     H145089   1.414   6.103   2.654
14949WAT     H245090   1.523   6.177   2.557
14950WAT      O45091   5.487   0.612   1.210
14950WAT     H145092   5.496   0.617   1.309
14950WAT     H245093   5.394   0.584   1.186
14951WAT      O45094   4.619   7.324   1.938
14951WAT     H145095   4.560   7.298   1.862
14951WAT     H245096   4.562   7.352   2.016
14952WAT      O45097   9.159   2.814   1.358
14952WAT     H145098   9.230   2.863   1.308
14952WAT     H245099   9.096   2.772   1.293
14953WAT      O45100   0.533   7.688   8.522
14953WAT     H145101   0.613   7.743   8.546
14953WAT     H245102   0.540   7.661   8.426
14954WAT      O45103   0.904   6.979   5.652
14954WAT     H145104   0.981   6.937   5.605
14954WAT     H245105   0.848   6.909   5.697
14955WAT      O45106   1.898   1.230   7.729
14955WAT     H145107   1.967   1.300   7.706
14955WAT     H245108   1.943   1.152   7.771
14956WAT      O45109   2.965   9.501   9.063
14956WAT     H145110   2.902   9.564   9.108
14956WAT     H245111   2.955   9.508   8.964
14957WAT      O45112   2.435   5.887   3.142
14957WAT     H145113   2.385   5.970   3.167
14957WAT     H245114   2.370   5.816   3.115
14958WAT      O45115   3.621   6.556   2.824
14958WAT     H145116   3.593   6.475   2.877
14958WAT     H245117   3.541   6.611   2.801
14959WAT      O45118   9.392   4.590   2.843
14959WAT     H145119   9.359   4.499   2.819
14959WAT     H245120   9.318   4.644   2.882
14960WAT      O45121   2.018   8.752   5.665
14960WAT     H145122   2.056   8.682   5.604
14960WAT     H245123   2.003   8.836   5.613
14961WAT      O45124   4.356   4.023   0.487
14961WAT     H145125   4.311   4.101   0.444
14961WAT     H245126   4.290   3.972   0.541
14962WAT      O45127   9.367   0.051   9.729
14962WAT     H145128   9.380   0.120   9.658
14962WAT     H245129   9.341  -0.036   9.687
14963WAT      O45130   0.323   4.573   0.257
14963WAT     H145131   0.417   4.607   0.245
14963WAT     H245132   0.266   4.647   0.293
14964WAT      O45133   8.655   3.343   0.931
14964WAT     H145134   8.725   3.319   0.999
14964WAT     H245135   8.565   3.343   0.975
14965WAT      O45136   4.301   5.181   1.331
14965WAT     H145137   4.314   5.196   1.233
14965WAT     H245138   4.230   5.112   1.345
14966WAT      O45139   8.508   8.424   4.294
14966WAT     H145140   8.466   8.391   4.209
14966WAT     H245141   8.579   8.491   4.272
14967WAT      O45142   8.978   3.437   0.713
14967WAT     H145143   8.934   3.526   0.729
14967WAT     H245144   9.062   3.432   0.766
14968WAT      O45145   5.006   7.445   7.937
14968WAT     H145146   4.981   7.350   7.919
14968WAT     H245147   4.944   7.484   8.005
14969WAT      O45148   0.909   2.872   6.902
14969WAT     H145149   0.908   2.941   6.975
14969WAT     H245150   0.913   2.781   6.943
14970WAT      O45151   9.076   0.229   8.257
14970WAT     H145152   9.073   0.188   8.166
14970WAT     H245153   9.171   0.246   8.283
14971WAT      O45154   2.092   5.973   2.835
14971WAT     H145155   2.036   6.036   2.782
14971WAT     H245156   2.164   5.935   2.778
14972WAT      O45157   6.725   1.386   8.688
14972WAT     H145158   6.722   1.433   8.776
14972WAT     H245159   6.808   1.411   8.639
14973WAT      O45160   2.530   1.097   4.748
14973WAT     H145161   2.455   1.109   4.683
14973WAT     H245162   2.497   1.115   4.841
14974WAT      O45163   4.155   6.660   8.299
14974WAT     H145164   4.245   6.701   8.316
14974WAT     H245165   4.125   6.683   8.207
14975WAT      O45166   7.839   8.695   2.506
14975WAT     H145167   7.782   8.659   2.432
14975WAT     H245168   7.915   8.633   2.524
14976WAT      O45169   8.622   8.895   1.727
14976WAT     H145170   8.600   8.989   1.699
14976WAT     H245171   8.721   8.886   1.737
14977WAT      O45172   0.319   5.912   4.615
14977WAT     H145173   0.408   5.907   4.570
14977WAT     H245174   0.312   5.997   4.667
14978WAT      O45175   6.354   7.899   4.710
14978WAT     H145176   6.274   7.868   4.761
14978WAT     H245177   6.401   7.970   4.763
14979WAT      O45178   3.608   5.127   8.934
14979WAT     H145179   3.682   5.183   8.895
14979WAT     H245180   3.558   5.182   9.002
14980WAT      O45181   1.500   1.909   6.227
14980WAT     H145182   1.483   1.812   6.239
14980WAT     H245183   1.445   1.961   6.293
14981WAT      O45184   9.411   3.665   9.247
14981WAT     H145185   9.433   3.619   9.333
14981WAT     H245186   9.361   3.602   9.188
14982WAT      O45187   8.198   2.010   4.571
14982WAT     H145188   8.269   2.050   4.629
14982WAT     H245189   8.240   1.961   4.495
14983WAT      O45190   1.688   4.859   2.593
14983WAT     H145191   1.664   4.762   2.587
14983WAT     H245192   1.787   4.868   2.599
14984WAT      O45193   4.731   2.078   3.158
14984WAT     H145194   4.729   2.153   3.092
14984WAT     H245195   4.744   1.991   3.109
14985WAT      O45196   8.500   1.748   6.226
14985WAT     H145197   8.426   1.809   6.198
14985WAT     H245198   8.526   1.768   6.320
14986WAT      O45199   9.686   0.411   5.892
14986WAT     H145200   9.707   0.336   5.955
14986WAT     H245201   9.771   0.445   5.852
14987WAT      O45202   4.180   2.031   4.782
14987WAT     H145203   4.133   1.992   4.862
14987WAT     H245204   4.264   2.076   4.812
14988WAT      O45205   5.037   0.350   7.541
14988WAT     H145206   5.114   0.334   7.602
14988WAT     H245207   4.954   0.311   7.581
14989WAT      O45208   4.769   7.046   9.055
14989WAT     H145209   4.862   7.075   9.080
14989WAT     H245210   4.739   6.974   9.118
14990WAT      O45211   1.324   5.891   5.269
14990WAT     H145212   1.399   5.953   5.245
14990WAT     H245213   1.357   5.823   5.335
14991WAT      O45214   4.220   7.981   0.851
14991WAT     H145215   4.203   8.034   0.934
14991WAT     H245216   4.317   7.958   0.845
14992WAT      O45217   6.223   1.559   7.263
14992WAT     H145218   6.270   1.516   7.186
14992WAT     H245219   6.130   1.582   7.236
14993WAT      O45220   3.437   4.781   7.315
14993WAT     H145221   3.451   4.795   7.413
14993WAT     H245222   3.505   4.717   7.280
14994WAT      O45223   9.730   4.212   2.051
14994WAT     H145224   9.797   4.268   2.100
14994WAT     H245225   9.743   4.224   1.953
14995WAT      O45226   9.351   4.960   4.392
14995WAT     H145227   9.384   4.865   4.395
14995WAT     H245228   9.395   5.013   4.465
14996WAT      O45229   8.420   8.913   7.728
14996WAT     H145230   8.320   8.912   7.738
14996WAT     H245231   8.443   8.896   7.632
14997WAT      O45232   1.472   0.935   0.955
14997WAT     H145233   1.463   0.846   0.998
14997WAT     H245234   1.438   0.931   0.861
14998WAT      O45235   2.261   8.794   7.991
14998WAT     H145236   2.300   8.726   8.054
14998WAT     H245237   2.209   8.747   7.919
14999WAT      O45238   0.272   5.425   7.566
14999WAT     H145239   0.349   5.473   7.607
14999WAT     H245240   0.269   5.331   7.599
15000WAT      O45241   6.517   9.782   9.806
15000WAT     H145242   6.458   9.728   9.866
15000WAT     H245243   6.523   9.876   9.840
15001WAT      O45244   0.722   8.136   9.698
15001WAT     H145245   0.656   8.210   9.694
15001WAT     H245246   0.814   8.174   9.711
15002WAT      O45247   4.243   4.128   7.558
15002WAT     H145248   4.209   4.221   7.571
15002WAT     H245249   4.342   4.126   7.570
15003WAT      O45250   2.886   9.575   4.746
15003WAT     H145251   2.923   9.499   4.801
15003WAT     H245252   2.795   9.598   4.779
15004WAT      O45253   4.294   0.452   9.232
15004WAT     H145254   4.301   0.434   9.330
15004WAT     H245255   4.288   0.550   9.216
15005WAT      O45256   7.499   0.623   9.179
15005WAT     H145257   7.414   0.676   9.174
15005WAT     H245258   7.510   0.588   9.272
15006WAT      O45259   5.559   5.977   3.811
15006WAT     H145260   5.484   6.018   3.862
15006WAT     H245261   5.645   6.020   3.838
15007WAT      O45262   1.474   5.233   1.345
15007WAT     H145263   1.559   5.284   1.333
15007WAT     H245264   1.462   5.211   1.442
15008WAT      O45265   0.255   1.969   3.674
15008WAT     H145266   0.196   2.034   3.627
15008WAT     H245267   0.209   1.881   3.682
15009WAT      O45268   5.420   1.615   9.159
15009WAT     H145269   5.426   1.614   9.259
15009WAT     H245270   5.348   1.552   9.130
15010WAT      O45271   2.647   5.788   4.414
15010WAT     H145272   2.604   5.732   4.484
15010WAT     H245273   2.649   5.883   4.444
15011WAT      O45274   9.198   5.798   7.409
15011WAT     H145275   9.133   5.725   7.430
15011WAT     H245276   9.187   5.872   7.475
15012WAT      O45277   0.384   4.577   8.872
15012WAT     H145278   0.377   4.674   8.853
15012WAT     H245279   0.467   4.559   8.926
15013WAT      O45280   8.912   2.386   9.549
15013WAT     H145281   8.873   2.316   9.609
15013WAT     H245282   8.839   2.443   9.512
15014WAT      O45283   4.437   6.354   5.898
15014WAT     H145284   4.528   6.391   5.878
15014WAT     H245285   4.383   6.351   5.815
15015WAT      O45286   2.107   1.596   5.567
15015WAT     H145287   2.186   1.598   5.627
15015WAT     H245288   2.131   1.633   5.477
15016WAT      O45289   4.323   9.036   0.792
15016WAT     H145290   4.273   8.996   0.869
15016WAT     H245291   4.261   9.091   0.737
15017WAT      O45292   1.406   7.913   2.525
15017WAT     H145293   1.493   7.962   2.527
15017WAT     H245294   1.332   7.976   2.550
15018WAT      O45295   2.037   7.423   6.820
15018WAT     H145296   2.049   7.324   6.826
15018WAT     H245297   2.012   7.459   6.910
15019WAT      O45298   2.831   6.830   8.129
15019WAT     H145299   2.880   6.853   8.045
15019WAT     H245300   2.890   6.844   8.208
15020WAT      O45301   1.561   0.157   0.800
15020WAT     H145302   1.612   0.230   0.755
15020WAT     H245303   1.603   0.069   0.779
15021WAT      O45304   1.338   8.982   1.769
15021WAT     H145305   1.392   9.009   1.689
15021WAT     H245306   1.397   8.932   1.833
15022WAT      O45307   5.531   2.962   5.274
15022WAT     H145308   5.517   3.030   5.201
15022WAT     H245309   5.489   2.876   5.247
15023WAT      O45310   1.833   9.084   1.916
15023WAT     H145311   1.910   9.060   1.856
15023WAT     H245312   1.860   9.161   1.974
15024WAT      O45313   6.053   5.896   3.439
15024WAT     H145314   5.996   5.858   3.367
15024WAT     H245315   6.132   5.943   3.399
15025WAT      O45316   4.258   8.962   9.861
15025WAT     H145317   4.230   8.949   9.766
15025WAT     H245318   4.347   8.919   9.876
15026WAT      O45319   6.639   3.486   5.753
15026WAT     H145320   6.721   3.538   5.778
15026WAT     H245321   6.561   3.521   5.805
15027WAT      O45322   1.722   2.281   6.048
15027WAT     H145323   1.644   2.339   6.071
15027WAT     H245324   1.692   2.205   5.990
15028WAT      O45325   2.448   1.481   0.199
15028WAT     H145326   2.504   1.413   0.151
15028WAT     H245327   2.375   1.511   0.138
15029WAT      O45328   4.630   6.721   4.230
15029WAT     H145329   4.712   6.665   4.240
15029WAT     H245330   4.653   6.809   4.189
15030WAT      O45331   9.863   8.213   0.845
15030WAT     H145332   9.867   8.238   0.749
15030WAT     H245333   9.850   8.295   0.901
15031WAT      O45334   3.143   1.640   8.475
15031WAT     H145335   3.059   1.643   8.421
15031WAT     H245336   3.222   1.643   8.414
15032WAT      O45337   4.657   9.425   3.466
15032WAT     H145338   4.632   9.453   3.373
15032WAT     H245339   4.576   9.431   3.525
15033WAT      O45340   9.186   1.555   9.151
15033WAT     H145341   9.257   1.585   9.215
15033WAT     H245342   9.159   1.461   9.173
15034WAT      O45343   2.465   0.432   0.389
15034WAT     H145344   2.482   0.444   0.291
15034WAT     H245345   2.548   0.452   0.440
15035WAT      O45346   2.359   3.300   6.124
15035WAT     H145347   2.303   3.353   6.062
15035WAT     H245348   2.417   3.237   6.071
15036WAT      O45349   2.370   8.501   2.245
15036WAT     H145350   2.407   8.564   2.313
15036WAT     H245351   2.330   8.422   2.291
15037WAT      O45352   6.029   6.705   4.077
15037WAT     H145353   6.052   6.801   4.095
15037WAT     H245354   6.113   6.655   4.055
15038WAT      O45355   6.290   1.898   5.360
15038WAT     H145356   6.373   1.911   5.413
15038WAT     H245357   6.261   1.803   5.365
15039WAT      O45358   6.292   2.829   8.460
15039WAT     H145359   6.212   2.790   8.414
15039WAT     H245360   6.370   2.766   8.450
15040WAT      O45361   3.636   3.905   2.639
15040WAT     H145362   3.613   3.825   2.695
15040WAT     H245363   3.709   3.880   2.574
15041WAT      O45364   7.854   6.350   8.446
15041WAT     H145365   7.900   6.409   8.514
15041WAT     H245366   7.906   6.265   8.436
15042WAT      O45367   5.003   1.508   2.378
15042WAT     H145368   4.989   1.487   2.281
15042WAT     H245369   4.921   1.485   2.430
15043WAT      O45370   8.163   2.869   2.359
15043WAT     H145371   8.091   2.811   2.396
15043WAT     H245372   8.154   2.874   2.259
15044WAT      O45373   4.955   8.399   4.984
15044WAT     H145374   5.028   8.413   5.051
15044WAT     H245375   4.986   8.429   4.894
15045WAT      O45376   8.262   0.286   7.315
15045WAT     H145377   8.214   0.326   7.237
15045WAT     H245378   8.351   0.251   7.284
15046WAT      O45379   5.456   8.900   6.403
15046WAT     H145380   5.390   8.867   6.335
15046WAT     H245381   5.466   8.999   6.395
15047WAT      O45382   8.466   3.005   6.792
15047WAT     H145383   8.451   3.062   6.711
15047WAT     H245384   8.490   3.063   6.870
15048WAT      O45385   1.141   1.547   3.813
15048WAT     H145386   1.065   1.613   3.810
15048WAT     H245387   1.158   1.512   3.721
15049WAT      O45388   9.675   2.114   7.696
15049WAT     H145389   9.673   2.198   7.642
15049WAT     H245390   9.735   2.047   7.652
15050WAT      O45391   9.584   6.088   0.086
15050WAT     H145392   9.578   6.178   0.131
15050WAT     H245393   9.519   6.084   0.010
15051WAT      O45394   0.649   5.710   7.803
15051WAT     H145395   0.652   5.791   7.861
15051WAT     H245396   0.660   5.737   7.707
15052WAT      O45397   5.693   2.835   9.862
15052WAT     H145398   5.787   2.865   9.845
15052WAT     H245399   5.693   2.763   9.931
15053WAT      O45400   4.815   8.358   2.814
15053WAT     H145401   4.870   8.292   2.763
15053WAT     H245402   4.802   8.440   2.758
15054WAT      O45403   1.590   7.390   2.997
15054WAT     H145404   1.664   7.366   2.935
15054WAT     H245405   1.611   7.477   3.042
15055WAT      O45406   8.731   3.386   0.010
15055WAT     H145407   8.799   3.348  -0.053
15055WAT     H245408   8.641   3.383  -0.033
15056WAT      O45409   2.245   3.456   5.164
15056WAT     H145410   2.330   3.508   5.155
15056WAT     H245411   2.260   3.362   5.132
15057WAT      O45412   6.695   8.316   2.018
15057WAT     H145413   6.613   8.309   2.075
15057WAT     H245414   6.726   8.411   2.018
15058WAT      O45415   6.734   5.901   2.485
15058WAT     H145416   6.830   5.873   2.482
15058WAT     H245417   6.727   5.998   2.464
15059WAT      O45418   3.781   4.737   6.251
15059WAT     H145419   3.838   4.777   6.179
15059WAT     H245420   3.748   4.808   6.312
15060WAT      O45421   7.559   8.238   6.649
15060WAT     H145422   7.556   8.286   6.561
15060WAT     H245423   7.543   8.141   6.635
15061WAT      O45424   8.856   3.941   5.684
15061WAT     H145425   8.910   3.964   5.603
15061WAT     H245426   8.854   4.020   5.746
15062WAT      O45427   2.616   0.550   7.135
15062WAT     H145428   2.709   0.519   7.116
15062WAT     H245429   2.550   0.485   7.099
15063WAT      O45430   7.941   1.755   6.532
15063WAT     H145431   7.938   1.669   6.480
15063WAT     H245432   7.939   1.832   6.469
15064WAT      O45433   2.538   7.733   4.906
15064WAT     H145434   2.457   7.685   4.874
15064WAT     H245435   2.535   7.828   4.875
15065WAT      O45436   5.008   5.750   9.790
15065WAT     H145437   4.992   5.848   9.777
15065WAT     H245438   4.975   5.700   9.710
15066WAT      O45439   0.321   0.962   3.945
15066WAT     H145440   0.245   0.917   3.993
15066WAT     H245441   0.321   1.060   3.968
15067WAT      O45442   4.382   2.603   5.107
15067WAT     H145443   4.305   2.626   5.048
15067WAT     H245444   4.351   2.540   5.179
15068WAT      O45445   1.755   2.947   0.797
15068WAT     H145446   1.688   2.952   0.871
15068WAT     H245447   1.770   2.851   0.773
15069WAT      O45448   4.301   2.935   8.773
15069WAT     H145449   4.377   2.973   8.721
15069WAT     H245450   4.294   2.837   8.757
15070WAT      O45451   4.858   7.832   3.901
15070WAT     H145452   4.815   7.763   3.844
15070WAT     H245453   4.944   7.861   3.860
15071WAT      O45454   2.523   6.402   9.225
15071WAT     H145455   2.575   6.441   9.300
15071WAT     H245456   2.426   6.421   9.238
15072WAT      O45457   8.835   7.367   7.091
15072WAT     H145458   8.812   7.280   7.047
15072WAT     H245459   8.932   7.387   7.077
15073WAT      O45460   6.868   1.966   9.296
15073WAT     H145461   6.862   1.993   9.392
15073WAT     H245462   6.913   1.877   9.290
15074WAT      O45463   2.377   2.530   8.326
15074WAT     H145464   2.330   2.569   8.246
15074WAT     H245465   2.315   2.466   8.373
15075WAT      O45466   4.798   1.882   2.469
15075WAT     H145467   4.847   1.965   2.495
15075WAT     H245468   4.863   1.813   2.437
15076WAT      O45469   5.691   2.267   1.361
15076WAT     H145470   5.653   2.357   1.381
15076WAT     H245471   5.789   2.266   1.385
15077WAT      O45472   1.057   4.058   0.417
15077WAT     H145473   1.093   4.142   0.457
15077WAT     H245474   1.050   4.068   0.318
15078WAT      O45475   4.612   5.823   3.831
15078WAT     H145476   4.689   5.861   3.780
15078WAT     H245477   4.645   5.766   3.906
15079WAT      O45478   5.396   1.748   2.205
15079WAT     H145479   5.356   1.823   2.258
15079WAT     H245480   5.359   1.661   2.237
15080WAT      O45481   3.973   0.494   3.890
15080WAT     H145482   4.040   0.548   3.941
15080WAT     H245483   3.882   0.534   3.901
15081WAT      O45484   8.900   5.525   8.549
15081WAT     H145485   8.908   5.501   8.452
15081WAT     H245486   8.988   5.561   8.582
15082WAT      O45487   7.418   4.399   2.487
15082WAT     H145488   7.399   4.319   2.543
15082WAT     H245489   7.348   4.410   2.417
15083WAT      O45490   4.507   3.123   1.962
15083WAT     H145491   4.506   3.032   1.920
15083WAT     H245492   4.557   3.118   2.048
15084WAT      O45493   4.225   8.500   7.062
15084WAT     H145494   4.258   8.593   7.080
15084WAT     H245495   4.133   8.504   7.023
15085WAT      O45496   3.365   6.832   2.523
15085WAT     H145497   3.387   6.919   2.567
15085WAT     H245498   3.320   6.849   2.435
15086WAT      O45499   0.206   3.153   1.713
15086WAT     H145500   0.160   3.238   1.688
15086WAT     H245501   0.295   3.174   1.754
15087WAT      O45502   1.974   9.624   2.940
15087WAT     H145503   2.020   9.674   2.866
15087WAT     H245504   1.876   9.644   2.937
15088WAT      O45505   2.944   4.663   7.155
15088WAT     H145506   3.010   4.737   7.148
15088WAT     H245507   2.962   4.595   7.085
15089WAT      O45508   3.015   5.720   9.828
15089WAT     H145509   3.056   5.798   9.876
15089WAT     H245510   2.972   5.659   9.894
15090WAT      O45511   7.944   7.172   2.668
15090WAT     H145512   8.005   7.214   2.600
15090WAT     H245513   7.969   7.205   2.759
15091WAT      O45514   2.766   5.312   9.399
15091WAT     H145515   2.689   5.260   9.435
15091WAT     H245516   2.732   5.391   9.348
15092WAT      O45517   8.593   8.499   0.471
15092WAT     H145518   8.643   8.420   0.507
15092WAT     H245519   8.501   8.502   0.509
15093WAT      O45520   6.611   2.480   3.029
15093WAT     H145521   6.550   2.545   2.985
15093WAT     H245522   6.706   2.502   3.005
15094WAT      O45523   1.830   2.733   5.096
15094WAT     H145524   1.789   2.736   5.187
15094WAT     H245525   1.809   2.646   5.053
15095WAT      O45526   5.412   5.729   4.638
15095WAT     H145527   5.399   5.708   4.735
15095WAT     H245528   5.323   5.738   4.594
15096WAT      O45529   4.650   0.566   1.755
15096WAT     H145530   4.671   0.574   1.657
15096WAT     H245531   4.628   0.656   1.791
15097WAT      O45532   9.756   7.756   7.127
15097WAT     H145533   9.806   7.827   7.076
15097WAT     H245534   9.794   7.749   7.219
15098WAT      O45535   0.083   8.623   3.713
15098WAT     H145536   0.159   8.560   3.699
15098WAT     H245537   0.117   8.707   3.756
15099WAT      O45538   4.180   0.061   5.261
15099WAT     H145539   4.190  -0.028   5.306
15099WAT     H245540   4.105   0.057   5.195
15100WAT      O45541   2.594   0.330   2.332
15100WAT     H145542   2.671   0.386   2.301
15100WAT     H245543   2.630   0.250   2.381
15101WAT      O45544   1.183   8.585   4.842
15101WAT     H145545   1.140   8.675   4.849
15101WAT     H245546   1.274   8.588   4.884
15102WAT      O45547   3.758   3.491   9.027
15102WAT     H145548   3.720   3.421   8.966
15102WAT     H245549   3.784   3.571   8.974
15103WAT      O45550   4.247   6.576   5.508
15103WAT     H145551   4.250   6.561   5.409
15103WAT     H245552   4.307   6.651   5.533
15104WAT      O45553   9.273   0.229   1.467
15104WAT     H145554   9.216   0.253   1.545
15104WAT     H245555   9.309   0.312   1.424
15105WAT      O45556   7.816   0.761   8.849
15105WAT     H145557   7.855   0.737   8.938
15105WAT     H245558   7.717   0.766   8.855
15106WAT      O45559   7.817   3.658   8.705
15106WAT     H145560   7.776   3.605   8.779
15106WAT     H245561   7.748   3.680   8.636
15107WAT      O45562   4.264   4.471   4.040
15107WAT     H145563   4.208   4.553   4.051
15107WAT     H245564   4.213   4.392   4.074
15108WAT      O45565   3.492   6.266   6.396
15108WAT     H145566   3.579   6.267   6.446
15108WAT     H245567   3.492   6.191   6.330
15109WAT      O45568   1.917   0.140   8.230
15109WAT     H145569   1.974   0.179   8.303
15109WAT     H245570   1.965   0.064   8.187
15110WAT      O45571   2.658   9.089   9.257
15110WAT     H145572   2.640   9.185   9.233
15110WAT     H245573   2.747   9.062   9.221
15111WAT      O45574   0.418   1.268   9.791
15111WAT     H145575   0.500   1.277   9.734
15111WAT     H245576   0.372   1.356   9.798
15112WAT      O45577   9.872   2.525   1.617
15112WAT     H145578   9.864   2.557   1.522
15112WAT     H245579   9.951   2.464   1.625
15113WAT      O45580   1.497   4.404   0.464
15113WAT     H145581   1.443   4.475   0.510
15113WAT     H245582   1.439   4.326   0.443
15114WAT      O45583   9.844   0.950   6.501
15114WAT     H145584   9.784   1.004   6.560
15114WAT     H245585   9.929   0.931   6.549
15115WAT      O45586   7.185   3.796   3.492
15115WAT     H145587   7.111   3.856   3.464
15115WAT     H245588   7.170   3.704   3.454
15116WAT      O45589   0.658   1.860   9.454
15116WAT     H145590   0.583   1.882   9.391
15116WAT     H245591   0.741   1.841   9.401
15117WAT      O45592   3.381   9.676   2.337
15117WAT     H145593   3.351   9.604   2.399
15117WAT     H245594   3.387   9.763   2.387
15118WAT      O45595   9.286   9.571   7.980
15118WAT     H145596   9.385   9.586   7.982
15118WAT     H245597   9.252   9.564   8.073
15119WAT      O45598   1.750   7.470   3.556
15119WAT     H145599   1.672   7.514   3.602
15119WAT     H245600   1.786   7.531   3.486
15120WAT      O45601   6.928   1.599   2.281
15120WAT     H145602   6.923   1.601   2.181
15120WAT     H245603   6.839   1.626   2.320
15121WAT      O45604   0.334   8.830   1.737
15121WAT     H145605   0.302   8.824   1.831
15121WAT     H245606   0.410   8.895   1.732
15122WAT      O45607   3.994   6.501   5.624
15122WAT     H145608   3.936   6.478   5.545
15122WAT     H245609   4.081   6.539   5.591
15123WAT      O45610   7.646   6.035   9.424
15123WAT     H145611   7.557   6.063   9.460
15123WAT     H245612   7.646   6.042   9.324
15124WAT      O45613   7.725   7.123   9.526
15124WAT     H145614   7.791   7.169   9.585
15124WAT     H245615   7.765   7.038   9.492
15125WAT      O45616   6.636   6.577   3.940
15125WAT     H145617   6.586   6.633   3.874
15125WAT     H245618   6.582   6.496   3.962
15126WAT      O45619   3.845   7.546   0.558
15126WAT     H145620   3.796   7.588   0.634
15126WAT     H245621   3.938   7.522   0.588
15127WAT      O45622   0.768   3.743   2.681
15127WAT     H145623   0.712   3.714   2.759
15127WAT     H245624   0.858   3.701   2.687
15128WAT      O45625   1.036   4.120   3.794
15128WAT     H145626   1.080   4.209   3.809
15128WAT     H245627   1.085   4.050   3.847
15129WAT      O45628   8.131   1.234   6.751
15129WAT     H145629   8.115   1.321   6.706
15129WAT     H245630   8.177   1.172   6.688
15130WAT      O45631   9.006   6.270   0.841
15130WAT     H145632   9.093   6.227   0.819
15130WAT     H245633   9.015   6.323   0.926
15131WAT      O45634   5.727   2.310   7.350
15131WAT     H145635   5.781   2.230   7.326
15131WAT     H245636   5.686   2.296   7.441
15132WAT      O45637   1.063   8.764   5.195
15132WAT     H145638   0.975   8.716   5.190
15132WAT     H245639   1.126   8.711   5.252
15133WAT      O45640   1.470   0.385   4.192
15133WAT     H145641   1.497   0.431   4.107
15133WAT     H245642   1.425   0.451   4.252
15134WAT      O45643   0.745   4.256   9.167
15134WAT     H145644   0.819   4.278   9.230
15134WAT     H245645   0.665   4.311   9.188
15135WAT      O45646   3.095   8.057   4.310
15135WAT     H145647   3.037   7.975   4.309
15135WAT     H245648   3.174   8.040   4.368
15136WAT      O45649   1.849   7.975   8.903
15136WAT     H145650   1.782   7.995   8.975
15136WAT     H245651   1.897   7.890   8.925
15137WAT      O45652   2.926   2.876   6.381
15137WAT     H145653   2.969   2.815   6.448
15137WAT     H245654   2.963   2.968   6.392
15138WAT      O45655   0.761   6.600   8.996
15138WAT     H145656   0.766   6.549   9.082
15138WAT     H245657   0.675   6.651   8.992
15139WAT      O45658   4.904   4.619   8.507
15139WAT     H145659   4.836   4.692   8.513
15139WAT     H245660   4.952   4.625   8.419
15140WAT      O45661   3.036   3.266   5.841
15140WAT     H145662   3.046   3.280   5.940
15140WAT     H245663   2.996   3.348   5.800
15141WAT      O45664   8.590   0.297   4.101
15141WAT     H145665   8.585   0.201   4.131
15141WAT     H245666   8.551   0.305   4.010
15142WAT      O45667   2.687   2.883   1.447
15142WAT     H145668   2.657   2.897   1.542
15142WAT     H245669   2.784   2.904   1.440
15143WAT      O45670   7.138   2.205   4.150
15143WAT     H145671   7.062   2.149   4.183
15143WAT     H245672   7.109   2.300   4.139
15144WAT      O45673   9.335   4.333   6.628
15144WAT     H145674   9.325   4.267   6.702
15144WAT     H245675   9.363   4.421   6.666
15145WAT      O45676   2.046   4.283   0.805
15145WAT     H145677   2.080   4.195   0.771
15145WAT     H245678   2.101   4.312   0.884
15146WAT      O45679   5.053   5.941   8.076
15146WAT     H145680   5.057   6.005   8.153
15146WAT     H245681   5.114   5.863   8.093
15147WAT      O45682   6.800   5.658   7.284
15147WAT     H145683   6.757   5.749   7.290
15147WAT     H245684   6.824   5.638   7.190
15148WAT      O45685   3.005   1.907   9.199
15148WAT     H145686   2.980   1.935   9.106
15148WAT     H245687   3.079   1.841   9.196
15149WAT      O45688   1.705   5.225   9.499
15149WAT     H145689   1.691   5.189   9.407
15149WAT     H245690   1.764   5.163   9.550
15150WAT      O45691   5.966   8.442   4.476
15150WAT     H145692   5.969   8.379   4.399
15150WAT     H245693   5.875   8.483   4.483
15151WAT      O45694   6.164   5.329   8.212
15151WAT     H145695   6.188   5.248   8.265
15151WAT     H245696   6.239   5.353   8.151
15152WAT      O45697   3.861   8.462   1.824
15152WAT     H145698   3.783   8.512   1.785
15152WAT     H245699   3.843   8.364   1.818
15153WAT      O45700   6.353   8.738   1.017
15153WAT     H145701   6.358   8.830   1.055
15153WAT     H245702   6.426   8.726   0.950
15154WAT      O45703   7.780   3.830   2.780
15154WAT     H145704   7.813   3.898   2.714
15154WAT     H245705   7.727   3.760   2.732
15155WAT      O45706   1.625   7.089   7.519
15155WAT     H145707   1.601   6.991   7.518
15155WAT     H245708   1.541   7.143   7.508
15156WAT      O45709   4.593   1.218   4.919
15156WAT     H145710   4.531   1.271   4.861
15156WAT     H245711   4.597   1.124   4.887
15157WAT      O45712   3.108   4.738   9.284
15157WAT     H145713   3.066   4.827   9.265
15157WAT     H245714   3.127   4.691   9.198
15158WAT      O45715   9.736   4.548   3.637
15158WAT     H145716   9.775   4.616   3.700
15158WAT     H245717   9.676   4.486   3.688
15159WAT      O45718   8.213   0.135   7.946
15159WAT     H145719   8.208   0.196   8.025
15159WAT     H245720   8.305   0.139   7.907
15160WAT      O45721   3.145   0.602   5.042
15160WAT     H145722   3.217   0.619   4.974
15160WAT     H245723   3.132   0.504   5.052
15161WAT      O45724   0.340   6.376   6.378
15161WAT     H145725   0.399   6.311   6.425
15161WAT     H245726   0.244   6.349   6.390
15162WAT      O45727   1.421   7.997   9.400
15162WAT     H145728   1.360   7.976   9.477
15162WAT     H245729   1.440   7.913   9.349
15163WAT      O45730   7.553   1.391   4.730
15163WAT     H145731   7.588   1.316   4.786
15163WAT     H245732   7.453   1.392   4.736
15164WAT      O45733   7.455   2.466   4.975
15164WAT     H145734   7.483   2.388   5.032
15164WAT     H245735   7.357   2.481   4.986
15165WAT      O45736   1.343   2.036   8.014
15165WAT     H145737   1.271   2.038   8.083
15165WAT     H245738   1.321   2.101   7.942
15166WAT      O45739   6.325   5.845   8.234
15166WAT     H145740   6.350   5.918   8.171
15166WAT     H245741   6.284   5.769   8.182
15167WAT      O45742   9.045   4.257   4.136
15167WAT     H145743   9.032   4.246   4.038
15167WAT     H245744   9.037   4.169   4.182
15168WAT      O45745   0.497   7.032   3.321
15168WAT     H145746   0.593   7.010   3.307
15168WAT     H245747   0.461   7.082   3.242
15169WAT      O45748   4.005   6.599   2.745
15169WAT     H145749   3.959   6.638   2.825
15169WAT     H245750   4.076   6.536   2.776
15170WAT      O45751   2.962   0.616   3.247
15170WAT     H145752   2.957   0.520   3.217
15170WAT     H245753   3.050   0.633   3.290
15171WAT      O45754   6.678   5.847   9.643
15171WAT     H145755   6.738   5.768   9.662
15171WAT     H245756   6.671   5.861   9.545
15172WAT      O45757   2.774   4.896   2.192
15172WAT     H145758   2.749   4.826   2.125
15172WAT     H245759   2.804   4.852   2.277
15173WAT      O45760   8.184   2.525   5.614
15173WAT     H145761   8.140   2.540   5.703
15173WAT     H245762   8.142   2.585   5.546
15174WAT      O45763   9.172   3.932   8.943
15174WAT     H145764   9.159   3.985   8.859
15174WAT     H245765   9.110   3.966   9.014
15175WAT      O45766   3.600   1.360   1.616
15175WAT     H145767   3.644   1.417   1.686
15175WAT     H245768   3.545   1.289   1.661
15176WAT      O45769   8.303   7.516   5.181
15176WAT     H145770   8.260   7.453   5.116
15176WAT     H245771   8.390   7.477   5.212
15177WAT      O45772   1.084   0.810   1.558
15177WAT     H145773   1.073   0.724   1.508
15177WAT     H245774   1.051   0.886   1.501
15178WAT      O45775   4.267   0.862   7.055
15178WAT     H145776   4.220   0.950   7.054
15178WAT     H245777   4.265   0.822   6.963
15179WAT      O45778   0.673   8.085   4.300
15179WAT     H145779   0.630   8.033   4.226
15179WAT     H245780   0.699   8.176   4.266
15180WAT      O45781   5.347   7.061   5.713
15180WAT     H145782   5.394   6.978   5.681
15180WAT     H245783   5.341   7.060   5.812
15181WAT      O45784   4.248   9.705   3.787
15181WAT     H145785   4.195   9.694   3.703
15181WAT     H245786   4.295   9.793   3.786
15182WAT      O45787   6.025   2.843   3.345
15182WAT     H145788   5.991   2.909   3.278
15182WAT     H245789   5.951   2.817   3.407
15183WAT      O45790   7.428   9.183   9.117
15183WAT     H145791   7.345   9.205   9.169
15183WAT     H245792   7.459   9.265   9.068
15184WAT      O45793   3.413   9.662   6.108
15184WAT     H145794   3.314   9.652   6.107
15184WAT     H245795   3.439   9.749   6.064
15185WAT      O45796   4.439   3.592   3.159
15185WAT     H145797   4.506   3.667   3.152
15185WAT     H245798   4.348   3.626   3.136
15186WAT      O45799   0.107   9.191   4.148
15186WAT     H145800   0.110   9.269   4.211
15186WAT     H245801   0.160   9.116   4.186
15187WAT      O45802   4.281   2.803   3.428
15187WAT     H145803   4.245   2.896   3.419
15187WAT     H245804   4.309   2.787   3.523
15188WAT      O45805   5.881   8.894   6.354
15188WAT     H145806   5.815   8.964   6.327
15188WAT     H245807   5.931   8.925   6.434
15189WAT      O45808   6.394   6.907   8.093
15189WAT     H145809   6.361   7.001   8.099
15189WAT     H245810   6.323   6.849   8.052
15190WAT      O45811   8.108   6.706   5.913
15190WAT     H145812   8.080   6.796   5.882
15190WAT     H245813   8.155   6.713   6.001
15191WAT      O45814   2.259   4.599   6.250
15191WAT     H145815   2.278   4.565   6.158
15191WAT     H245816   2.202   4.532   6.298
15192WAT      O45817   4.788   7.985   2.080
15192WAT     H145818   4.830   7.983   2.171
15192WAT     H245819   4.794   7.895   2.038
15193WAT      O45820   4.694   6.969   8.803
15193WAT     H145821   4.606   6.922   8.804
15193WAT     H245822   4.717   6.999   8.896
15194WAT      O45823   0.183   2.380   1.184
15194WAT     H145824   0.138   2.444   1.122
15194WAT     H245825   0.282   2.387   1.172
15195WAT      O45826   2.161   6.347   7.942
15195WAT     H145827   2.132   6.273   7.881
15195WAT     H245828   2.260   6.339   7.959
15196WAT      O45829   5.949   0.716   9.590
15196WAT     H145830   6.047   0.696   9.593
15196WAT     H245831   5.933   0.810   9.622
15197WAT      O45832   8.960   3.725   7.804
15197WAT     H145833   8.890   3.670   7.850
15197WAT     H245834   9.001   3.788   7.870
15198WAT      O45835   9.652   6.722   4.929
15198WAT     H145836   9.644   6.766   4.839
15198WAT     H245837   9.704   6.782   4.990
15199WAT      O45838   3.212   4.701   5.780
15199WAT     H145839   3.151   4.742   5.848
15199WAT     H245840   3.306   4.702   5.814
15200WAT      O45841   7.174   4.605   8.340
15200WAT     H145842   7.218   4.678   8.393
15200WAT     H245843   7.161   4.635   8.246
15201WAT      O45844   9.759   2.530   0.895
15201WAT     H145845   9.701   2.486   0.963
15201WAT     H245846   9.767   2.471   0.814
15202WAT      O45847   1.894   6.003   2.114
15202WAT     H145848   1.816   6.028   2.055
15202WAT     H245849   1.971   6.063   2.094
15203WAT      O45850   5.389   5.357   4.642
15203WAT     H145851   5.371   5.401   4.554
15203WAT     H245852   5.418   5.426   4.708
15204WAT      O45853   1.926   7.459   7.046
15204WAT     H145854   1.891   7.374   7.085
15204WAT     H245855   1.916   7.533   7.113
15205WAT      O45856   9.148   9.626   4.453
15205WAT     H145857   9.120   9.621   4.357
15205WAT     H245858   9.151   9.722   4.482
15206WAT      O45859   3.841   4.559   7.380
15206WAT     H145860   3.920   4.614   7.351
15206WAT     H245861   3.801   4.598   7.463
15207WAT      O45862   5.407   6.115   6.751
15207WAT     H145863   5.371   6.201   6.715
15207WAT     H245864   5.335   6.045   6.750
15208WAT      O45865   8.077   1.662   0.124
15208WAT     H145866   8.020   1.693   0.048
15208WAT     H245867   8.069   1.726   0.200
15209WAT      O45868   7.493   4.930   1.201
15209WAT     H145869   7.449   5.020   1.192
15209WAT     H245870   7.469   4.890   1.289
15210WAT      O45871   4.927   0.709   1.593
15210WAT     H145872   4.841   0.667   1.564
15210WAT     H245873   4.921   0.808   1.581
15211WAT      O45874   5.306   5.331   6.354
15211WAT     H145875   5.351   5.352   6.267
15211WAT     H245876   5.207   5.334   6.341
15212WAT      O45877   1.085   6.711   6.460
15212WAT     H145878   1.171   6.665   6.436
15212WAT     H245879   1.008   6.648   6.443
15213WAT      O45880   3.652   3.496   5.641
15213WAT     H145881   3.736   3.548   5.653
15213WAT     H245882   3.628   3.451   5.727
15214WAT      O45883   3.853   2.139   0.510
15214WAT     H145884   3.782   2.209   0.527
15214WAT     H245885   3.880   2.098   0.597
15215WAT      O45886   3.128   3.304   7.772
15215WAT     H145887   3.172   3.378   7.822
15215WAT     H245888   3.035   3.331   7.748
15216WAT      O45889   3.921   4.197   1.979
15216WAT     H145890   3.851   4.146   1.929
15216WAT     H245891   3.991   4.133   2.011
15217WAT      O45892   8.735   0.764   8.095
15217WAT     H145893   8.708   0.859   8.080
15217WAT     H245894   8.666   0.703   8.056
15218WAT      O45895   3.684   3.984   4.428
15218WAT     H145896   3.667   4.069   4.478
15218WAT     H245897   3.745   4.002   4.351
15219WAT      O45898   4.052   4.215   5.810
15219WAT     H145899   4.063   4.292   5.747
15219WAT     H245900   4.107   4.138   5.777
15220WAT      O45901   0.841   6.251   0.096
15220WAT     H145902   0.761   6.306   0.122
15220WAT     H245903   0.855   6.179   0.164
15221WAT      O45904   3.968   4.450   2.771
15221WAT     H145905   3.919   4.537   2.765
15221WAT     H245906   3.967   4.418   2.866
15222WAT      O45907   0.671   2.032   1.710
15222WAT     H145908   0.638   2.116   1.753
15222WAT     H245909   0.596   1.988   1.660
15223WAT      O45910   8.108   3.826   1.982
15223WAT     H145911   8.012   3.811   1.961
15223WAT     H245912   8.117   3.899   2.049
15224WAT      O45913   6.404   4.883   7.707
15224WAT     H145914   6.317   4.853   7.745
15224WAT     H245915   6.394   4.976   7.671
15225WAT      O45916   3.729   4.029   7.299
15225WAT     H145917   3.817   4.070   7.272
15225WAT     H245918   3.705   4.060   7.391
15226WAT      O45919   2.623   8.860   3.967
15226WAT     H145920   2.599   8.774   3.923
15226WAT     H245921   2.688   8.911   3.909
15227WAT      O45922   5.067   8.545   5.695
15227WAT     H145923   5.135   8.482   5.733
15227WAT     H245924   5.039   8.610   5.767
15228WAT      O45925   0.961   0.709   2.222
15228WAT     H145926   0.920   0.625   2.186
15228WAT     H245927   1.015   0.688   2.303
15229WAT      O45928   1.462   0.714   8.662
15229WAT     H145929   1.478   0.627   8.709
15229WAT     H245930   1.465   0.699   8.563
15230WAT      O45931   6.641   2.255   0.324
15230WAT     H145932   6.680   2.180   0.378
15230WAT     H245933   6.667   2.342   0.364
15231WAT      O45934   6.416   3.665   6.434
15231WAT     H145935   6.411   3.752   6.385
15231WAT     H245936   6.504   3.622   6.417
15232WAT      O45937   9.344   3.185   0.185
15232WAT     H145938   9.378   3.124   0.256
15232WAT     H245939   9.413   3.195   0.114
15233WAT      O45940   5.999   0.526   3.623
15233WAT     H145941   5.914   0.552   3.669
15233WAT     H245942   6.025   0.434   3.652
15234WAT      O45943   0.235   5.183   5.417
15234WAT     H145944   0.276   5.197   5.327
15234WAT     H245945   0.290   5.230   5.486
15235WAT      O45946   8.431   8.581   0.033
15235WAT     H145947   8.479   8.499   0.065
15235WAT     H245948   8.443   8.655   0.100
15236WAT      O45949   6.974   2.785   1.454
15236WAT     H145950   7.037   2.859   1.478
15236WAT     H245951   6.886   2.801   1.497
15237WAT      O45952   2.122   3.232   8.814
15237WAT     H145953   2.196   3.167   8.794
15237WAT     H245954   2.076   3.205   8.899
15238WAT      O45955   9.856   3.635   2.488
15238WAT     H145956   9.943   3.593   2.512
15238WAT     H245957   9.790   3.563   2.466
15239WAT      O45958   0.678   5.033   2.811
15239WAT     H145959   0.684   4.934   2.811
15239WAT     H245960   0.754   5.071   2.758
15240WAT      O45961   6.924   5.863   2.222
15240WAT     H145962   6.952   5.860   2.318
15240WAT     H245963   6.859   5.938   2.208
15241WAT      O45964   6.434   7.889   9.763
15241WAT     H145965   6.517   7.916   9.714
15241WAT     H245966   6.435   7.929   9.854
15242WAT      O45967   3.598   2.621   1.657
15242WAT     H145968   3.628   2.713   1.634
15242WAT     H245969   3.623   2.558   1.583
15243WAT      O45970   5.699   1.539   1.906
15243WAT     H145971   5.741   1.629   1.909
15243WAT     H245972   5.641   1.532   1.825
15244WAT      O45973   5.228   7.633   5.250
15244WAT     H145974   5.312   7.639   5.196
15244WAT     H245975   5.250   7.596   5.341
15245WAT      O45976   6.424   8.347   0.204
15245WAT     H145977   6.346   8.284   0.211
15245WAT     H245978   6.463   8.341   0.112
15246WAT      O45979   4.640   7.344   2.379
15246WAT     H145980   4.674   7.254   2.353
15246WAT     H245981   4.716   7.408   2.385
15247WAT      O45982   3.602   7.668   7.847
15247WAT     H145983   3.677   7.724   7.882
15247WAT     H245984   3.591   7.587   7.905
15248WAT      O45985   8.301   6.684   4.043
15248WAT     H145986   8.230   6.753   4.029
15248WAT     H245987   8.344   6.699   4.132
15249WAT      O45988   3.259   5.922   2.852
15249WAT     H145989   3.198   5.969   2.789
15249WAT     H245990   3.270   5.978   2.935
15250WAT      O45991   9.665   3.510   7.747
15250WAT     H145992   9.571   3.518   7.712
15250WAT     H245993   9.711   3.433   7.702
15251WAT      O45994   2.051   4.428   7.470
15251WAT     H145995   1.968   4.442   7.417
15251WAT     H245996   2.048   4.338   7.514
15252WAT      O45997   3.689   2.859   1.312
15252WAT     H145998   3.643   2.842   1.225
15252WAT     H245999   3.627   2.909   1.373
15253WAT      O46000   6.402   1.300   8.773
15253WAT     H146001   6.330   1.234   8.791
15253WAT     H246002   6.482   1.252   8.736
15254WAT      O46003   1.129   6.373   3.094
15254WAT     H146004   1.224   6.343   3.104
15254WAT     H246005   1.111   6.396   2.998
15255WAT      O46006   1.693   9.715   2.055
15255WAT     H146007   1.692   9.780   2.131
15255WAT     H246008   1.612   9.656   2.060
15256WAT      O46009   4.386   7.955   4.860
15256WAT     H146010   4.440   7.946   4.944
15256WAT     H246011   4.411   7.883   4.796
15257WAT      O46012   6.416   2.756   0.802
15257WAT     H146013   6.508   2.795   0.802
15257WAT     H246014   6.400   2.707   0.717
15258WAT      O46015   2.002   0.333   1.391
15258WAT     H146016   1.967   0.241   1.409
15258WAT     H246017   2.054   0.331   1.305
15259WAT      O46018   9.009   2.668   8.743
15259WAT     H146019   8.994   2.580   8.698
15259WAT     H246020   8.963   2.740   8.691
15260WAT      O46021   3.349   6.867   1.675
15260WAT     H146022   3.420   6.802   1.700
15260WAT     H246023   3.389   6.943   1.623
15261WAT      O46024   2.818   2.462   9.501
15261WAT     H146025   2.738   2.521   9.490
15261WAT     H246026   2.805   2.378   9.450
15262WAT      O46027   0.396   2.089   7.877
15262WAT     H146028   0.490   2.120   7.859
15262WAT     H246029   0.337   2.117   7.802
15263WAT      O46030   6.145   5.341   3.705
15263WAT     H146031   6.089   5.424   3.702
15263WAT     H246032   6.149   5.306   3.798
15264WAT      O46033   1.395   0.451   8.442
15264WAT     H146034   1.484   0.430   8.483
15264WAT     H246035   1.405   0.530   8.381
15265WAT      O46036   3.650   9.525   5.639
15265WAT     H146037   3.570   9.567   5.683
15265WAT     H246038   3.723   9.513   5.706
15266WAT      O46039   6.479   1.774   8.425
15266WAT     H146040   6.415   1.852   8.428
15266WAT     H246041   6.543   1.786   8.350
15267WAT      O46042   1.447   9.060   0.869
15267WAT     H146043   1.455   9.082   0.772
15267WAT     H246044   1.539   9.051   0.909
15268WAT      O46045   6.058   2.895   6.351
15268WAT     H146046   6.090   2.960   6.419
15268WAT     H246047   6.137   2.856   6.303
15269WAT      O46048   3.401   9.094   5.372
15269WAT     H146049   3.354   9.147   5.301
15269WAT     H246050   3.396   9.143   5.459
15270WAT      O46051   8.252   2.428   6.505
15270WAT     H146052   8.324   2.360   6.508
15270WAT     H246053   8.292   2.519   6.496
15271WAT      O46054   6.980   0.881   0.436
15271WAT     H146055   7.048   0.932   0.382
15271WAT     H246056   7.021   0.849   0.521
15272WAT      O46057   1.193   0.957   2.737
15272WAT     H146058   1.135   1.030   2.774
15272WAT     H246059   1.246   0.915   2.811
15273WAT      O46060   3.189   8.587   8.859
15273WAT     H146061   3.235   8.671   8.829
15273WAT     H246062   3.125   8.557   8.787
15274WAT      O46063   0.624   0.863   9.654
15274WAT     H146064   0.678   0.780   9.665
15274WAT     H246065   0.664   0.937   9.707
15275WAT      O46066   3.444   0.280   4.643
15275WAT     H146067   3.485   0.205   4.695
15275WAT     H246068   3.492   0.290   4.556
15276WAT      O46069   5.709   9.622   4.904
15276WAT     H146070   5.672   9.616   4.812
15276WAT     H246071   5.710   9.717   4.934
15277WAT      O46072   1.239   6.164   6.047
15277WAT     H146073   1.243   6.079   5.994
15277WAT     H246074   1.331   6.197   6.064
15278WAT      O46075   1.132   4.581   2.670
15278WAT     H146076   1.102   4.520   2.744
15278WAT     H246077   1.226   4.558   2.645
15279WAT      O46078   8.369   4.505   5.488
15279WAT     H146079   8.327   4.588   5.523
15279WAT     H246080   8.431   4.468   5.557
15280WAT      O46081   7.407   7.701   6.462
15280WAT     H146082   7.426   7.671   6.555
15280WAT     H246083   7.384   7.622   6.405
15281WAT      O46084   5.442   3.678   9.376
15281WAT     H146085   5.378   3.672   9.452
15281WAT     H246086   5.406   3.740   9.307
15282WAT      O46087   1.735   8.715   6.256
15282WAT     H146088   1.835   8.715   6.244
15282WAT     H246089   1.712   8.759   6.343
15283WAT      O46090   0.451   1.806   0.153
15283WAT     H146091   0.530   1.744   0.157
15283WAT     H246092   0.429   1.838   0.245
15284WAT      O46093   7.317   1.002   4.012
15284WAT     H146094   7.405   1.045   3.993
15284WAT     H246095   7.264   1.059   4.075
15285WAT      O46096   3.387   5.941   5.776
15285WAT     H146097   3.338   6.017   5.818
15285WAT     H246098   3.480   5.970   5.753
15286WAT      O46099   5.024   3.216   9.216
15286WAT     H146100   5.039   3.244   9.311
15286WAT     H246101   5.112   3.213   9.168
15287WAT      O46102   4.429   5.443   2.519
15287WAT     H146103   4.364   5.400   2.582
15287WAT     H246104   4.518   5.452   2.565
15288WAT      O46105   4.965   4.626   9.305
15288WAT     H146106   4.895   4.691   9.337
15288WAT     H246107   5.040   4.677   9.264
15289WAT      O46108   5.423   6.220   0.012
15289WAT     H146109   5.387   6.227  -0.081
15289WAT     H246110   5.358   6.171   0.069
15290WAT      O46111   3.231   9.162   8.862
15290WAT     H146112   3.221   9.229   8.789
15290WAT     H246113   3.329   9.147   8.881
15291WAT      O46114   2.237   9.550   7.299
15291WAT     H146115   2.307   9.481   7.316
15291WAT     H246116   2.270   9.616   7.231
15292WAT      O46117   3.620   4.250   5.389
15292WAT     H146118   3.586   4.200   5.468
15292WAT     H246119   3.542   4.282   5.334
15293WAT      O46120   8.497   5.937   3.203
15293WAT     H146121   8.593   5.926   3.231
15293WAT     H246122   8.487   6.024   3.154
15294WAT      O46123   5.471   9.467   9.843
15294WAT     H146124   5.477   9.370   9.819
15294WAT     H246125   5.562   9.502   9.865
15295WAT      O46126   0.098   4.760   2.626
15295WAT     H146127   0.061   4.778   2.535
15295WAT     H246128   0.167   4.829   2.648
15296WAT      O46129   7.963   3.147   6.909
15296WAT     H146130   7.921   3.184   6.826
15296WAT     H246131   7.898   3.085   6.954
15297WAT      O46132   3.258   3.717   7.753
15297WAT     H146133   3.186   3.720   7.822
15297WAT     H246134   3.345   3.692   7.796
15298WAT      O46135   7.669   5.217   7.935
15298WAT     H146136   7.680   5.316   7.931
15298WAT     H246137   7.577   5.192   7.904
15299WAT      O46138   2.250   4.486   5.385
15299WAT     H146139   2.182   4.422   5.348
15299WAT     H246140   2.333   4.436   5.408
15300WAT      O46141   6.433   1.074   4.247
15300WAT     H146142   6.456   1.126   4.165
15300WAT     H246143   6.465   1.123   4.328
15301WAT      O46144   5.271   9.702   2.513
15301WAT     H146145   5.206   9.649   2.567
15301WAT     H246146   5.343   9.739   2.573
15302WAT      O46147   6.656   2.302   7.502
15302WAT     H146148   6.738   2.293   7.446
15302WAT     H246149   6.656   2.390   7.548
15303WAT      O46150   9.125   6.041   8.483
15303WAT     H146151   9.143   6.082   8.394
15303WAT     H246152   9.151   6.105   8.555
15304WAT      O46153   8.702   3.731   5.639
15304WAT     H146154   8.746   3.821   5.643
15304WAT     H246155   8.772   3.660   5.641
15305WAT      O46156   3.444   4.792   7.986
15305WAT     H146157   3.388   4.805   8.068
15305WAT     H246158   3.538   4.821   8.006
15306WAT      O46159   9.539   8.617   3.196
15306WAT     H146160   9.551   8.518   3.207
15306WAT     H246161   9.612   8.654   3.139
15307WAT      O46162   9.228   0.577   9.493
15307WAT     H146163   9.231   0.654   9.557
15307WAT     H246164   9.321   0.547   9.472
15308WAT      O46165   0.959   3.866   6.199
15308WAT     H146166   0.885   3.912   6.151
15308WAT     H246167   0.986   3.784   6.148
15309WAT      O46168   2.355   2.835   0.537
15309WAT     H146169   2.328   2.774   0.612
15309WAT     H246170   2.441   2.880   0.560
15310WAT      O46171   8.531   8.958   8.763
15310WAT     H146172   8.443   9.007   8.769
15310WAT     H246173   8.514   8.859   8.764
15311WAT      O46174   4.595   7.675   9.663
15311WAT     H146175   4.540   7.642   9.739
15311WAT     H246176   4.539   7.675   9.579
15312WAT      O46177   0.467   3.498   3.215
15312WAT     H146178   0.424   3.504   3.125
15312WAT     H246179   0.552   3.550   3.216
15313WAT      O46180   6.507   3.107   2.396
15313WAT     H146181   6.454   3.082   2.315
15313WAT     H246182   6.507   3.031   2.461
15314WAT      O46183   1.245   9.124   3.933
15314WAT     H146184   1.146   9.141   3.941
15314WAT     H246185   1.263   9.071   3.850
15315WAT      O46186   8.529   4.042   5.737
15315WAT     H146187   8.505   4.078   5.647
15315WAT     H246188   8.493   3.949   5.746
15316WAT      O46189   6.028   2.676   9.871
15316WAT     H146190   5.970   2.739   9.820
15316WAT     H246191   6.098   2.638   9.811
15317WAT      O46192   6.103   5.175   4.560
15317WAT     H146193   6.034   5.163   4.489
15317WAT     H246194   6.118   5.272   4.576
15318WAT      O46195   7.076   9.655   5.095
15318WAT     H146196   7.112   9.566   5.123
15318WAT     H246197   6.995   9.676   5.150
15319WAT      O46198   1.616   0.363   0.654
15319WAT     H146199   1.583   0.348   0.561
15319WAT     H246200   1.563   0.436   0.698
15320WAT      O46201   8.937   3.118   8.255
15320WAT     H146202   8.842   3.100   8.283
15320WAT     H246203   8.972   3.039   8.204
15321WAT      O46204   4.401   8.817   8.475
15321WAT     H146205   4.303   8.801   8.464
15321WAT     H246206   4.447   8.730   8.495
15322WAT      O46207   1.849   9.464   3.599
15322WAT     H146208   1.815   9.370   3.603
15322WAT     H246209   1.833   9.509   3.686
15323WAT      O46210   8.006   8.870   4.591
15323WAT     H146211   7.957   8.833   4.670
15323WAT     H246212   8.085   8.924   4.623
15324WAT      O46213   4.694   0.169   5.255
15324WAT     H146214   4.783   0.134   5.227
15324WAT     H246215   4.622   0.111   5.216
15325WAT      O46216   8.340   1.343   9.565
15325WAT     H146217   8.269   1.381   9.507
15325WAT     H246218   8.428   1.385   9.542
15326WAT      O46219   5.103   1.186   6.843
15326WAT     H146220   5.096   1.272   6.893
15326WAT     H246221   5.149   1.201   6.756
15327WAT      O46222   3.491   9.180   2.933
15327WAT     H146223   3.586   9.169   2.961
15327WAT     H246224   3.483   9.166   2.835
15328WAT      O46225   7.036   6.236   3.244
15328WAT     H146226   7.077   6.232   3.335
15328WAT     H246227   7.065   6.157   3.190
15329WAT      O46228   8.168   5.874   8.644
15329WAT     H146229   8.118   5.830   8.718
15329WAT     H246230   8.263   5.841   8.644
15330WAT      O46231   1.809   0.585   3.975
15330WAT     H146232   1.820   0.569   4.073
15330WAT     H246233   1.824   0.499   3.926
15331WAT      O46234   6.345   9.190   0.241
15331WAT     H146235   6.266   9.197   0.181
15331WAT     H246236   6.396   9.107   0.221
15332WAT      O46237   6.384   9.757   2.243
15332WAT     H146238   6.421   9.687   2.182
15332WAT     H246239   6.290   9.732   2.269
15333WAT      O46240   3.826   9.250   8.996
15333WAT     H146241   3.910   9.230   8.947
15333WAT     H246242   3.770   9.314   8.943
15334WAT      O46243   8.828   4.038   0.079
15334WAT     H146244   8.789   3.954   0.117
15334WAT     H246245   8.855   4.021  -0.016
15335WAT      O46246   4.161   6.094   8.658
15335WAT     H146247   4.154   6.189   8.690
15335WAT     H246248   4.151   6.091   8.559
15336WAT      O46249   4.349   2.736   3.688
15336WAT     H146250   4.329   2.679   3.767
15336WAT     H246251   4.433   2.788   3.705
15337WAT      O46252   5.161   4.378   5.141
15337WAT     H146253   5.261   4.386   5.138
15337WAT     H246254   5.122   4.415   5.056
15338WAT      O46255   6.936   1.583   0.690
15338WAT     H146256   6.936   1.517   0.614
15338WAT     H246257   6.906   1.672   0.656
15339WAT      O46258   4.553   3.687   0.014
15339WAT     H146259   4.640   3.698   0.063
15339WAT     H246260   4.500   3.614   0.057
15340WAT      O46261   5.945   4.796   2.785
15340WAT     H146262   5.964   4.718   2.844
15340WAT     H246263   5.891   4.767   2.706
15341WAT      O46264   0.379   4.579   3.930
15341WAT     H146265   0.328   4.558   4.013
15341WAT     H246266   0.471   4.608   3.954
15342WAT      O46267   1.622   8.205   3.968
15342WAT     H146268   1.613   8.108   3.947
15342WAT     H246269   1.696   8.244   3.914
15343WAT      O46270   9.632   8.314   8.514
15343WAT     H146271   9.601   8.341   8.606
15343WAT     H246272   9.665   8.394   8.465
15344WAT      O46273   6.933   6.480   4.208
15344WAT     H146274   6.895   6.557   4.157
15344WAT     H246275   7.033   6.486   4.208
15345WAT      O46276   8.280   9.349   7.269
15345WAT     H146277   8.267   9.425   7.333
15345WAT     H246278   8.322   9.272   7.317
15346WAT      O46279   6.476   4.514   3.118
15346WAT     H146280   6.439   4.445   3.181
15346WAT     H246281   6.488   4.600   3.167
15347WAT      O46282   6.436   0.868   0.168
15347WAT     H146283   6.501   0.803   0.207
15347WAT     H246284   6.482   0.955   0.151
15348WAT      O46285   3.010   0.841   5.738
15348WAT     H146286   3.077   0.775   5.706
15348WAT     H246287   3.053   0.930   5.750
15349WAT      O46288   2.524   3.909   6.282
15349WAT     H146289   2.597   3.900   6.215
15349WAT     H246290   2.446   3.852   6.255
15350WAT      O46291   8.545   1.923   2.108
15350WAT     H146292   8.590   1.941   2.020
15350WAT     H246293   8.446   1.934   2.098
15351WAT      O46294   7.352   3.193   7.413
15351WAT     H146295   7.411   3.245   7.351
15351WAT     H246296   7.370   3.221   7.507
15352WAT      O46297   3.722   4.485   5.828
15352WAT     H146298   3.788   4.531   5.887
15352WAT     H246299   3.708   4.540   5.745
15353WAT      O46300   5.064   0.547   4.884
15353WAT     H146301   4.973   0.514   4.860
15353WAT     H246302   5.099   0.604   4.809
15354WAT      O46303   8.820   3.854   3.916
15354WAT     H146304   8.912   3.892   3.905
15354WAT     H246305   8.821   3.783   3.986
15355WAT      O46306   0.257   1.665   7.063
15355WAT     H146307   0.260   1.760   7.092
15355WAT     H246308   0.172   1.623   7.094
15356WAT      O46309   5.221   0.312   6.470
15356WAT     H146310   5.170   0.392   6.439
15356WAT     H246311   5.313   0.339   6.497
15357WAT      O46312   3.094   6.525   9.776
15357WAT     H146313   3.007   6.537   9.728
15357WAT     H246314   3.094   6.437   9.822
15358WAT      O46315   3.056   8.938   8.858
15358WAT     H146316   3.052   8.951   8.759
15358WAT     H246317   3.141   8.975   8.894
15359WAT      O46318   2.617   6.671   2.601
15359WAT     H146319   2.645   6.760   2.638
15359WAT     H246320   2.519   6.658   2.616
15360WAT      O46321   9.710   5.890   1.731
15360WAT     H146322   9.620   5.852   1.751
15360WAT     H246323   9.745   5.938   1.812
15361WAT      O46324   4.586   1.177   6.006
15361WAT     H146325   4.569   1.092   5.956
15361WAT     H246326   4.509   1.240   5.992
15362WAT      O46327   3.709   6.123   6.130
15362WAT     H146328   3.628   6.080   6.170
15362WAT     H246329   3.727   6.210   6.176
15363WAT      O46330   2.422   0.125   0.633
15363WAT     H146331   2.505   0.124   0.577
15363WAT     H246332   2.364   0.048   0.608
15364WAT      O46333   1.511   0.629   1.737
15364WAT     H146334   1.449   0.614   1.814
15364WAT     H246335   1.479   0.706   1.682
15365WAT      O46336   3.991   2.960   6.005
15365WAT     H146337   3.993   2.872   6.052
15365WAT     H246338   3.928   2.955   5.927
15366WAT      O46339   3.662   5.201   0.223
15366WAT     H146340   3.717   5.195   0.140
15366WAT     H246341   3.696   5.135   0.290
15367WAT      O46342   4.797   1.416   2.544
15367WAT     H146343   4.793   1.318   2.566
15367WAT     H246344   4.761   1.468   2.621
15368WAT      O46345   6.885   9.181   6.424
15368WAT     H146346   6.974   9.137   6.438
15368WAT     H246347   6.895   9.257   6.361
15369WAT      O46348   2.321   7.786   1.787
15369WAT     H146349   2.313   7.703   1.732
15369WAT     H246350   2.258   7.781   1.864
15370WAT      O46351   9.607   8.994   6.048
15370WAT     H146352   9.575   9.079   6.006
15370WAT     H246353   9.545   8.969   6.123
15371WAT      O46354   7.042   8.997   3.940
15371WAT     H146355   6.946   8.971   3.942
15371WAT     H246356   7.093   8.935   3.881
15372WAT      O46357   8.295   6.095   1.407
15372WAT     H146358   8.382   6.086   1.455
15372WAT     H246359   8.307   6.067   1.312
15373WAT      O46360   3.834   1.465   2.178
15373WAT     H146361   3.806   1.426   2.266
15373WAT     H246362   3.823   1.398   2.106
15374WAT      O46363   8.164   4.337   9.632
15374WAT     H146364   8.182   4.239   9.630
15374WAT     H246365   8.164   4.369   9.726
15375WAT      O46366   6.700   4.648   0.528
15375WAT     H146367   6.658   4.708   0.461
15375WAT     H246368   6.738   4.702   0.603
15376WAT      O46369   7.342   7.637   0.954
15376WAT     H146370   7.399   7.664   0.877
15376WAT     H246371   7.283   7.713   0.980
15377WAT      O46372   9.536   1.739   0.684
15377WAT     H146373   9.557   1.692   0.599
15377WAT     H246374   9.546   1.838   0.671
15378WAT      O46375   9.725   8.949   1.910
15378WAT     H146376   9.762   9.014   1.844
15378WAT     H246377   9.664   8.997   1.974
15379WAT      O46378   5.860   4.835   7.611
15379WAT     H146379   5.924   4.767   7.648
15379WAT     H246380   5.843   4.906   7.679
15380WAT      O46381   0.409   7.691   9.574
15380WAT     H146382   0.392   7.608   9.627
15380WAT     H246383   0.507   7.708   9.569
15381WAT      O46384   6.439   3.449   1.398
15381WAT     H146385   6.460   3.468   1.302
15381WAT     H246386   6.465   3.528   1.454
15382WAT      O46387   3.097   8.845   7.402
15382WAT     H146388   3.152   8.792   7.466
15382WAT     H246389   3.152   8.868   7.321
15383WAT      O46390   9.691   7.611   4.910
15383WAT     H146391   9.654   7.699   4.940
15383WAT     H246392   9.791   7.618   4.904
15384WAT      O46393   4.118   3.301   9.062
15384WAT     H146394   4.201   3.253   9.033
15384WAT     H246395   4.102   3.285   9.159
15385WAT      O46396   3.080   4.031   8.889
15385WAT     H146397   3.109   4.000   8.980
15385WAT     H246398   3.011   3.969   8.853
15386WAT      O46399   7.436   0.073   5.245
15386WAT     H146400   7.441  -0.024   5.219
15386WAT     H246401   7.366   0.084   5.316
15387WAT      O46402   6.008   4.284   8.946
15387WAT     H146403   6.035   4.308   9.040
15387WAT     H246404   5.917   4.321   8.928
15388WAT      O46405   0.708   1.570   9.790
15388WAT     H146406   0.652   1.605   9.715
15388WAT     H246407   0.795   1.618   9.792
15389WAT      O46408   7.043   7.641   1.337
15389WAT     H146409   6.973   7.616   1.404
15389WAT     H246410   7.129   7.661   1.384
15390WAT      O46411   0.945   3.595   2.278
15390WAT     H146412   0.876   3.525   2.257
15390WAT     H246413   0.997   3.567   2.358
15391WAT      O46414   8.001   8.113   1.785
15391WAT     H146415   8.064   8.187   1.808
15391WAT     H246416   7.963   8.128   1.694
15392WAT      O46417   1.047   4.039   0.128
15392WAT     H146418   1.080   3.997   0.044
15392WAT     H246419   0.952   4.067   0.115
15393WAT      O46420   4.132   5.762   1.073
15393WAT     H146421   4.231   5.767   1.070
15393WAT     H246422   4.104   5.682   1.125
15394WAT      O46423   9.737   1.273   1.483
15394WAT     H146424   9.715   1.203   1.551
15394WAT     H246425   9.834   1.265   1.458
15395WAT      O46426   5.357   8.006   4.914
15395WAT     H146427   5.323   7.928   4.965
15395WAT     H246428   5.457   8.010   4.921
15396WAT      O46429   4.201   0.250   2.365
15396WAT     H146430   4.159   0.162   2.344
15396WAT     H246431   4.202   0.306   2.282
15397WAT      O46432   7.770   5.966   0.914
15397WAT     H146433   7.790   5.941   0.819
15397WAT     H246434   7.855   5.985   0.963
15398WAT      O46435   9.502   8.844   7.487
15398WAT     H146436   9.418   8.792   7.504
15398WAT     H246437   9.511   8.916   7.556
15399WAT      O46438   5.335   6.947   0.291
15399WAT     H146439   5.434   6.936   0.293
15399WAT     H246440   5.307   6.985   0.203
15400WAT      O46441   7.280   0.097   5.914
15400WAT     H146442   7.317   0.110   5.822
15400WAT     H246443   7.330   0.154   5.979
15401WAT      O46444   0.856   5.255   1.287
15401WAT     H146445   0.831   5.337   1.338
15401WAT     H246446   0.774   5.198   1.275
15402WAT      O46447   1.358   9.726   4.629
15402WAT     H146448   1.361   9.627   4.644
15402WAT     H246449   1.427   9.770   4.687
15403WAT      O46450   2.625   2.054   7.302
15403WAT     H146451   2.556   2.003   7.252
15403WAT     H246452   2.697   2.083   7.239
15404WAT      O46453   6.016   4.226   9.521
15404WAT     H146454   5.970   4.205   9.607
15404WAT     H246455   6.088   4.159   9.504
15405WAT      O46456   1.980   6.759   1.442
15405WAT     H146457   1.885   6.729   1.439
15405WAT     H246458   2.014   6.755   1.536
15406WAT      O46459   4.433   2.704   9.555
15406WAT     H146460   4.436   2.636   9.482
15406WAT     H246461   4.459   2.793   9.518
15407WAT      O46462   0.913   2.501   8.460
15407WAT     H146463   1.006   2.487   8.493
15407WAT     H246464   0.870   2.574   8.512
15408WAT      O46465   8.838   4.273   6.775
15408WAT     H146466   8.798   4.184   6.752
15408WAT     H246467   8.924   4.285   6.725
15409WAT      O46468   9.607   9.605   7.390
15409WAT     H146469   9.700   9.629   7.421
15409WAT     H246470   9.570   9.535   7.451
15410WAT      O46471   2.390   5.380   2.420
15410WAT     H146472   2.452   5.438   2.472
15410WAT     H246473   2.395   5.286   2.454
15411WAT      O46474   6.305   9.833   0.307
15411WAT     H146475   6.401   9.858   0.314
15411WAT     H246476   6.269   9.810   0.397
15412WAT      O46477   8.018   8.948   1.792
15412WAT     H146478   8.076   8.971   1.870
15412WAT     H246479   7.932   9.000   1.798
15413WAT      O46480   4.991   9.506   3.311
15413WAT     H146481   4.938   9.438   3.259
15413WAT     H246482   5.073   9.529   3.260
15414WAT      O46483   2.906   8.674   6.454
15414WAT     H146484   2.911   8.754   6.513
15414WAT     H246485   2.934   8.698   6.361
15415WAT      O46486   7.109   2.375   8.278
15415WAT     H146487   7.177   2.371   8.352
15415WAT     H246488   7.099   2.470   8.247
15416WAT      O46489   1.688   1.482   3.040
15416WAT     H146490   1.764   1.419   3.052
15416WAT     H246491   1.635   1.456   2.959
15417WAT      O46492   3.917   6.211   9.780
15417WAT     H146493   3.936   6.121   9.739
15417WAT     H246494   3.953   6.213   9.873
15418WAT      O46495   0.095   3.174   1.427
15418WAT     H146496   0.088   3.099   1.492
15418WAT     H246497   0.129   3.256   1.475
15419WAT      O46498   5.242   5.338   9.175
15419WAT     H146499   5.204   5.428   9.159
15419WAT     H246500   5.329   5.347   9.225
15420WAT      O46501   4.435   1.834   0.194
15420WAT     H146502   4.453   1.825   0.292
15420WAT     H246503   4.497   1.904   0.156
15421WAT      O46504   8.422   4.128   5.512
15421WAT     H146505   8.477   4.123   5.428
15421WAT     H246506   8.370   4.214   5.512
15422WAT      O46507   4.402   0.652   5.359
15422WAT     H146508   4.455   0.729   5.323
15422WAT     H246509   4.435   0.567   5.318
15423WAT      O46510   1.909   3.019   3.347
15423WAT     H146511   1.912   3.118   3.334
15423WAT     H246512   1.820   2.993   3.385
15424WAT      O46513   0.256   4.498   4.162
15424WAT     H146514   0.333   4.448   4.200
15424WAT     H246515   0.179   4.436   4.146
15425WAT      O46516   9.633   7.091   1.966
15425WAT     H146517   9.597   7.000   1.949
15425WAT     H246518   9.712   7.108   1.907
15426WAT      O46519   8.667   7.683   2.616
15426WAT     H146520   8.583   7.650   2.574
15426WAT     H246521   8.687   7.776   2.583
15427WAT      O46522   3.540   0.844   5.008
15427WAT     H146523   3.597   0.912   4.962
15427WAT     H246524   3.473   0.889   5.066
15428WAT      O46525   5.426   0.305   7.284
15428WAT     H146526   5.430   0.368   7.362
15428WAT     H246527   5.330   0.284   7.263
15429WAT      O46528   5.281   4.032   0.198
15429WAT     H146529   5.193   4.079   0.206
15429WAT     H246530   5.353   4.090   0.236
15430WAT      O46531   9.021   5.893   1.126
15430WAT     H146532   9.063   5.957   1.062
15430WAT     H246533   9.091   5.851   1.183
15431WAT      O46534   3.761   2.090   2.445
15431WAT     H146535   3.773   1.999   2.404
15431WAT     H246536   3.822   2.099   2.524
15432WAT      O46537   3.798   2.727   7.213
15432WAT     H146538   3.717   2.700   7.266
15432WAT     H246539   3.863   2.651   7.212
15433WAT      O46540   6.745   2.895   9.627
15433WAT     H146541   6.678   2.905   9.553
15433WAT     H246542   6.781   2.802   9.627
15434WAT      O46543   2.453   5.525   1.373
15434WAT     H146544   2.541   5.478   1.378
15434WAT     H246545   2.390   5.484   1.439
15435WAT      O46546   9.658   1.631   9.891
15435WAT     H146547   9.571   1.592   9.920
15435WAT     H246548   9.720   1.558   9.863
15436WAT      O46549   4.152   8.694   9.443
15436WAT     H146550   4.120   8.669   9.534
15436WAT     H246551   4.074   8.720   9.386
15437WAT      O46552   1.889   2.147   9.763
15437WAT     H146553   1.813   2.212   9.761
15437WAT     H246554   1.947   2.166   9.843
15438WAT      O46555   2.522   3.310   1.027
15438WAT     H146556   2.481   3.357   1.106
15438WAT     H246557   2.462   3.320   0.948
15439WAT      O46558   0.392   4.198   8.584
15439WAT     H146559   0.449   4.279   8.597
15439WAT     H246560   0.449   4.116   8.587
15440WAT      O46561   2.176   4.181   6.214
15440WAT     H146562   2.268   4.180   6.254
15440WAT     H246563   2.116   4.237   6.271
15441WAT      O46564   5.991   8.645   0.788
15441WAT     H146565   6.044   8.583   0.846
15441WAT     H246566   6.029   8.737   0.794
15442WAT      O46567   4.918   8.341   7.374
15442WAT     H146568   4.992   8.291   7.419
15442WAT     H246569   4.836   8.338   7.431
15443WAT      O46570   6.595   7.479   2.136
15443WAT     H146571   6.650   7.421   2.197
15443WAT     H246572   6.518   7.516   2.187
15444WAT      O46573   6.772   3.068   2.076
15444WAT     H146574   6.745   3.039   2.167
15444WAT     H246575   6.759   3.166   2.066
15445WAT      O46576   0.458   4.437   6.609
15445WAT     H146577   0.401   4.425   6.690
15445WAT     H246578   0.483   4.534   6.600
15446WAT      O46579   9.202   7.522   2.073
15446WAT     H146580   9.281   7.535   2.134
15446WAT     H246581   9.158   7.435   2.095
15447WAT      O46582   9.270   4.268   4.563
15447WAT     H146583   9.287   4.300   4.470
15447WAT     H246584   9.195   4.320   4.603
15448WAT      O46585   0.539   7.295   1.265
15448WAT     H146586   0.469   7.332   1.326
15448WAT     H246587   0.510   7.207   1.230
15449WAT      O46588   2.284   2.145   6.709
15449WAT     H146589   2.245   2.055   6.729
15449WAT     H246590   2.322   2.144   6.616
15450WAT      O46591   0.832   0.035   2.620
15450WAT     H146592   0.821   0.109   2.553
15450WAT     H246593   0.890   0.067   2.695
15451WAT      O46594   6.172   5.642   3.489
15451WAT     H146595   6.170   5.544   3.470
15451WAT     H246596   6.080   5.679   3.485
15452WAT      O46597   1.028   2.263   0.921
15452WAT     H146598   0.975   2.301   0.845
15452WAT     H246599   0.965   2.226   0.990
15453WAT      O46600   9.488   8.353   4.604
15453WAT     H146601   9.460   8.358   4.699
15453WAT     H246602   9.574   8.401   4.591
15454WAT      O46603   9.511   6.911   6.565
15454WAT     H146604   9.560   6.987   6.521
15454WAT     H246605   9.496   6.932   6.661
15455WAT      O46606   9.110   5.561   1.423
15455WAT     H146607   9.165   5.628   1.372
15455WAT     H246608   9.168   5.514   1.489
15456WAT      O46609   3.532   0.045   4.370
15456WAT     H146610   3.455  -0.004   4.328
15456WAT     H246611   3.611  -0.015   4.375
15457WAT      O46612   3.966   0.723   5.086
15457WAT     H146613   3.997   0.770   5.003
15457WAT     H246614   4.039   0.726   5.155
15458WAT      O46615   8.635   6.772   9.005
15458WAT     H146616   8.555   6.766   8.946
15458WAT     H246617   8.606   6.790   9.099
15459WAT      O46618   0.187   0.353   2.895
15459WAT     H146619   0.250   0.360   2.818
15459WAT     H246620   0.097   0.387   2.868
15460WAT      O46621   4.809   6.236   6.682
15460WAT     H146622   4.780   6.140   6.681
15460WAT     H246623   4.728   6.294   6.689
15461WAT      O46624   8.418   0.948   3.617
15461WAT     H146625   8.344   0.923   3.555
15461WAT     H246626   8.474   1.019   3.575
15462WAT      O46627   4.606   9.076   9.831
15462WAT     H146628   4.592   8.985   9.869
15462WAT     H246629   4.700   9.105   9.845
15463WAT      O46630   1.657   5.235   1.761
15463WAT     H146631   1.673   5.248   1.858
15463WAT     H246632   1.737   5.193   1.719
15464WAT      O46633   6.052   3.685   7.590
15464WAT     H146634   6.141   3.672   7.633
15464WAT     H246635   6.064   3.690   7.490
15465WAT      O46636   9.577   4.081   6.664
15465WAT     H146637   9.550   4.132   6.582
15465WAT     H246638   9.657   4.126   6.705
15466WAT      O46639   9.389   1.023   8.656
15466WAT     H146640   9.488   1.005   8.661
15466WAT     H246641   9.361   1.079   8.733
15467WAT      O46642   7.561   1.166   0.678
15467WAT     H146643   7.562   1.257   0.720
15467WAT     H246644   7.471   1.148   0.639
15468WAT      O46645   4.262   7.047   0.211
15468WAT     H146646   4.209   7.069   0.294
15468WAT     H246647   4.315   7.127   0.184
15469WAT      O46648   1.079   2.577   9.333
15469WAT     H146649   0.987   2.550   9.362
15469WAT     H246650   1.142   2.501   9.348
15470WAT      O46651   1.866   4.473   7.258
15470WAT     H146652   1.908   4.543   7.199
15470WAT     H246653   1.784   4.437   7.215
15471WAT      O46654   1.754   1.947   6.107
15471WAT     H146655   1.672   1.944   6.165
15471WAT     H246656   1.745   1.880   6.034
15472WAT      O46657   0.601   6.481   6.882
15472WAT     H146658   0.626   6.423   6.960
15472WAT     H246659   0.516   6.448   6.841
15473WAT      O46660   2.561   4.830   2.485
15473WAT     H146661   2.537   4.864   2.576
15473WAT     H246662   2.541   4.901   2.417
15474WAT      O46663   9.481   5.848   9.419
15474WAT     H146664   9.529   5.763   9.401
15474WAT     H246665   9.388   5.842   9.384
15475WAT      O46666   4.671   7.380   6.414
15475WAT     H146667   4.623   7.441   6.477
15475WAT     H246668   4.732   7.320   6.466
15476WAT      O46669   3.694   1.033   4.884
15476WAT     H146670   3.610   1.052   4.833
15476WAT     H246671   3.710   1.106   4.951
15477WAT      O46672   9.451   3.638   1.481
15477WAT     H146673   9.430   3.731   1.511
15477WAT     H246674   9.545   3.636   1.444
15478WAT      O46675   4.885   1.827   4.476
15478WAT     H146676   4.861   1.797   4.384
15478WAT     H246677   4.882   1.927   4.480
15479WAT      O46678   8.857   6.179   1.532
15479WAT     H146679   8.808   6.221   1.608
15479WAT     H246680   8.823   6.218   1.446
15480WAT      O46681   9.437   2.919   0.267
15480WAT     H146682   9.422   2.841   0.207
15480WAT     H246683   9.356   2.935   0.323
15481WAT      O46684   1.637   0.450   9.125
15481WAT     H146685   1.655   0.538   9.082
15481WAT     H246686   1.563   0.459   9.191
15482WAT      O46687   6.679   8.300   0.791
15482WAT     H146688   6.673   8.244   0.708
15482WAT     H246689   6.723   8.247   0.863
15483WAT      O46690   5.700   7.887   5.673
15483WAT     H146691   5.747   7.956   5.729
15483WAT     H246692   5.608   7.874   5.709
15484WAT      O46693   8.117   7.814   8.113
15484WAT     H146694   8.114   7.832   8.015
15484WAT     H246695   8.081   7.893   8.163
15485WAT      O46696   1.318   1.375   5.051
15485WAT     H146697   1.218   1.373   5.053
15485WAT     H246698   1.349   1.470   5.054
15486WAT      O46699   9.713   9.249   2.525
15486WAT     H146700   9.717   9.327   2.463
15486WAT     H246701   9.747   9.276   2.615
15487WAT      O46702   0.694   4.938   6.597
15487WAT     H146703   0.656   4.933   6.505
15487WAT     H246704   0.768   5.005   6.600
15488WAT      O46705   5.278   7.773   7.562
15488WAT     H146706   5.373   7.802   7.565
15488WAT     H246707   5.273   7.676   7.542
15489WAT      O46708   8.675   2.807   9.680
15489WAT     H146709   8.583   2.795   9.717
15489WAT     H246710   8.721   2.881   9.729
15490WAT      O46711   5.048   9.201   1.296
15490WAT     H146712   4.957   9.159   1.300
15490WAT     H246713   5.047   9.277   1.230
15491WAT      O46714   7.948   0.715   9.102
15491WAT     H146715   7.893   0.733   9.183
15491WAT     H246716   7.982   0.620   9.105
15492WAT      O46717   1.524   6.239   0.973
15492WAT     H146718   1.576   6.297   0.911
15492WAT     H246719   1.519   6.146   0.935
15493WAT      O46720   5.624   4.542   7.236
15493WAT     H146721   5.618   4.639   7.261
15493WAT     H246722   5.535   4.499   7.248
15494WAT      O46723   5.607   6.218   8.299
15494WAT     H146724   5.523   6.200   8.248
15494WAT     H246725   5.675   6.147   8.278
15495WAT      O46726   6.530   4.524   0.225
15495WAT     H146727   6.605   4.569   0.176
15495WAT     H246728   6.561   4.498   0.317
15496WAT      O46729   6.133   3.409   0.947
15496WAT     H146730   6.110   3.472   1.021
15496WAT     H246731   6.167   3.323   0.984
15497WAT      O46732   6.680   1.532   4.510
15497WAT     H146733   6.679   1.433   4.498
15497WAT     H246734   6.605   1.573   4.458
15498WAT      O46735   1.919   5.927   1.629
15498WAT     H146736   1.980   6.006   1.625
15498WAT     H246737   1.951   5.858   1.563
15499WAT      O46738   4.620   0.889   4.873
15499WAT     H146739   4.660   0.843   4.794
15499WAT     H246740   4.589   0.821   4.940
15500WAT      O46741   0.670   2.190   7.826
15500WAT     H146742   0.703   2.106   7.869
15500WAT     H246743   0.739   2.223   7.761
15501WAT      O46744   3.927   9.267   2.838
15501WAT     H146745   3.891   9.267   2.931
15501WAT     H246746   3.854   9.294   2.774
15502WAT      O46747   4.767   3.583   2.214
15502WAT     H146748   4.847   3.522   2.215
15502WAT     H246749   4.776   3.651   2.286
15503WAT      O46750   9.377   4.335   3.581
15503WAT     H146751   9.346   4.241   3.567
15503WAT     H246752   9.464   4.334   3.630
15504WAT      O46753   3.084   5.565   2.710
15504WAT     H146754   3.167   5.511   2.724
15504WAT     H246755   3.057   5.609   2.796
15505WAT      O46756   5.526   6.745   6.292
15505WAT     H146757   5.511   6.756   6.193
15505WAT     H246758   5.623   6.758   6.312
15506WAT      O46759   1.255   8.428   3.661
15506WAT     H146760   1.260   8.500   3.592
15506WAT     H246761   1.341   8.378   3.664
15507WAT      O46762   1.407   1.017   5.468
15507WAT     H146763   1.464   1.072   5.528
15507WAT     H246764   1.463   0.945   5.426
15508WAT      O46765   3.750   4.552   1.889
15508WAT     H146766   3.791   4.621   1.948
15508WAT     H246767   3.650   4.556   1.897
15509WAT      O46768   9.658   2.526   8.678
15509WAT     H146769   9.728   2.457   8.659
15509WAT     H246770   9.568   2.483   8.678
15510WAT      O46771   3.555   4.754   5.873
15510WAT     H146772   3.531   4.851   5.868
15510WAT     H246773   3.590   4.724   5.785
15511WAT      O46774   8.405   8.767   9.240
15511WAT     H146775   8.492   8.808   9.268
15511WAT     H246776   8.416   8.669   9.226
15512WAT      O46777   1.598   1.661   2.547
15512WAT     H146778   1.530   1.636   2.478
15512WAT     H246779   1.679   1.698   2.500
15513WAT      O46780   3.093   8.651   9.362
15513WAT     H146781   3.095   8.604   9.273
15513WAT     H246782   3.002   8.689   9.377
15514WAT      O46783   1.418   0.186   5.227
15514WAT     H146784   1.348   0.208   5.295
15514WAT     H246785   1.376   0.174   5.137
15515WAT      O46786   6.693   3.916   7.771
15515WAT     H146787   6.768   3.925   7.837
15515WAT     H246788   6.709   3.835   7.714
15516WAT      O46789   3.388   6.691   5.115
15516WAT     H146790   3.340   6.617   5.163
15516WAT     H246791   3.480   6.660   5.090
15517WAT      O46792   6.430   8.275   5.346
15517WAT     H146793   6.506   8.211   5.337
15517WAT     H246794   6.346   8.225   5.362
15518WAT      O46795   3.787   0.955   7.452
15518WAT     H146796   3.837   0.952   7.539
15518WAT     H246797   3.850   0.980   7.378
15519WAT      O46798   6.909   4.834   1.520
15519WAT     H146799   6.926   4.915   1.464
15519WAT     H246800   6.811   4.828   1.542
15520WAT      O46801   7.673   6.616   3.822
15520WAT     H146802   7.606   6.549   3.855
15520WAT     H246803   7.664   6.625   3.723
15521WAT      O46804   8.162   0.480   7.767
15521WAT     H146805   8.228   0.489   7.841
15521WAT     H246806   8.138   0.570   7.732
15522WAT      O46807   6.169   4.151   0.778
15522WAT     H146808   6.247   4.094   0.748
15522WAT     H246809   6.143   4.125   0.870
15523WAT      O46810   9.574   4.916   3.563
15523WAT     H146811   9.493   4.882   3.611
15523WAT     H246812   9.570   4.886   3.467
15524WAT      O46813   5.667   5.072   9.354
15524WAT     H146814   5.720   5.051   9.437
15524WAT     H246815   5.729   5.082   9.277
15525WAT      O46816   9.093   8.069   2.084
15525WAT     H146817   9.175   8.071   2.027
15525WAT     H246818   9.039   8.152   2.068
15526WAT      O46819   9.079   3.150   2.956
15526WAT     H146820   9.115   3.072   3.007
15526WAT     H246821   9.097   3.234   3.007
15527WAT      O46822   4.318   3.460   9.305
15527WAT     H146823   4.377   3.430   9.230
15527WAT     H246824   4.227   3.420   9.293
15528WAT      O46825   1.088   5.639   0.350
15528WAT     H146826   1.163   5.687   0.305
15528WAT     H246827   1.098   5.541   0.335
15529WAT      O46828   5.976   1.521   0.331
15529WAT     H146829   6.058   1.495   0.381
15529WAT     H246830   5.921   1.583   0.386
15530WAT      O46831   7.741   2.179   3.814
15530WAT     H146832   7.720   2.099   3.758
15530WAT     H246833   7.658   2.231   3.831
15531WAT      O46834   0.849   9.166   1.381
15531WAT     H146835   0.917   9.118   1.436
15531WAT     H246836   0.879   9.166   1.285
15532WAT      O46837   1.407   7.508   7.421
15532WAT     H146838   1.383   7.563   7.341
15532WAT     H246839   1.497   7.467   7.407
15533WAT      O46840   2.292   6.804   5.624
15533WAT     H146841   2.237   6.871   5.674
15533WAT     H246842   2.235   6.726   5.599
15534WAT      O46843   0.968   6.774   8.685
15534WAT     H146844   0.949   6.681   8.716
15534WAT     H246845   0.884   6.817   8.654
15535WAT      O46846   7.177   7.691   0.222
15535WAT     H146847   7.080   7.715   0.229
15535WAT     H246848   7.186   7.592   0.207
15536WAT      O46849   0.725   0.226   9.387
15536WAT     H146850   0.716   0.225   9.486
15536WAT     H246851   0.727   0.132   9.352
15537WAT      O46852   8.350   0.883   4.667
15537WAT     H146853   8.378   0.840   4.581
15537WAT     H246854   8.293   0.820   4.719
15538WAT      O46855   2.889   8.940   0.608
15538WAT     H146856   2.901   9.020   0.549
15538WAT     H246857   2.925   8.959   0.699
15539WAT      O46858   4.117   3.003   9.392
15539WAT     H146859   4.093   2.922   9.446
15539WAT     H246860   4.199   2.983   9.338
15540WAT      O46861   8.723   4.704   0.067
15540WAT     H146862   8.638   4.750   0.095
15540WAT     H246863   8.768   4.758  -0.004
15541WAT      O46864   0.409   8.707   5.314
15541WAT     H146865   0.347   8.778   5.279
15541WAT     H246866   0.378   8.617   5.282
15542WAT      O46867   3.561   4.840   6.939
15542WAT     H146868   3.583   4.770   7.007
15542WAT     H246869   3.462   4.855   6.939
15543WAT      O46870   0.046   0.021   2.796
15543WAT     H146871  -0.026   0.067   2.849
15543WAT     H246872   0.016  -0.072   2.774
15544WAT      O46873   1.938   0.978   9.737
15544WAT     H146874   1.862   0.983   9.802
15544WAT     H246875   1.919   0.909   9.668
15545WAT      O46876   9.016   2.673   7.969
15545WAT     H146877   9.100   2.706   8.013
15545WAT     H246878   8.939   2.686   8.031
15546WAT      O46879   5.383   6.882   3.164
15546WAT     H146880   5.368   6.876   3.065
15546WAT     H246881   5.370   6.792   3.205
15547WAT      O46882   3.862   7.303   8.882
15547WAT     H146883   3.941   7.352   8.920
15547WAT     H246884   3.891   7.214   8.848
15548WAT      O46885   8.322   3.460   4.589
15548WAT     H146886   8.418   3.443   4.612
15548WAT     H246887   8.280   3.374   4.560
15549WAT      O46888   8.659   0.335   0.315
15549WAT     H146889   8.559   0.334   0.327
15549WAT     H246890   8.686   0.262   0.253
15550WAT      O46891   0.247   7.059   7.516
15550WAT     H146892   0.326   7.060   7.454
15550WAT     H246893   0.266   6.995   7.591
15551WAT      O46894   2.823   6.499   0.004
15551WAT     H146895   2.804   6.592  -0.029
15551WAT     H246896   2.773   6.483   0.089
15552WAT      O46897   4.047   6.694   3.520
15552WAT     H146898   4.033   6.771   3.582
15552WAT     H246899   4.037   6.608   3.570
15553WAT      O46900   3.763   8.719   2.089
15553WAT     H146901   3.776   8.667   2.173
15553WAT     H246902   3.703   8.669   2.027
15554WAT      O46903   0.328   5.416   2.809
15554WAT     H146904   0.259   5.383   2.874
15554WAT     H246905   0.406   5.353   2.809
15555WAT      O46906   4.883   3.328   6.545
15555WAT     H146907   4.967   3.287   6.510
15555WAT     H246908   4.905   3.413   6.593
15556WAT      O46909   3.754   5.880   8.823
15556WAT     H146910   3.843   5.837   8.813
15556WAT     H246911   3.683   5.819   8.787
15557WAT      O46912   6.333   1.936   6.999
15557WAT     H146913   6.418   1.946   6.948
15557WAT     H246914   6.258   1.918   6.936
15558WAT      O46915   9.503   6.861   8.030
15558WAT     H146916   9.554   6.784   8.068
15558WAT     H246917   9.408   6.856   8.059
15559WAT      O46918   3.440   8.668   4.265
15559WAT     H146919   3.467   8.753   4.309
15559WAT     H246920   3.522   8.619   4.233
15560WAT      O46921   3.252   7.986   7.865
15560WAT     H146922   3.244   7.931   7.782
15560WAT     H246923   3.290   7.929   7.938
15561WAT      O46924   9.637   0.833   4.308
15561WAT     H146925   9.612   0.930   4.301
15561WAT     H246926   9.559   0.780   4.342
15562WAT      O46927   3.314   3.605   9.805
15562WAT     H146928   3.380   3.664   9.759
15562WAT     H246929   3.276   3.653   9.884
15563WAT      O46930   4.283   6.504   3.849
15563WAT     H146931   4.301   6.525   3.753
15563WAT     H246932   4.232   6.579   3.890
15564WAT      O46933   6.122   3.648   8.765
15564WAT     H146934   6.215   3.620   8.785
15564WAT     H246935   6.109   3.657   8.666
15565WAT      O46936   2.260   4.839   9.329
15565WAT     H146937   2.169   4.851   9.291
15565WAT     H246938   2.283   4.741   9.331
15566WAT      O46939   7.155   0.996   9.154
15566WAT     H146940   7.197   1.074   9.107
15566WAT     H246941   7.056   1.005   9.152
15567WAT      O46942   3.370   2.487   5.984
15567WAT     H146943   3.392   2.492   6.082
15567WAT     H246944   3.282   2.531   5.968
15568WAT      O46945   5.155   0.237   1.454
15568WAT     H146946   5.177   0.331   1.480
15568WAT     H246947   5.239   0.183   1.449
15569WAT      O46948   9.559   9.150   9.850
15569WAT     H146949   9.507   9.123   9.769
15569WAT     H246950   9.578   9.248   9.846
15570WAT      O46951   1.212   4.434   8.409
15570WAT     H146952   1.225   4.340   8.438
15570WAT     H246953   1.251   4.447   8.317
15571WAT      O46954   9.687   4.183   1.494
15571WAT     H146955   9.772   4.131   1.490
15571WAT     H246956   9.706   4.279   1.472
15572WAT      O46957   0.101   6.808   0.260
15572WAT     H146958   0.152   6.893   0.269
15572WAT     H246959   0.035   6.800   0.335
15573WAT      O46960   3.464   4.962   0.359
15573WAT     H146961   3.554   4.977   0.400
15573WAT     H246962   3.410   5.046   0.365
15574WAT      O46963   1.664   3.872   0.500
15574WAT     H146964   1.725   3.804   0.541
15574WAT     H246965   1.597   3.826   0.442
15575WAT      O46966   8.992   1.332   4.626
15575WAT     H146967   8.992   1.368   4.719
15575WAT     H246968   9.006   1.407   4.561
15576WAT      O46969   9.435   4.994   5.978
15576WAT     H146970   9.396   5.083   6.002
15576WAT     H246971   9.371   4.921   6.003
15577WAT      O46972   9.464   4.979   0.226
15577WAT     H146973   9.549   5.032   0.229
15577WAT     H246974   9.451   4.942   0.134
15578WAT      O46975   7.103   3.338   1.734
15578WAT     H146976   7.123   3.414   1.673
15578WAT     H246977   7.108   3.369   1.829
15579WAT      O46978   2.209   2.732   1.721
15579WAT     H146979   2.172   2.800   1.657
15579WAT     H246980   2.234   2.650   1.671
15580WAT      O46981   5.376   0.378   5.368
15580WAT     H146982   5.335   0.468   5.381
15580WAT     H246983   5.454   0.367   5.429
15581WAT      O46984   8.481   3.005   4.421
15581WAT     H146985   8.427   3.035   4.342
15581WAT     H246986   8.577   3.026   4.405
15582WAT      O46987   9.692   5.018   9.356
15582WAT     H146988   9.609   4.997   9.304
15582WAT     H246989   9.746   5.086   9.307
15583WAT      O46990   4.704   1.772   9.673
15583WAT     H146991   4.684   1.685   9.719
15583WAT     H246992   4.796   1.769   9.633
15584WAT      O46993   3.330   9.647   0.628
15584WAT     H146994   3.299   9.673   0.537
15584WAT     H246995   3.407   9.705   0.656
15585WAT      O46996   2.520   4.613   8.078
15585WAT     H146997   2.595   4.583   8.018
15585WAT     H246998   2.437   4.625   8.023
15586WAT      O46999   0.119   9.636   6.355
15586WAT     H147000   0.041   9.625   6.417
15586WAT     H247001   0.195   9.580   6.386
15587WAT      O47002   2.368   7.878   1.492
15587WAT     H147003   2.345   7.901   1.587
15587WAT     H247004   2.388   7.962   1.441
15588WAT      O47005   5.234   3.689   9.578
15588WAT     H147006   5.181   3.616   9.622
15588WAT     H247007   5.310   3.715   9.638
15589WAT      O47008   2.547   3.902   0.771
15589WAT     H147009   2.610   3.846   0.716
15589WAT     H247010   2.579   3.904   0.866
15590WAT      O47011   9.498   3.868   7.685
15590WAT     H147012   9.453   3.811   7.754
15590WAT     H247013   9.438   3.943   7.658
15591WAT      O47014   0.970   6.733   8.044
15591WAT     H147015   0.876   6.705   8.059
15591WAT     H247016   0.975   6.791   7.962
15592WAT      O47017   1.263   2.227   2.124
15592WAT     H147018   1.345   2.173   2.143
15592WAT     H247019   1.182   2.174   2.150
15593WAT      O47020   5.729   9.213   5.763
15593WAT     H147021   5.671   9.292   5.745
15593WAT     H247022   5.699   9.136   5.707
15594WAT      O47023   2.282   7.536   1.645
15594WAT     H147024   2.198   7.542   1.591
15594WAT     H247025   2.293   7.442   1.677
15595WAT      O47026   5.715   3.041   7.507
15595WAT     H147027   5.646   3.103   7.543
15595WAT     H247028   5.781   3.093   7.452
15596WAT      O47029   5.123   7.507   1.751
15596WAT     H147030   5.121   7.519   1.851
15596WAT     H247031   5.048   7.448   1.723
15597WAT      O47032   2.604   9.245   2.801
15597WAT     H147033   2.598   9.153   2.762
15597WAT     H247034   2.557   9.310   2.741
15598WAT      O47035   7.216   3.310   2.882
15598WAT     H147036   7.236   3.375   2.809
15598WAT     H247037   7.302   3.282   2.925
15599WAT      O47038   0.252   2.462   9.136
15599WAT     H147039   0.180   2.515   9.089
15599WAT     H247040   0.333   2.519   9.146
15600WAT      O47041   6.474   0.728   9.690
15600WAT     H147042   6.434   0.706   9.779
15600WAT     H247043   6.572   0.711   9.692
15601WAT      O47044   0.868   0.384   3.562
15601WAT     H147045   0.864   0.345   3.654
15601WAT     H247046   0.888   0.482   3.569
15602WAT      O47047   6.895   4.749   9.035
15602WAT     H147048   6.978   4.794   9.068
15602WAT     H247049   6.864   4.683   9.103
15603WAT      O47050   2.216   2.081   2.062
15603WAT     H147051   2.202   2.166   2.010
15603WAT     H247052   2.271   2.100   2.143
15604WAT      O47053   8.317   0.336   4.594
15604WAT     H147054   8.395   0.346   4.656
15604WAT     H247055   8.283   0.427   4.570
15605WAT      O47056   1.094   2.838   9.487
15605WAT     H147057   1.085   2.758   9.427
15605WAT     H247058   1.022   2.903   9.467
15606WAT      O47059   3.634   0.112   3.382
15606WAT     H147060   3.664   0.020   3.409
15606WAT     H247061   3.548   0.105   3.330
15607WAT      O47062   4.017   4.252   6.920
15607WAT     H147063   4.088   4.308   6.878
15607WAT     H247064   4.051   4.209   7.003
15608WAT      O47065   7.841   8.963   6.213
15608WAT     H147066   7.914   9.007   6.265
15608WAT     H247067   7.801   9.029   6.150
15609WAT      O47068   0.090   7.904   1.987
15609WAT     H147069   0.097   7.913   1.888
15609WAT     H247070   0.068   7.993   2.027
15610WAT      O47071   1.963   1.651   6.578
15610WAT     H147072   2.023   1.729   6.596
15610WAT     H247073   1.974   1.622   6.482
15611WAT      O47074   7.885   8.000   6.906
15611WAT     H147075   7.879   7.902   6.925
15611WAT     H247076   7.974   8.020   6.864
15612WAT      O47077   5.436   6.537   1.002
15612WAT     H147078   5.494   6.510   1.078
15612WAT     H247079   5.343   6.553   1.035
15613WAT      O47080   1.207   6.841   1.424
15613WAT     H147081   1.211   6.773   1.351
15613WAT     H247082   1.237   6.799   1.510
15614WAT      O47083   8.708   3.380   2.027
15614WAT     H147084   8.717   3.399   1.929
15614WAT     H247085   8.795   3.346   2.062
15615WAT      O47086   1.646   1.358   1.374
15615WAT     H147087   1.667   1.388   1.281
15615WAT     H247088   1.691   1.419   1.440
15616WAT      O47089   7.089   8.775   5.652
15616WAT     H147090   7.010   8.814   5.699
15616WAT     H247091   7.084   8.675   5.655
15617WAT      O47092   5.041   1.881   3.040
15617WAT     H147093   5.102   1.820   2.989
15617WAT     H247094   5.050   1.863   3.138
15618WAT      O47095   3.868   3.873   2.203
15618WAT     H147096   3.783   3.886   2.152
15618WAT     H247097   3.935   3.941   2.173
15619WAT      O47098   1.635   1.370   8.454
15619WAT     H147099   1.636   1.466   8.480
15619WAT     H247100   1.721   1.346   8.410
15620WAT      O47101   7.240   0.057   2.565
15620WAT     H147102   7.253   0.107   2.479
15620WAT     H247103   7.147   0.021   2.569
15621WAT      O47104   1.180   4.627   9.621
15621WAT     H147105   1.260   4.615   9.680
15621WAT     H247106   1.107   4.669   9.674
15622WAT      O47107   2.433   6.436   0.511
15622WAT     H147108   2.350   6.387   0.537
15622WAT     H247109   2.507   6.370   0.494
15623WAT      O47110   5.144   6.019   7.430
15623WAT     H147111   5.219   6.066   7.383
15623WAT     H247112   5.063   6.019   7.372
15624WAT      O47113   2.940   2.723   8.203
15624WAT     H147114   2.871   2.777   8.253
15624WAT     H247115   2.908   2.628   8.195
15625WAT      O47116   6.425   8.569   3.753
15625WAT     H147117   6.428   8.594   3.849
15625WAT     H247118   6.380   8.641   3.700
15626WAT      O47119   4.264   4.149   1.493
15626WAT     H147120   4.252   4.140   1.592
15626WAT     H247121   4.332   4.083   1.461
15627WAT      O47122   8.996   7.577   6.180
15627WAT     H147123   8.921   7.560   6.116
15627WAT     H247124   8.984   7.666   6.223
15628WAT      O47125   6.071   3.741   9.133
15628WAT     H147126   6.022   3.773   9.053
15628WAT     H247127   6.148   3.803   9.152
15629WAT      O47128   9.117   1.953   8.569
15629WAT     H147129   9.195   1.911   8.615
15629WAT     H247130   9.064   1.883   8.522
15630WAT      O47131   7.563   4.000   7.247
15630WAT     H147132   7.598   3.907   7.232
15630WAT     H247133   7.564   4.050   7.161
15631WAT      O47134   4.832   8.692   6.280
15631WAT     H147135   4.734   8.709   6.269
15631WAT     H247136   4.861   8.621   6.216
15632WAT      O47137   5.201   3.429   6.770
15632WAT     H147138   5.228   3.524   6.754
15632WAT     H247139   5.255   3.391   6.845
15633WAT      O47140   8.538   2.707   7.096
15633WAT     H147141   8.464   2.766   7.064
15633WAT     H247142   8.580   2.748   7.177
15634WAT      O47143   2.154   0.190   0.012
15634WAT     H147144   2.252   0.184  -0.005
15634WAT     H247145   2.131   0.282   0.044
15635WAT      O47146   2.428   5.580   2.209
15635WAT     H147147   2.363   5.646   2.247
15635WAT     H247148   2.409   5.490   2.248
15636WAT      O47149   9.513   2.284   0.734
15636WAT     H147150   9.611   2.292   0.754
15636WAT     H247151   9.461   2.298   0.818
15637WAT      O47152   1.443   2.154   6.847
15637WAT     H147153   1.421   2.070   6.797
15637WAT     H247154   1.458   2.132   6.944
15638WAT      O47155   3.820   6.899   1.566
15638WAT     H147156   3.896   6.913   1.630
15638WAT     H247157   3.800   6.801   1.561
15639WAT      O47158   5.504   4.035   7.679
15639WAT     H147159   5.533   3.948   7.640
15639WAT     H247160   5.475   4.021   7.774
15640WAT      O47161   0.524   5.095   0.161
15640WAT     H147162   0.518   5.181   0.111
15640WAT     H247163   0.453   5.093   0.233
15641WAT      O47164   2.082   1.211   8.375
15641WAT     H147165   2.062   1.118   8.405
15641WAT     H247166   2.110   1.267   8.453
15642WAT      O47167   1.174   0.719   5.929
15642WAT     H147168   1.156   0.627   5.965
15642WAT     H247169   1.104   0.782   5.963
15643WAT      O47170   0.561   9.404   0.213
15643WAT     H147171   0.477   9.432   0.168
15643WAT     H247172   0.543   9.327   0.274
15644WAT      O47173   8.220   6.871   7.461
15644WAT     H147174   8.252   6.898   7.370
15644WAT     H247175   8.198   6.774   7.461
15645WAT      O47176   7.624   2.013   3.636
15645WAT     H147177   7.674   1.984   3.553
15645WAT     H247178   7.542   2.064   3.609
15646WAT      O47179   3.157   0.100   0.805
15646WAT     H147180   3.089   0.149   0.860
15646WAT     H247181   3.145   0.125   0.708
15647WAT      O47182   2.257   6.055   6.875
15647WAT     H147183   2.339   6.109   6.855
15647WAT     H247184   2.250   5.980   6.809
15648WAT      O47185   4.375   9.688   7.103
15648WAT     H147186   4.336   9.762   7.047
15648WAT     H247187   4.305   9.619   7.120
15649WAT      O47188   6.860   1.979   1.872
15649WAT     H147189   6.846   2.066   1.920
15649WAT     H247190   6.796   1.911   1.908
15650WAT      O47191   7.932   6.474   2.782
15650WAT     H147192   7.971   6.566   2.782
15650WAT     H247193   7.840   6.476   2.821
15651WAT      O47194   2.878   2.589   6.978
15651WAT     H147195   2.857   2.684   7.001
15651WAT     H247196   2.913   2.542   7.059
15652WAT      O47197   5.768   1.695   5.534
15652WAT     H147198   5.755   1.635   5.614
15652WAT     H247199   5.850   1.750   5.548
15653WAT      O47200   5.922   1.094   8.332
15653WAT     H147201   5.922   1.083   8.232
15653WAT     H247202   5.925   1.004   8.375
15654WAT      O47203   2.260   9.713   7.066
15654WAT     H147204   2.358   9.700   7.052
15654WAT     H247205   2.210   9.689   6.982
15655WAT      O47206   6.125   5.970   1.317
15655WAT     H147207   6.122   5.885   1.264
15655WAT     H247208   6.169   5.953   1.405
15656WAT      O47209   7.726   0.247   8.701
15656WAT     H147210   7.753   0.150   8.696
15656WAT     H247211   7.808   0.304   8.694
15657WAT      O47212   0.647   9.078   6.805
15657WAT     H147213   0.620   9.135   6.882
15657WAT     H247214   0.743   9.096   6.782
15658WAT      O47215   6.270   4.252   6.194
15658WAT     H147216   6.198   4.183   6.186
15658WAT     H247217   6.313   4.246   6.284
15659WAT      O47218   4.159   4.836   4.895
15659WAT     H147219   4.121   4.828   4.987
15659WAT     H247220   4.104   4.899   4.841
15660WAT      O47221   0.766   3.955   6.996
15660WAT     H147222   0.717   3.896   7.059
15660WAT     H247223   0.780   4.045   7.038
15661WAT      O47224   6.288   0.052   7.016
15661WAT     H147225   6.379   0.078   6.984
15661WAT     H247226   6.221   0.121   6.987
15662WAT      O47227   8.813   8.023   5.846
15662WAT     H147228   8.910   8.031   5.869
15662WAT     H247229   8.804   7.986   5.753
15663WAT      O47230   6.025   9.205   8.948
15663WAT     H147231   5.965   9.264   9.002
15663WAT     H247232   6.013   9.110   8.977
15664WAT      O47233   8.795   3.736   3.038
15664WAT     H147234   8.757   3.719   2.947
15664WAT     H247235   8.721   3.761   3.100
15665WAT      O47236   9.665   7.020   5.878
15665WAT     H147237   9.737   6.983   5.938
15665WAT     H247238   9.632   7.107   5.916
15666WAT      O47239   7.060   4.587   1.125
15666WAT     H147240   7.054   4.506   1.184
15666WAT     H247241   7.073   4.668   1.182
15667WAT      O47242   1.811   4.548   5.153
15667WAT     H147243   1.849   4.551   5.246
15667WAT     H247244   1.744   4.621   5.142
15668WAT      O47245   5.535   1.580   7.368
15668WAT     H147246   5.538   1.644   7.291
15668WAT     H247247   5.543   1.487   7.333
15669WAT      O47248   0.439   5.957   8.114
15669WAT     H147249   0.503   5.941   8.039
15669WAT     H247250   0.359   6.007   8.080
15670WAT      O47251   2.258   5.069   2.412
15670WAT     H147252   2.183   5.133   2.426
15670WAT     H247253   2.335   5.094   2.470
15671WAT      O47254   6.280   1.240   6.286
15671WAT     H147255   6.323   1.175   6.223
15671WAT     H247256   6.183   1.248   6.265
15672WAT      O47257   8.327   2.274   6.860
15672WAT     H147258   8.376   2.307   6.941
15672WAT     H247259   8.236   2.243   6.887
15673WAT      O47260   2.118   5.559   0.671
15673WAT     H147261   2.135   5.544   0.573
15673WAT     H247262   2.032   5.610   0.682
15674WAT      O47263   5.964   1.914   6.217
15674WAT     H147264   5.886   1.934   6.275
15674WAT     H247265   5.950   1.827   6.170
15675WAT      O47266   4.395   9.707   2.770
15675WAT     H147267   4.343   9.630   2.734
15675WAT     H247268   4.493   9.691   2.756
15676WAT      O47269   7.524   0.064   7.015
15676WAT     H147270   7.527   0.115   7.101
15676WAT     H247271   7.564  -0.027   7.029
15677WAT      O47272   6.559   7.249   8.117
15677WAT     H147273   6.508   7.245   8.031
15677WAT     H247274   6.549   7.339   8.158
15678WAT      O47275   2.911   0.475   0.251
15678WAT     H147276   2.954   0.387   0.270
15678WAT     H247277   2.980   0.539   0.217
15679WAT      O47278   8.104   1.168   7.678
15679WAT     H147279   8.169   1.147   7.751
15679WAT     H247280   8.112   1.265   7.654
15680WAT      O47281   7.420   0.063   1.132
15680WAT     H147282   7.477   0.131   1.087
15680WAT     H247283   7.356   0.109   1.194
15681WAT      O47284   8.682   8.428   2.920
15681WAT     H147285   8.691   8.371   3.002
15681WAT     H247286   8.772   8.448   2.883
15682WAT      O47287   3.742   9.178   5.536
15682WAT     H147288   3.816   9.143   5.478
15682WAT     H247289   3.714   9.268   5.502
15683WAT      O47290   8.214   2.785   8.343
15683WAT     H147291   8.247   2.759   8.253
15683WAT     H247292   8.177   2.878   8.340
15684WAT      O47293   3.958   0.993   9.858
15684WAT     H147294   3.906   0.977   9.942
15684WAT     H247295   3.905   1.051   9.796
15685WAT      O47296   6.898   1.203   1.833
15685WAT     H147297   6.925   1.124   1.888
15685WAT     H247298   6.942   1.285   1.870
15686WAT      O47299   4.149   1.879   2.197
15686WAT     H147300   4.098   1.898   2.113
15686WAT     H247301   4.101   1.811   2.252
15687WAT      O47302   6.772   3.251   8.390
15687WAT     H147303   6.817   3.171   8.430
15687WAT     H247304   6.717   3.296   8.459
15688WAT      O47305   9.623   2.943   3.178
15688WAT     H147306   9.588   3.037   3.178
15688WAT     H247307   9.576   2.891   3.106
15689WAT      O47308   5.876   7.563   1.146
15689WAT     H147309   5.889   7.642   1.086
15689WAT     H247310   5.906   7.480   1.098
15690WAT      O47311   2.687   1.232   0.344
15690WAT     H147312   2.736   1.144   0.345
15690WAT     H247313   2.669   1.259   0.250
15691WAT      O47314   9.782   0.968   2.199
15691WAT     H147315   9.874   1.007   2.206
15691WAT     H247316   9.748   0.980   2.106
15692WAT      O47317   2.512   9.625   6.387
15692WAT     H147318   2.534   9.547   6.328
15692WAT     H247319   2.516   9.596   6.482
15693WAT      O47320   3.019   1.766   9.680
15693WAT     H147321   3.000   1.848   9.625
15693WAT     H247322   3.110   1.731   9.658
15694WAT      O47323   9.025   6.783   6.856
15694WAT     H147324   8.944   6.779   6.798
15694WAT     H247325   9.008   6.844   6.934
15695WAT      O47326   0.835   9.577   7.805
15695WAT     H147327   0.807   9.653   7.746
15695WAT     H247328   0.921   9.599   7.849
15696WAT      O47329   8.138   8.659   2.272
15696WAT     H147330   8.067   8.614   2.217
15696WAT     H247331   8.221   8.668   2.218
15697WAT      O47332   3.631   3.360   4.288
15697WAT     H147333   3.665   3.269   4.308
15697WAT     H247334   3.573   3.391   4.363
15698WAT      O47335   8.649   3.488   1.415
15698WAT     H147336   8.600   3.553   1.356
15698WAT     H247337   8.747   3.507   1.410
15699WAT      O47338   2.251   5.122   0.180
15699WAT     H147339   2.176   5.180   0.150
15699WAT     H247340   2.214   5.042   0.227
15700WAT      O47341   3.980   3.267   2.319
15700WAT     H147342   4.021   3.178   2.301
15700WAT     H247343   3.914   3.259   2.394
15701WAT      O47344   6.320   6.723   0.494
15701WAT     H147345   6.309   6.677   0.406
15701WAT     H247346   6.417   6.731   0.517
15702WAT      O47347   5.958   7.113   7.741
15702WAT     H147348   6.033   7.133   7.804
15702WAT     H247349   5.914   7.199   7.714
15703WAT      O47350   9.046   9.167   3.218
15703WAT     H147351   9.041   9.069   3.237
15703WAT     H247352   9.038   9.218   3.304
15704WAT      O47353   8.044   2.727   6.654
15704WAT     H147354   8.059   2.771   6.565
15704WAT     H247355   8.122   2.744   6.713
15705WAT      O47356   7.367   4.461   4.951
15705WAT     H147357   7.289   4.398   4.942
15705WAT     H247358   7.451   4.414   4.926
15706WAT      O47359   2.495   3.067   3.033
15706WAT     H147360   2.405   3.030   3.009
15706WAT     H247361   2.545   3.001   3.089
15707WAT      O47362   8.473   2.416   4.786
15707WAT     H147363   8.422   2.421   4.700
15707WAT     H247364   8.422   2.465   4.857
15708WAT      O47365   6.315   6.898   1.850
15708WAT     H147366   6.262   6.886   1.766
15708WAT     H247367   6.338   6.995   1.861
15709WAT      O47368   2.100   2.972   0.884
15709WAT     H147369   2.029   2.907   0.913
15709WAT     H247370   2.093   2.986   0.785
15710WAT      O47371   8.285   3.193   4.795
15710WAT     H147372   8.193   3.227   4.811
15710WAT     H247373   8.280   3.102   4.755
15711WAT      O47374   4.255   4.820   7.969
15711WAT     H147375   4.285   4.727   7.990
15711WAT     H247376   4.235   4.868   8.055
15712WAT      O47377   5.499   3.405   9.009
15712WAT     H147378   5.573   3.385   8.945
15712WAT     H247379   5.532   3.393   9.103
15713WAT      O47380   2.745   3.395   5.656
15713WAT     H147381   2.794   3.382   5.570
15713WAT     H247382   2.748   3.309   5.709
15714WAT      O47383   7.404   7.626   4.151
15714WAT     H147384   7.324   7.587   4.106
15714WAT     H247385   7.458   7.552   4.192
15715WAT      O47386   5.662   3.354   1.318
15715WAT     H147387   5.670   3.296   1.237
15715WAT     H247388   5.568   3.349   1.353
15716WAT      O47389   0.223   7.947   1.228
15716WAT     H147390   0.293   7.925   1.295
15716WAT     H247391   0.186   8.039   1.247
15717WAT      O47392   8.060   9.025   4.065
15717WAT     H147393   8.067   9.022   4.164
15717WAT     H247394   8.019   8.940   4.031
15718WAT      O47395   7.684   4.497   4.256
15718WAT     H147396   7.616   4.456   4.195
15718WAT     H247397   7.744   4.558   4.203
15719WAT      O47398   9.406   5.184   5.251
15719WAT     H147399   9.409   5.156   5.347
15719WAT     H247400   9.379   5.107   5.195
15720WAT      O47401   0.775   8.127   3.185
15720WAT     H147402   0.801   8.222   3.168
15720WAT     H247403   0.680   8.113   3.158
15721WAT      O47404   2.303   4.010   3.770
15721WAT     H147405   2.219   4.058   3.745
15721WAT     H247406   2.280   3.932   3.828
15722WAT      O47407   6.180   4.435   5.161
15722WAT     H147408   6.197   4.408   5.067
15722WAT     H247409   6.225   4.522   5.180
15723WAT      O47410   5.715   1.944   7.306
15723WAT     H147411   5.618   1.937   7.284
15723WAT     H247412   5.757   1.854   7.302
15724WAT      O47413   5.016   0.919   6.403
15724WAT     H147414   4.959   0.999   6.420
15724WAT     H247415   5.090   0.944   6.340
15725WAT      O47416   0.584   4.926   7.532
15725WAT     H147417   0.663   4.871   7.506
15725WAT     H247418   0.567   4.996   7.462
15726WAT      O47419   0.547   2.454   0.286
15726WAT     H147420   0.453   2.486   0.271
15726WAT     H247421   0.574   2.396   0.209
15727WAT      O47422   2.360   8.172   3.632
15727WAT     H147423   2.451   8.214   3.622
15727WAT     H247424   2.298   8.238   3.675
15728WAT      O47425   6.109   9.281   6.859
15728WAT     H147426   6.011   9.263   6.858
15728WAT     H247427   6.129   9.354   6.924
15729WAT      O47428   5.315   0.935   1.400
15729WAT     H147429   5.220   0.916   1.374
15729WAT     H247430   5.317   1.000   1.476
15730WAT      O47431   8.821   2.398   8.359
15730WAT     H147432   8.821   2.373   8.455
15730WAT     H247433   8.744   2.352   8.313
15731WAT      O47434   2.723   9.292   8.545
15731WAT     H147435   2.715   9.201   8.504
15731WAT     H247436   2.798   9.342   8.501
15732WAT      O47437   4.052   1.242   7.824
15732WAT     H147438   4.095   1.179   7.889
15732WAT     H247439   4.084   1.335   7.842
15733WAT      O47440   0.038   6.967   1.231
15733WAT     H147441   0.120   6.959   1.288
15733WAT     H247442  -0.009   7.053   1.252
15734WAT      O47443   2.305   3.477   3.004
15734WAT     H147444   2.227   3.538   2.989
15734WAT     H247445   2.306   3.407   2.934
15735WAT      O47446   2.190   3.502   3.838
15735WAT     H147447   2.096   3.484   3.809
15735WAT     H247448   2.249   3.427   3.809
15736WAT      O47449   8.046   1.097   1.380
15736WAT     H147450   7.951   1.121   1.400
15736WAT     H247451   8.071   1.015   1.430
15737WAT      O47452   4.650   6.065   1.552
15737WAT     H147453   4.553   6.071   1.576
15737WAT     H247454   4.690   5.984   1.594
15738WAT      O47455   6.196   6.946   4.379
15738WAT     H147456   6.110   6.927   4.427
15738WAT     H247457   6.240   7.025   4.421
15739WAT      O47458   9.574   6.585   5.377
15739WAT     H147459   9.574   6.556   5.472
15739WAT     H247460   9.487   6.628   5.355
15740WAT      O47461   2.943   8.959   6.900
15740WAT     H147462   2.984   8.880   6.854
15740WAT     H247463   2.965   9.042   6.849
15741WAT      O47464   8.568   8.811   4.512
15741WAT     H147465   8.575   8.816   4.413
15741WAT     H247466   8.596   8.898   4.553
15742WAT      O47467   3.157   1.879   5.468
15742WAT     H147468   3.223   1.807   5.445
15742WAT     H247469   3.148   1.885   5.567
15743WAT      O47470   5.583   0.496   5.125
15743WAT     H147471   5.524   0.415   5.122
15743WAT     H247472   5.552   0.556   5.199
15744WAT      O47473   4.727   2.004   0.527
15744WAT     H147474   4.677   1.925   0.491
15744WAT     H247475   4.664   2.082   0.533
15745WAT      O47476   1.021   4.562   0.679
15745WAT     H147477   0.954   4.622   0.636
15745WAT     H247478   1.016   4.573   0.779
15746WAT      O47479   7.680   7.919   7.797
15746WAT     H147480   7.769   7.956   7.823
15746WAT     H247481   7.629   7.894   7.879
15747WAT      O47482   5.289   2.279   8.189
15747WAT     H147483   5.299   2.317   8.282
15747WAT     H247484   5.214   2.325   8.142
15748WAT      O47485   6.876   5.115   6.604
15748WAT     H147486   6.783   5.146   6.584
15748WAT     H247487   6.903   5.147   6.695
15749WAT      O47488   6.172   7.488   0.556
15749WAT     H147489   6.116   7.482   0.474
15749WAT     H247490   6.263   7.523   0.531
15750WAT      O47491   6.536   2.209   2.356
15750WAT     H147492   6.484   2.181   2.437
15750WAT     H247493   6.579   2.298   2.374
15751WAT      O47494   7.582   2.592   6.671
15751WAT     H147495   7.625   2.502   6.663
15751WAT     H247496   7.651   2.660   6.698
15752WAT      O47497   7.195   0.289   9.797
15752WAT     H147498   7.188   0.214   9.863
15752WAT     H247499   7.291   0.315   9.787
15753WAT      O47500   8.648   5.651   3.188
15753WAT     H147501   8.563   5.680   3.232
15753WAT     H247502   8.714   5.726   3.191
15754WAT      O47503   6.983   1.652   7.899
15754WAT     H147504   6.955   1.717   7.829
15754WAT     H247505   7.066   1.605   7.869
15755WAT      O47506   0.192   6.681   9.785
15755WAT     H147507   0.138   6.723   9.859
15755WAT     H247508   0.158   6.589   9.766
15756WAT      O47509   3.904   5.546   6.973
15756WAT     H147510   3.987   5.602   6.961
15756WAT     H247511   3.823   5.602   6.955
15757WAT      O47512   6.163   3.529   5.230
15757WAT     H147513   6.143   3.453   5.292
15757WAT     H247514   6.111   3.609   5.257
15758WAT      O47515   4.702   0.893   1.368
15758WAT     H147516   4.775   0.932   1.425
15758WAT     H247517   4.704   0.935   1.278
15759WAT      O47518   3.217   6.343   3.775
15759WAT     H147519   3.302   6.322   3.727
15759WAT     H247520   3.178   6.259   3.813
15760WAT      O47521   8.154   5.364   7.031
15760WAT     H147522   8.129   5.269   7.050
15760WAT     H247523   8.251   5.377   7.047
15761WAT      O47524   1.110   2.210   6.263
15761WAT     H147525   1.062   2.145   6.203
15761WAT     H247526   1.173   2.265   6.208
15762WAT      O47527   9.167   6.663   8.342
15762WAT     H147528   9.074   6.699   8.353
15762WAT     H247529   9.163   6.567   8.314
15763WAT      O47530   7.074   7.184   3.072
15763WAT     H147531   7.037   7.093   3.090
15763WAT     H247532   7.153   7.200   3.130
15764WAT      O47533   1.680   9.198   0.593
15764WAT     H147534   1.727   9.119   0.554
15764WAT     H247535   1.585   9.172   0.613
15765WAT      O47536   5.777   1.095   2.350
15765WAT     H147537   5.788   1.024   2.280
15765WAT     H247538   5.835   1.074   2.428
15766WAT      O47539   8.518   0.754   7.237
15766WAT     H147540   8.582   0.732   7.163
15766WAT     H247541   8.491   0.850   7.231
15767WAT      O47542   0.169   9.277   0.182
15767WAT     H147543   0.237   9.220   0.229
15767WAT     H247544   0.081   9.268   0.227
15768WAT      O47545   9.455   2.073   5.823
15768WAT     H147546   9.386   2.069   5.751
15768WAT     H247547   9.517   1.995   5.815
15769WAT      O47548   6.563   2.928   0.537
15769WAT     H147549   6.588   2.991   0.464
15769WAT     H247550   6.465   2.933   0.554
15770WAT      O47551   9.400   0.790   7.592
15770WAT     H147552   9.447   0.728   7.654
15770WAT     H247553   9.459   0.809   7.513
15771WAT      O47554   0.722   6.644   7.883
15771WAT     H147555   0.783   6.565   7.896
15771WAT     H247556   0.646   6.638   7.948
15772WAT      O47557   9.392   8.024   6.085
15772WAT     H147558   9.451   8.020   6.165
15772WAT     H247559   9.433   8.082   6.015
15773WAT      O47560   8.933   6.891   1.271
15773WAT     H147561   8.841   6.928   1.259
15773WAT     H247562   8.995   6.965   1.299
15774WAT      O47563   6.156   5.727   7.683
15774WAT     H147564   6.059   5.736   7.707
15774WAT     H247565   6.163   5.696   7.588
15775WAT      O47566   9.862   9.004   2.498
15775WAT     H147567   9.920   9.033   2.422
15775WAT     H247568   9.802   9.080   2.524
15776WAT      O47569   9.554   5.795   6.376
15776WAT     H147570   9.592   5.704   6.362
15776WAT     H247571   9.556   5.817   6.474
15777WAT      O47572   1.524   0.810   5.369
15777WAT     H147573   1.498   0.801   5.273
15777WAT     H247574   1.494   0.729   5.419
15778WAT      O47575   3.954   6.979   6.075
15778WAT     H147576   3.872   7.035   6.079
15778WAT     H247577   3.932   6.889   6.037
15779WAT      O47578   4.500   1.341   9.542
15779WAT     H147579   4.476   1.299   9.455
15779WAT     H247580   4.600   1.338   9.554
15780WAT      O47581   7.472   5.835   5.148
15780WAT     H147582   7.534   5.899   5.102
15780WAT     H247583   7.412   5.886   5.211
15781WAT      O47584   2.475   4.551   8.646
15781WAT     H147585   2.560   4.580   8.603
15781WAT     H247586   2.464   4.452   8.637
15782WAT      O47587   6.978   7.101   1.316
15782WAT     H147588   6.989   7.113   1.218
15782WAT     H247589   6.898   7.151   1.348
15783WAT      O47590   9.436   9.297   0.677
15783WAT     H147591   9.359   9.300   0.741
15783WAT     H247592   9.403   9.268   0.587
15784WAT      O47593   2.154   9.423   2.103
15784WAT     H147594   2.242   9.465   2.082
15784WAT     H247595   2.085   9.457   2.039
15785WAT      O47596   3.075   7.976   2.943
15785WAT     H147597   3.065   8.075   2.952
15785WAT     H247598   3.054   7.949   2.849
15786WAT      O47599   4.806   4.074   8.143
15786WAT     H147600   4.780   4.119   8.058
15786WAT     H247601   4.786   3.976   8.136
15787WAT      O47602   2.827   8.551   6.975
15787WAT     H147603   2.788   8.548   7.067
15787WAT     H247604   2.795   8.633   6.928
15788WAT      O47605   9.641   6.706   6.222
15788WAT     H147606   9.688   6.618   6.225
15788WAT     H247607   9.660   6.757   6.306
15789WAT      O47608   8.421   6.478   0.158
15789WAT     H147609   8.514   6.448   0.138
15789WAT     H247610   8.423   6.564   0.209
15790WAT      O47611   8.019   8.465   7.507
15790WAT     H147612   8.044   8.560   7.526
15790WAT     H247613   8.073   8.430   7.431
15791WAT      O47614   3.577   1.518   4.083
15791WAT     H147615   3.487   1.519   4.040
15791WAT     H247616   3.637   1.584   4.037
15792WAT      O47617   2.597   9.813   9.581
15792WAT     H147618   2.572   9.720   9.608
15792WAT     H247619   2.530   9.848   9.516
15793WAT      O47620   6.497   7.212   6.382
15793WAT     H147621   6.535   7.303   6.365
15793WAT     H247622   6.401   7.220   6.406
15794WAT      O47623   0.928   1.714   3.192
15794WAT     H147624   0.951   1.620   3.214
15794WAT     H247625   0.980   1.743   3.111
15795WAT      O47626   8.730   3.444   5.250
15795WAT     H147627   8.752   3.366   5.309
15795WAT     H247628   8.656   3.498   5.292
15796WAT      O47629   7.991   5.503   4.688
15796WAT     H147630   7.941   5.558   4.754
15796WAT     H247631   8.013   5.414   4.727
15797WAT      O47632   0.903   6.988   5.973
15797WAT     H147633   0.878   7.013   6.067
15797WAT     H247634   0.857   7.049   5.909
15798WAT      O47635   4.368   6.156   6.116
15798WAT     H147636   4.447   6.096   6.101
15798WAT     H247637   4.389   6.247   6.082
15799WAT      O47638   4.305   2.130   6.854
15799WAT     H147639   4.324   2.152   6.758
15799WAT     H247640   4.306   2.214   6.908
15800WAT      O47641   4.797   3.829   2.107
15800WAT     H147642   4.766   3.736   2.124
15800WAT     H247643   4.892   3.827   2.076
15801WAT      O47644   0.851   4.864   8.679
15801WAT     H147645   0.766   4.811   8.678
15801WAT     H247646   0.923   4.810   8.722
15802WAT      O47647   0.518   4.490   1.502
15802WAT     H147648   0.540   4.540   1.419
15802WAT     H247649   0.477   4.552   1.569
15803WAT      O47650   7.897   1.245   5.578
15803WAT     H147651   7.943   1.313   5.521
15803WAT     H247652   7.800   1.240   5.553
15804WAT      O47653   2.227   5.773   5.887
15804WAT     H147654   2.205   5.839   5.815
15804WAT     H247655   2.287   5.816   5.954
15805WAT      O47656   3.814   7.064   3.783
15805WAT     H147657   3.738   7.067   3.847
15805WAT     H247658   3.801   7.133   3.712
15806WAT      O47659   0.212   2.206   7.707
15806WAT     H147660   0.185   2.110   7.700
15806WAT     H247661   0.167   2.249   7.785
15807WAT      O47662   5.912   9.807   0.439
15807WAT     H147663   5.830   9.765   0.477
15807WAT     H247664   5.966   9.847   0.513
15808WAT      O47665   8.911   6.729   7.189
15808WAT     H147666   8.973   6.796   7.148
15808WAT     H247667   8.907   6.647   7.133
15809WAT      O47668   5.692   4.794   1.753
15809WAT     H147669   5.730   4.702   1.752
15809WAT     H247670   5.618   4.799   1.820
15810WAT      O47671   1.038   8.880   2.459
15810WAT     H147672   0.982   8.895   2.377
15810WAT     H247673   0.981   8.888   2.541
15811WAT      O47674   1.944   8.002   7.679
15811WAT     H147675   2.032   7.955   7.679
15811WAT     H247676   1.955   8.094   7.716
15812WAT      O47677   5.373   6.588   3.247
15812WAT     H147678   5.380   6.490   3.228
15812WAT     H247679   5.307   6.603   3.320
15813WAT      O47680   2.687   6.706   0.755
15813WAT     H147681   2.729   6.796   0.748
15813WAT     H247682   2.612   6.699   0.689
15814WAT      O47683   4.945   1.194   4.292
15814WAT     H147684   4.877   1.144   4.238
15814WAT     H247685   4.919   1.290   4.297
15815WAT      O47686   6.005   9.022   7.760
15815WAT     H147687   6.037   9.113   7.734
15815WAT     H247688   6.067   8.984   7.828
15816WAT      O47689   6.341   3.887   9.470
15816WAT     H147690   6.368   3.891   9.374
15816WAT     H247691   6.382   3.964   9.519
15817WAT      O47692   5.962   6.457   5.049
15817WAT     H147693   5.999   6.547   5.075
15817WAT     H247694   5.866   6.467   5.026
15818WAT      O47695   3.526   8.341   7.644
15818WAT     H147696   3.602   8.283   7.613
15818WAT     H247697   3.450   8.334   7.580
15819WAT      O47698   6.388   6.234   4.612
15819WAT     H147699   6.347   6.304   4.554
15819WAT     H247700   6.350   6.145   4.589
15820WAT      O47701   1.958   9.087   3.675
15820WAT     H147702   1.935   8.995   3.708
15820WAT     H247703   2.035   9.083   3.612
15821WAT      O47704   6.610   9.071   0.887
15821WAT     H147705   6.682   9.053   0.954
15821WAT     H247706   6.638   9.147   0.829
15822WAT      O47707   5.041   6.661   9.293
15822WAT     H147708   5.059   6.706   9.205
15822WAT     H247709   4.964   6.706   9.339
15823WAT      O47710   0.836   8.148   1.059
15823WAT     H147711   0.873   8.216   1.122
15823WAT     H247712   0.746   8.119   1.091
15824WAT      O47713   5.189   8.451   4.785
15824WAT     H147714   5.252   8.469   4.709
15824WAT     H247715   5.229   8.383   4.846
15825WAT      O47716   4.417   5.420   1.743
15825WAT     H147717   4.374   5.333   1.768
15825WAT     H247718   4.360   5.496   1.776
15826WAT      O47719   9.059   8.577   6.760
15826WAT     H147720   9.111   8.496   6.790
15826WAT     H247721   9.006   8.554   6.679
15827WAT      O47722   8.966   9.128   7.890
15827WAT     H147723   9.014   9.102   7.974
15827WAT     H247724   9.032   9.141   7.816
15828WAT      O47725   1.785   9.168   7.942
15828WAT     H147726   1.730   9.103   7.995
15828WAT     H247727   1.724   9.225   7.887
15829WAT      O47728   1.764   1.166   6.849
15829WAT     H147729   1.744   1.223   6.770
15829WAT     H247730   1.711   1.198   6.928
15830WAT      O47731   2.980   1.457   0.874
15830WAT     H147732   2.946   1.503   0.956
15830WAT     H247733   2.914   1.387   0.846
15831WAT      O47734   7.921   5.501   2.379
15831WAT     H147735   8.012   5.483   2.343
15831WAT     H247736   7.866   5.418   2.372
15832WAT      O47737   5.615   3.544   8.335
15832WAT     H147738   5.616   3.494   8.422
15832WAT     H247739   5.697   3.520   8.283
15833WAT      O47740   8.686   8.881   8.393
15833WAT     H147741   8.726   8.942   8.462
15833WAT     H247742   8.723   8.903   8.303
15834WAT      O47743   5.963   5.131   8.286
15834WAT     H147744   5.897   5.127   8.361
15834WAT     H247745   5.953   5.217   8.236
15835WAT      O47746   6.047   6.623   2.709
15835WAT     H147747   5.975   6.685   2.678
15835WAT     H247748   6.134   6.672   2.713
15836WAT      O47749   4.545   3.617   7.223
15836WAT     H147750   4.639   3.633   7.196
15836WAT     H247751   4.508   3.540   7.170
15837WAT      O47752   8.805   6.565   8.981
15837WAT     H147753   8.846   6.555   9.071
15837WAT     H247754   8.778   6.660   8.966
15838WAT      O47755   3.049   7.468   2.930
15838WAT     H147756   3.119   7.528   2.970
15838WAT     H247757   3.082   7.374   2.931
15839WAT      O47758   9.190   5.962   3.766
15839WAT     H147759   9.144   6.038   3.811
15839WAT     H247760   9.156   5.952   3.672
15840WAT      O47761   9.823   7.195   1.330
15840WAT     H147762   9.838   7.153   1.420
15840WAT     H247763   9.756   7.268   1.339
15841WAT      O47764   6.308   4.186   4.220
15841WAT     H147765   6.345   4.097   4.243
15841WAT     H247766   6.381   4.245   4.185
15842WAT      O47767   0.155   1.566   8.565
15842WAT     H147768   0.111   1.505   8.499
15842WAT     H247769   0.124   1.660   8.551
15843WAT      O47770   1.340   3.251   2.870
15843WAT     H147771   1.387   3.340   2.866
15843WAT     H247772   1.379   3.196   2.943
15844WAT      O47773   2.578   0.241   3.256
15844WAT     H147774   2.518   0.272   3.329
15844WAT     H247775   2.615   0.320   3.207
15845WAT      O47776   3.578   1.693   1.623
15845WAT     H147777   3.582   1.768   1.690
15845WAT     H247778   3.656   1.699   1.561
15846WAT      O47779   5.095   5.859   3.859
15846WAT     H147780   5.109   5.797   3.937
15846WAT     H247781   5.157   5.937   3.867
15847WAT      O47782   2.279   8.014   0.625
15847WAT     H147783   2.237   8.099   0.655
15847WAT     H247784   2.258   7.998   0.528
15848WAT      O47785   9.430   8.728   1.068
15848WAT     H147786   9.416   8.739   1.167
15848WAT     H247787   9.527   8.734   1.047
15849WAT      O47788   9.415   0.861   6.548
15849WAT     H147789   9.437   0.901   6.459
15849WAT     H247790   9.492   0.875   6.610
15850WAT      O47791   3.046   2.900   1.902
15850WAT     H147792   2.948   2.922   1.907
15850WAT     H247793   3.058   2.800   1.907
15851WAT      O47794   1.977   0.093   9.361
15851WAT     H147795   2.053   0.067   9.421
15851WAT     H247796   1.954   0.189   9.375
15852WAT      O47797   3.325   2.415   4.399
15852WAT     H147798   3.283   2.505   4.410
15852WAT     H247799   3.318   2.364   4.485
15853WAT      O47800   1.539   4.431   9.095
15853WAT     H147801   1.558   4.387   9.008
15853WAT     H247802   1.508   4.363   9.161
15854WAT      O47803   2.225   2.652   2.943
15854WAT     H147804   2.211   2.655   3.041
15854WAT     H247805   2.246   2.558   2.915
15855WAT      O47806   7.650   1.211   4.903
15855WAT     H147807   7.567   1.205   4.960
15855WAT     H247808   7.724   1.251   4.957
15856WAT      O47809   6.979   8.861   6.614
15856WAT     H147810   6.955   8.765   6.598
15856WAT     H247811   6.904   8.907   6.660
15857WAT      O47812   9.218   6.163   8.260
15857WAT     H147813   9.251   6.069   8.246
15857WAT     H247814   9.268   6.225   8.200
15858WAT      O47815   0.493   7.667   9.885
15858WAT     H147816   0.537   7.589   9.838
15858WAT     H247817   0.519   7.752   9.839
15859WAT      O47818   7.317   2.107   4.821
15859WAT     H147819   7.362   2.138   4.737
15859WAT     H247820   7.227   2.069   4.798
15860WAT      O47821   1.744   8.255   7.239
15860WAT     H147822   1.677   8.183   7.219
15860WAT     H247823   1.697   8.342   7.251
15861WAT      O47824   1.162   6.930   0.763
15861WAT     H147825   1.131   7.024   0.752
15861WAT     H247826   1.234   6.925   0.832
15862WAT      O47827   2.597   3.864   2.348
15862WAT     H147828   2.635   3.794   2.407
15862WAT     H247829   2.654   3.946   2.351
15863WAT      O47830   9.344   6.151   1.166
15863WAT     H147831   9.430   6.188   1.199
15863WAT     H247832   9.268   6.189   1.221
15864WAT      O47833   8.508   5.772   9.608
15864WAT     H147834   8.473   5.684   9.642
15864WAT     H247835   8.449   5.804   9.534
15865WAT      O47836   1.973   4.910   0.118
15865WAT     H147837   1.974   4.810   0.110
15865WAT     H247838   1.917   4.948   0.044
15866WAT      O47839   1.094   8.548   1.117
15866WAT     H147840   1.098   8.483   1.041
15866WAT     H247841   1.023   8.616   1.099
15867WAT      O47842   7.382   2.065   7.996
15867WAT     H147843   7.342   2.042   7.907
15867WAT     H247844   7.310   2.099   8.057
15868WAT      O47845   7.279   8.397   4.790
15868WAT     H147846   7.334   8.315   4.773
15868WAT     H247847   7.210   8.376   4.860
15869WAT      O47848   0.821   8.621   9.293
15869WAT     H147849   0.773   8.705   9.266
15869WAT     H247850   0.769   8.542   9.262
15870WAT      O47851   7.904   9.196   5.817
15870WAT     H147852   7.865   9.109   5.786
15870WAT     H247853   7.915   9.257   5.738
15871WAT      O47854   1.060   5.974   0.963
15871WAT     H147855   1.033   6.006   0.872
15871WAT     H247856   1.122   6.041   1.005
15872WAT      O47857   6.201   6.160   6.496
15872WAT     H147858   6.190   6.062   6.514
15872WAT     H247859   6.289   6.175   6.451
15873WAT      O47860   6.722   0.865   3.233
15873WAT     H147861   6.713   0.924   3.314
15873WAT     H247862   6.819   0.853   3.212
15874WAT      O47863   7.754   9.805   8.654
15874WAT     H147864   7.682   9.766   8.712
15874WAT     H247865   7.719   9.814   8.560
15875WAT      O47866   0.415   4.433   4.608
15875WAT     H147867   0.410   4.529   4.580
15875WAT     H247868   0.481   4.385   4.551
15876WAT      O47869   1.120   8.657   0.417
15876WAT     H147870   1.153   8.563   0.413
15876WAT     H247871   1.020   8.657   0.426
15877WAT      O47872   6.084   8.283   7.449
15877WAT     H147873   6.106   8.341   7.370
15877WAT     H247874   6.167   8.238   7.480
15878WAT      O47875   0.037   1.508   1.165
15878WAT     H147876   0.023   1.410   1.152
15878WAT     H247877  -0.052   1.555   1.166
15879WAT      O47878   6.353   5.404   7.958
15879WAT     H147879   6.324   5.380   7.865
15879WAT     H247880   6.451   5.426   7.958
15880WAT      O47881   4.315   5.754   0.004
15880WAT     H147882   4.393   5.724   0.058
15880WAT     H247883   4.235   5.764   0.063
15881WAT      O47884   7.408   7.818   3.633
15881WAT     H147885   7.485   7.854   3.687
15881WAT     H247886   7.443   7.764   3.557
15882WAT      O47887   6.931   2.622   0.533
15882WAT     H147888   7.006   2.648   0.473
15882WAT     H247889   6.966   2.568   0.610
15883WAT      O47890   2.127   0.912   7.489
15883WAT     H147891   2.187   0.837   7.464
15883WAT     H247892   2.052   0.878   7.546
15884WAT      O47893   1.496   8.861   6.152
15884WAT     H147894   1.506   8.958   6.174
15884WAT     H247895   1.584   8.815   6.163
15885WAT      O47896   7.455   4.858   2.472
15885WAT     H147897   7.419   4.806   2.394
15885WAT     H247898   7.431   4.811   2.557
15886WAT      O47899   4.555   2.124   9.182
15886WAT     H147900   4.491   2.053   9.154
15886WAT     H247901   4.609   2.153   9.102
15887WAT      O47902   7.421   5.779   8.794
15887WAT     H147903   7.399   5.712   8.723
15887WAT     H247904   7.391   5.744   8.883
15888WAT      O47905   6.957   8.646   8.619
15888WAT     H147906   6.889   8.713   8.586
15888WAT     H247907   7.043   8.693   8.636
15889WAT      O47908   9.833   1.049   5.194
15889WAT     H147909   9.932   1.064   5.198
15889WAT     H247910   9.792   1.114   5.130
15890WAT      O47911   3.453   2.872   3.490
15890WAT     H147912   3.363   2.884   3.530
15890WAT     H247913   3.523   2.879   3.561
15891WAT      O47914   9.057   5.979   2.339
15891WAT     H147915   8.971   6.025   2.360
15891WAT     H247916   9.102   6.026   2.263
15892WAT      O47917   2.206   6.191   1.182
15892WAT     H147918   2.136   6.143   1.236
15892WAT     H247919   2.288   6.134   1.175
15893WAT      O47920   4.242   8.805   2.452
15893WAT     H147921   4.147   8.788   2.476
15893WAT     H247922   4.255   8.797   2.354
15894WAT      O47923   5.660   7.034   9.150
15894WAT     H147924   5.665   7.113   9.210
15894WAT     H247925   5.603   6.963   9.191
15895WAT      O47926   5.369   1.474   6.327
15895WAT     H147927   5.353   1.549   6.263
15895WAT     H247928   5.284   1.424   6.341
15896WAT      O47929   0.281   3.734   2.657
15896WAT     H147930   0.202   3.717   2.715
15896WAT     H247931   0.359   3.762   2.713
15897WAT      O47932   1.293   1.750   0.583
15897WAT     H147933   1.278   1.723   0.678
15897WAT     H247934   1.266   1.675   0.523
15898WAT      O47935   8.602   2.806   2.157
15898WAT     H147936   8.623   2.889   2.106
15898WAT     H247937   8.686   2.768   2.195
15899WAT      O47938   8.807   3.735   4.369
15899WAT     H147939   8.718   3.731   4.415
15899WAT     H247940   8.877   3.762   4.435
15900WAT      O47941   1.462   2.796   2.798
15900WAT     H147942   1.523   2.727   2.836
15900WAT     H247943   1.516   2.864   2.748
15901WAT      O47944   3.114   5.604   2.177
15901WAT     H147945   3.161   5.660   2.245
15901WAT     H247946   3.181   5.547   2.129
15902WAT      O47947   0.247   1.188   2.111
15902WAT     H147948   0.345   1.191   2.089
15902WAT     H247949   0.200   1.263   2.064
15903WAT      O47950   7.482   9.327   1.668
15903WAT     H147951   7.391   9.288   1.681
15903WAT     H247952   7.478   9.426   1.681
15904WAT      O47953   1.930   3.564   2.615
15904WAT     H147954   1.977   3.484   2.652
15904WAT     H247955   1.833   3.561   2.640
15905WAT      O47956   1.410   8.255   2.033
15905WAT     H147957   1.448   8.178   2.083
15905WAT     H247958   1.361   8.315   2.096
15906WAT      O47959   3.570   5.442   8.718
15906WAT     H147960   3.491   5.381   8.715
15906WAT     H247961   3.540   5.536   8.706
15907WAT      O47962   2.923   7.726   4.587
15907WAT     H147963   3.012   7.681   4.601
15907WAT     H247964   2.855   7.684   4.646
15908WAT      O47965   2.996   5.896   1.180
15908WAT     H147966   3.031   5.872   1.090
15908WAT     H247967   3.039   5.982   1.211
15909WAT      O47968   2.079   7.815   9.012
15909WAT     H147969   2.061   7.720   9.035
15909WAT     H247970   2.143   7.819   8.935
15910WAT      O47971   9.275   7.480   4.602
15910WAT     H147972   9.355   7.498   4.659
15910WAT     H247973   9.303   7.438   4.516
15911WAT      O47974   1.333   8.154   3.970
15911WAT     H147975   1.315   8.058   3.992
15911WAT     H247976   1.431   8.170   3.970
15912WAT      O47977   2.472   5.349   7.969
15912WAT     H147978   2.409   5.339   8.046
15912WAT     H247979   2.536   5.272   7.968
15913WAT      O47980   1.621   8.157   6.917
15913WAT     H147981   1.706   8.209   6.930
15913WAT     H247982   1.597   8.111   7.002
15914WAT      O47983   9.406   4.568   6.406
15914WAT     H147984   9.365   4.499   6.465
15914WAT     H247985   9.380   4.659   6.439
15915WAT      O47986   0.649   5.697   2.921
15915WAT     H147987   0.695   5.701   2.832
15915WAT     H247988   0.717   5.678   2.992
15916WAT      O47989   3.495   4.775   0.110
15916WAT     H147990   3.475   4.677   0.105
15916WAT     H247991   3.441   4.817   0.182
15917WAT      O47992   4.038   9.783   5.613
15917WAT     H147993   3.966   9.824   5.558
15917WAT     H247994   4.126   9.797   5.569
15918WAT      O47995   7.578   3.860   3.983
15918WAT     H147996   7.536   3.901   3.901
15918WAT     H247997   7.536   3.899   4.065
15919WAT      O47998   9.812   5.549   0.233
15919WAT     H147999   9.847   5.558   0.327
15919WAT     H248000   9.714   5.564   0.232
15920WAT      O48001   3.608   2.482   5.853
15920WAT     H148002   3.626   2.384   5.843
15920WAT     H248003   3.523   2.495   5.904
15921WAT      O48004   8.241   4.699   2.636
15921WAT     H148005   8.250   4.730   2.542
15921WAT     H248006   8.146   4.705   2.665
15922WAT      O48007   8.999   2.097   6.807
15922WAT     H148008   8.979   2.061   6.898
15922WAT     H248009   9.006   2.022   6.742
15923WAT      O48010   7.946   9.698   8.294
15923WAT     H148011   7.848   9.684   8.280
15923WAT     H248012   7.963   9.726   8.388
15924WAT      O48013   1.101   3.471   5.528
15924WAT     H148014   1.110   3.383   5.482
15924WAT     H248015   1.012   3.511   5.505
15925WAT      O48016   5.552   4.316   2.678
15925WAT     H148017   5.536   4.235   2.735
15925WAT     H248018   5.621   4.296   2.609
15926WAT      O48019   6.451   7.310   5.635
15926WAT     H148020   6.405   7.388   5.679
15926WAT     H248021   6.398   7.281   5.556
15927WAT      O48022   6.239   7.796   5.888
15927WAT     H148023   6.336   7.817   5.875
15927WAT     H248024   6.217   7.798   5.985
15928WAT      O48025   6.745   0.684   8.441
15928WAT     H148026   6.785   0.596   8.414
15928WAT     H248027   6.812   0.737   8.493
15929WAT      O48028   6.431   5.927   9.163
15929WAT     H148029   6.452   5.990   9.087
15929WAT     H248030   6.458   5.834   9.138
15930WAT      O48031   5.628   5.652   5.816
15930WAT     H148032   5.578   5.582   5.765
15930WAT     H248033   5.677   5.610   5.893
15931WAT      O48034   3.615   1.673   3.836
15931WAT     H148035   3.595   1.621   3.753
15931WAT     H248036   3.700   1.724   3.824
15932WAT      O48037   7.733   1.389   0.479
15932WAT     H148038   7.672   1.372   0.556
15932WAT     H248039   7.772   1.303   0.448
15933WAT      O48040   9.858   6.066   1.889
15933WAT     H148041   9.841   6.010   1.971
15933WAT     H248042   9.804   6.149   1.894
15934WAT      O48043   0.687   8.862   9.182
15934WAT     H148044   0.683   8.897   9.276
15934WAT     H248045   0.764   8.904   9.134
15935WAT      O48046   3.619   2.726   0.661
15935WAT     H148047   3.637   2.741   0.758
15935WAT     H248048   3.557   2.649   0.650
15936WAT      O48049   3.402   1.679   5.645
15936WAT     H148050   3.305   1.685   5.669
15936WAT     H248051   3.456   1.726   5.715
15937WAT      O48052   7.453   1.572   2.416
15937WAT     H148053   7.502   1.655   2.443
15937WAT     H248054   7.376   1.597   2.358
15938WAT      O48055   7.203   6.558   0.085
15938WAT     H148056   7.287   6.592   0.128
15938WAT     H248057   7.183   6.613   0.004
15939WAT      O48058   5.148   1.087   0.769
15939WAT     H148059   5.139   1.147   0.849
15939WAT     H248060   5.084   1.010   0.779
15940WAT      O48061   0.856   9.227   3.136
15940WAT     H148062   0.759   9.207   3.128
15940WAT     H248063   0.869   9.312   3.186
15941WAT      O48064   1.375   9.343   5.316
15941WAT     H148065   1.321   9.422   5.287
15941WAT     H248066   1.401   9.289   5.236
15942WAT      O48067   5.985   7.550   8.063
15942WAT     H148068   6.067   7.560   8.008
15942WAT     H248069   5.938   7.466   8.038
15943WAT      O48070   1.616   3.064   0.236
15943WAT     H148071   1.699   3.022   0.272
15943WAT     H248072   1.537   3.035   0.289
15944WAT      O48073   7.410   7.604   7.614
15944WAT     H148074   7.390   7.520   7.563
15944WAT     H248075   7.489   7.588   7.673
15945WAT      O48076   9.776   9.366   4.476
15945WAT     H148077   9.868   9.373   4.438
15945WAT     H248078   9.709   9.364   4.402
15946WAT      O48079   0.999   3.672   4.827
15946WAT     H148080   0.970   3.758   4.786
15946WAT     H248081   0.997   3.600   4.758
15947WAT      O48082   2.528   2.047   0.400
15947WAT     H148083   2.590   2.123   0.377
15947WAT     H248084   2.491   2.008   0.317
15948WAT      O48085   0.200   5.029   1.612
15948WAT     H148086   0.223   4.956   1.549
15948WAT     H248087   0.119   5.078   1.579
15949WAT      O48088   3.262   1.824   3.306
15949WAT     H148089   3.235   1.729   3.322
15949WAT     H248090   3.188   1.873   3.259
15950WAT      O48091   7.888   1.347   7.092
15950WAT     H148092   7.849   1.310   7.008
15950WAT     H248093   7.981   1.379   7.075
15951WAT      O48094   5.225   3.819   2.965
15951WAT     H148095   5.201   3.899   2.910
15951WAT     H248096   5.223   3.844   3.062
15952WAT      O48097   6.971   3.334   0.119
15952WAT     H148098   7.052   3.292   0.161
15952WAT     H248099   6.891   3.315   0.176
15953WAT      O48100   4.505   6.496   4.017
15953WAT     H148101   4.434   6.508   3.948
15953WAT     H248102   4.499   6.570   4.084
15954WAT      O48103   9.325   2.778   1.028
15954WAT     H148104   9.356   2.789   0.933
15954WAT     H248105   9.264   2.699   1.034
15955WAT      O48106   1.080   8.339   3.375
15955WAT     H148107   1.014   8.310   3.445
15955WAT     H248108   1.071   8.279   3.295
15956WAT      O48109   3.447   3.831   8.707
15956WAT     H148110   3.441   3.877   8.619
15956WAT     H248111   3.500   3.888   8.771
15957WAT      O48112   4.515   7.653   2.932
15957WAT     H148113   4.503   7.658   2.833
15957WAT     H248114   4.578   7.578   2.954
15958WAT      O48115   5.163   4.793   8.444
15958WAT     H148116   5.143   4.875   8.390
15958WAT     H248117   5.189   4.820   8.536
15959WAT      O48118   3.701   2.719   2.410
15959WAT     H148119   3.742   2.634   2.442
15959WAT     H248120   3.621   2.741   2.466
15960WAT      O48121   8.947   2.293   3.547
15960WAT     H148122   8.909   2.285   3.455
15960WAT     H248123   9.023   2.357   3.546
15961WAT      O48124   9.720   2.204   8.082
15961WAT     H148125   9.738   2.256   8.166
15961WAT     H248126   9.628   2.226   8.048
15962WAT      O48127   6.824   6.647   8.157
15962WAT     H148128   6.730   6.662   8.127
15962WAT     H248129   6.827   6.640   8.257
15963WAT      O48130   5.687   5.354   8.171
15963WAT     H148131   5.779   5.324   8.146
15963WAT     H248132   5.646   5.404   8.095
15964WAT      O48133   8.581   2.266   2.429
15964WAT     H148134   8.556   2.273   2.526
15964WAT     H248135   8.680   2.276   2.420
15965WAT      O48136   0.425   2.137   9.782
15965WAT     H148137   0.407   2.121   9.685
15965WAT     H248138   0.356   2.200   9.819
15966WAT      O48139   9.617   0.805   9.322
15966WAT     H148140   9.553   0.753   9.266
15966WAT     H248141   9.642   0.751   9.403
15967WAT      O48142   4.572   9.697   6.396
15967WAT     H148143   4.667   9.719   6.372
15967WAT     H248144   4.570   9.608   6.441
15968WAT      O48145   0.040   0.603   7.403
15968WAT     H148146   0.098   0.541   7.350
15968WAT     H248147   0.071   0.603   7.499
15969WAT      O48148   6.288   0.499   4.031
15969WAT     H148149   6.285   0.595   4.059
15969WAT     H248150   6.288   0.441   4.112
15970WAT      O48151   2.369   6.600   2.685
15970WAT     H148152   2.291   6.660   2.700
15970WAT     H248153   2.337   6.506   2.671
15971WAT      O48154   2.481   0.008   8.221
15971WAT     H148155   2.504  -0.063   8.287
15971WAT     H248156   2.546   0.004   8.145
15972WAT      O48157   8.869   8.099   4.999
15972WAT     H148158   8.909   8.168   4.939
15972WAT     H248159   8.894   8.008   4.967
15973WAT      O48160   6.868   1.500   3.796
15973WAT     H148161   6.846   1.488   3.893
15973WAT     H248162   6.967   1.512   3.785
15974WAT      O48163   6.330   3.324   5.415
15974WAT     H148164   6.313   3.269   5.333
15974WAT     H248165   6.423   3.310   5.446
15975WAT      O48166   0.741   1.539   5.908
15975WAT     H148167   0.717   1.472   5.837
15975WAT     H248168   0.666   1.546   5.974
15976WAT      O48169   6.597   5.205   6.914
15976WAT     H148170   6.546   5.146   6.850
15976WAT     H248171   6.695   5.197   6.895
15977WAT      O48172   0.809   6.613   6.747
15977WAT     H148173   0.832   6.577   6.657
15977WAT     H248174   0.719   6.578   6.775
15978WAT      O48175   3.199   9.653   0.844
15978WAT     H148176   3.201   9.752   0.853
15978WAT     H248177   3.239   9.627   0.756
15979WAT      O48178   4.269   9.467   2.715
15979WAT     H148179   4.304   9.386   2.669
15979WAT     H248180   4.177   9.488   2.680
15980WAT      O48181   8.690   7.904   6.216
15980WAT     H148182   8.630   7.844   6.269
15980WAT     H248183   8.703   7.865   6.124
15981WAT      O48184   3.455   2.185   9.249
15981WAT     H148185   3.414   2.227   9.329
15981WAT     H248186   3.426   2.090   9.243
15982WAT      O48187   5.814   2.052   4.447
15982WAT     H148188   5.755   2.113   4.501
15982WAT     H248189   5.766   1.966   4.430
15983WAT      O48190   2.949   5.420   2.523
15983WAT     H148191   2.998   5.449   2.605
15983WAT     H248192   2.892   5.495   2.490
15984WAT      O48193   4.282   3.608   0.977
15984WAT     H148194   4.367   3.615   1.029
15984WAT     H248195   4.228   3.532   1.012
15985WAT      O48196   9.883   0.155   0.593
15985WAT     H148197   9.893   0.139   0.495
15985WAT     H248198   9.846   0.073   0.637
15986WAT      O48199   7.324   2.082   2.928
15986WAT     H148200   7.229   2.058   2.948
15986WAT     H248201   7.338   2.087   2.829
15987WAT      O48202   5.205   4.897   0.454
15987WAT     H148203   5.256   4.815   0.481
15987WAT     H248204   5.242   4.977   0.501
15988WAT      O48205   8.771   8.719   9.834
15988WAT     H148206   8.792   8.670   9.749
15988WAT     H248207   8.765   8.654   9.909
15989WAT      O48208   7.487   7.183   7.318
15989WAT     H148209   7.478   7.218   7.225
15989WAT     H248210   7.579   7.148   7.332
15990WAT      O48211   6.865   8.659   2.329
15990WAT     H148212   6.856   8.752   2.364
15990WAT     H248213   6.826   8.594   2.395
15991WAT      O48214   8.065   4.523   2.951
15991WAT     H148215   8.159   4.516   2.984
15991WAT     H248216   8.012   4.444   2.985
15992WAT      O48217   5.345   3.428   1.128
15992WAT     H148218   5.248   3.407   1.143
15992WAT     H248219   5.391   3.440   1.216
15993WAT      O48220   0.707   9.333   1.804
15993WAT     H148221   0.666   9.334   1.895
15993WAT     H248222   0.636   9.337   1.735
15994WAT      O48223   8.759   5.789   6.893
15994WAT     H148224   8.720   5.728   6.824
15994WAT     H248225   8.703   5.786   6.976
15995WAT      O48226   2.021   4.973   1.860
15995WAT     H148227   2.072   5.056   1.876
15995WAT     H248228   1.956   4.987   1.784
15996WAT      O48229   5.355   0.884   8.779
15996WAT     H148230   5.342   0.908   8.875
15996WAT     H248231   5.322   0.959   8.721
15997WAT      O48232   4.249   1.953   1.391
15997WAT     H148233   4.195   1.999   1.320
15997WAT     H248234   4.321   2.014   1.423
15998WAT      O48235   7.144   5.408   1.342
15998WAT     H148236   7.194   5.495   1.340
15998WAT     H248237   7.088   5.400   1.259
15999WAT      O48238   6.853   4.665   2.596
15999WAT     H148239   6.813   4.757   2.598
15999WAT     H248240   6.911   4.656   2.515
16000WAT      O48241   6.533   0.370   0.317
16000WAT     H148242   6.590   0.392   0.397
16000WAT     H248243   6.578   0.403   0.234
16001WAT      O48244   0.667   6.671   9.593
16001WAT     H148245   0.621   6.758   9.575
16001WAT     H248246   0.642   6.638   9.684
16002WAT      O48247   7.813   7.639   7.756
16002WAT     H148248   7.743   7.572   7.732
16002WAT     H248249   7.769   7.726   7.778
16003WAT      O48250   5.261   3.565   7.770
16003WAT     H148251   5.323   3.580   7.847
16003WAT     H248252   5.205   3.646   7.755
16004WAT      O48253   9.453   3.937   9.608
16004WAT     H148254   9.378   3.983   9.559
16004WAT     H248255   9.426   3.843   9.628
16005WAT      O48256   4.915   9.619   3.931
16005WAT     H148257   4.954   9.669   3.854
16005WAT     H248258   4.866   9.539   3.898
16006WAT      O48259   3.343   5.623   9.040
16006WAT     H148260   3.440   5.613   9.065
16006WAT     H248261   3.335   5.681   8.959
16007WAT      O48262   4.326   4.116   8.268
16007WAT     H148263   4.351   4.089   8.361
16007WAT     H248264   4.259   4.190   8.270
16008WAT      O48265   0.527   0.017   4.157
16008WAT     H148266   0.496  -0.066   4.203
16008WAT     H248267   0.453   0.052   4.098
16009WAT      O48268   0.635   9.430   2.116
16009WAT     H148269   0.683   9.345   2.134
16009WAT     H248270   0.537   9.418   2.137
16010WAT      O48271   4.995   8.257   0.796
16010WAT     H148272   4.957   8.287   0.883
16010WAT     H248273   5.015   8.337   0.739
16011WAT      O48274   0.939   5.021   6.752
16011WAT     H148275   0.987   4.996   6.836
16011WAT     H248276   0.891   5.108   6.766
16012WAT      O48277   0.407   4.427   3.674
16012WAT     H148278   0.435   4.466   3.762
16012WAT     H248279   0.458   4.342   3.658
16013WAT      O48280   2.726   6.371   3.243
16013WAT     H148281   2.729   6.388   3.144
16013WAT     H248282   2.812   6.399   3.284
16014WAT      O48283   4.448   5.126   7.928
16014WAT     H148284   4.545   5.150   7.924
16014WAT     H248285   4.417   5.130   8.023
16015WAT      O48286   0.551   7.750   3.190
16015WAT     H148287   0.647   7.769   3.170
16015WAT     H248288   0.507   7.833   3.224
16016WAT      O48289   2.206   2.582   6.690
16016WAT     H148290   2.168   2.504   6.641
16016WAT     H248291   2.137   2.654   6.696
16017WAT      O48292   1.147   0.521   5.293
16017WAT     H148293   1.151   0.576   5.376
16017WAT     H248294   1.181   0.429   5.312
16018WAT      O48295   1.789   2.853   8.403
16018WAT     H148296   1.770   2.897   8.316
16018WAT     H248297   1.703   2.829   8.448
16019WAT      O48298   1.965   8.797   7.938
16019WAT     H148299   1.978   8.845   7.851
16019WAT     H248300   2.001   8.853   8.013
16020WAT      O48301   1.132   3.497   2.501
16020WAT     H148302   1.116   3.403   2.470
16020WAT     H248303   1.223   3.526   2.471
16021WAT      O48304   8.055   5.674   1.897
16021WAT     H148305   8.147   5.711   1.906
16021WAT     H248306   8.059   5.577   1.876
16022WAT      O48307   9.014   4.244   5.632
16022WAT     H148308   8.929   4.214   5.677
16022WAT     H248309   9.048   4.171   5.573
16023WAT      O48310   8.955   1.562   0.637
16023WAT     H148311   9.018   1.619   0.690
16023WAT     H248312   8.902   1.620   0.575
16024WAT      O48313   5.492   1.118   4.425
16024WAT     H148314   5.573   1.121   4.484
16024WAT     H248315   5.506   1.051   4.352
16025WAT      O48316   4.756   2.879   9.863
16025WAT     H148317   4.828   2.914   9.922
16025WAT     H248318   4.690   2.827   9.919
16026WAT      O48319   8.988   3.947   4.219
16026WAT     H148320   8.928   3.868   4.229
16026WAT     H248321   8.993   3.996   4.306
16027WAT      O48322   0.111   0.691   9.776
16027WAT     H148323   0.202   0.732   9.788
16027WAT     H248324   0.100   0.614   9.839
16028WAT      O48325   6.022   5.900   8.020
16028WAT     H148326   6.020   5.800   8.025
16028WAT     H248327   6.116   5.932   8.028
16029WAT      O48328   5.958   1.198   5.899
16029WAT     H148329   6.035   1.238   5.848
16029WAT     H248330   5.898   1.271   5.930
16030WAT      O48331   8.606   5.323   8.053
16030WAT     H148332   8.620   5.359   7.961
16030WAT     H248333   8.651   5.384   8.119
16031WAT      O48334   4.154   1.106   7.030
16031WAT     H148335   4.170   1.178   7.098
16031WAT     H248336   4.151   1.147   6.938
16032WAT      O48337   8.936   6.252   0.192
16032WAT     H148338   8.935   6.176   0.257
16032WAT     H248339   8.857   6.310   0.207
16033WAT      O48340   2.545   1.614   2.700
16033WAT     H148341   2.560   1.693   2.640
16033WAT     H248342   2.461   1.566   2.673
16034WAT      O48343   6.080   3.536   0.689
16034WAT     H148344   6.108   3.489   0.773
16034WAT     H248345   6.159   3.576   0.645
16035WAT      O48346   8.763   0.094   6.737
16035WAT     H148347   8.857   0.097   6.770
16035WAT     H248348   8.708   0.161   6.786
16036WAT      O48349   7.520   1.826   3.786
16036WAT     H148350   7.555   1.764   3.857
16036WAT     H248351   7.595   1.878   3.747
16037WAT      O48352   0.077   8.321   7.942
16037WAT     H148353   0.153   8.268   7.904
16037WAT     H248354   0.049   8.281   8.029
16038WAT      O48355   1.934   5.334   9.701
16038WAT     H148356   1.981   5.329   9.789
16038WAT     H248357   2.001   5.320   9.627
16039WAT      O48358   5.354   3.867   3.559
16039WAT     H148359   5.290   3.792   3.575
16039WAT     H248360   5.447   3.832   3.558
16040WAT      O48361   8.358   3.002   0.952
16040WAT     H148362   8.456   3.017   0.935
16040WAT     H248363   8.348   2.937   1.027
16041WAT      O48364   8.553   3.791   7.168
16041WAT     H148365   8.558   3.708   7.112
16041WAT     H248366   8.479   3.850   7.135
16042WAT      O48367   3.958   3.928   8.079
16042WAT     H148368   3.943   3.993   8.153
16042WAT     H248369   4.056   3.916   8.064
16043WAT      O48370   3.559   8.355   3.662
16043WAT     H148371   3.648   8.313   3.645
16043WAT     H248372   3.489   8.304   3.613
16044WAT      O48373   8.422   5.536   9.745
16044WAT     H148374   8.356   5.592   9.795
16044WAT     H248375   8.373   5.463   9.696
16045WAT      O48376   1.642   3.740   7.012
16045WAT     H148377   1.577   3.809   6.979
16045WAT     H248378   1.695   3.706   6.935
16046WAT      O48379   7.473   7.853   2.578
16046WAT     H148380   7.540   7.829   2.647
16046WAT     H248381   7.460   7.952   2.575
16047WAT      O48382   5.621   0.871   7.378
16047WAT     H148383   5.680   0.806   7.330
16047WAT     H248384   5.628   0.855   7.477
16048WAT      O48385   0.354   8.236   7.943
16048WAT     H148386   0.374   8.258   8.038
16048WAT     H248387   0.359   8.319   7.887
16049WAT      O48388   8.958   4.088   4.470
16049WAT     H148389   8.869   4.058   4.504
16049WAT     H248390   8.954   4.186   4.449
16050WAT      O48391   2.810   8.018   9.508
16050WAT     H148392   2.868   7.966   9.445
16050WAT     H248393   2.835   7.995   9.602
16051WAT      O48394   4.617   2.702   7.434
16051WAT     H148395   4.689   2.754   7.480
16051WAT     H248396   4.537   2.760   7.419
16052WAT      O48397   4.485   2.255   1.021
16052WAT     H148398   4.410   2.304   0.975
16052WAT     H248399   4.555   2.233   0.954
16053WAT      O48400   7.404   9.639   8.646
16053WAT     H148401   7.467   9.607   8.575
16053WAT     H248402   7.455   9.653   8.732
16054WAT      O48403   2.126   8.887   4.474
16054WAT     H148404   2.196   8.958   4.469
16054WAT     H248405   2.055   8.914   4.538
16055WAT      O48406   5.175   6.370   3.671
16055WAT     H148407   5.251   6.362   3.606
16055WAT     H248408   5.208   6.413   3.755
16056WAT      O48409   1.743   5.814   7.428
16056WAT     H148410   1.837   5.819   7.396
16056WAT     H248411   1.728   5.882   7.500
16057WAT      O48412   6.986   0.848   2.898
16057WAT     H148413   7.075   0.850   2.853
16057WAT     H248414   6.915   0.874   2.832
16058WAT      O48415   2.200   9.017   0.687
16058WAT     H148416   2.218   8.949   0.617
16058WAT     H248417   2.283   9.033   0.741
16059WAT      O48418   3.811   4.413   6.882
16059WAT     H148419   3.845   4.503   6.855
16059WAT     H248420   3.889   4.353   6.902
16060WAT      O48421   9.870   5.132   5.493
16060WAT     H148422   9.965   5.160   5.480
16060WAT     H248423   9.811   5.213   5.486
16061WAT      O48424   3.445   1.618   8.406
16061WAT     H148425   3.469   1.565   8.487
16061WAT     H248426   3.520   1.613   8.339
16062WAT      O48427   2.564   6.352   6.509
16062WAT     H148428   2.625   6.410   6.562
16062WAT     H248429   2.592   6.353   6.413
16063WAT      O48430   2.379   0.345   2.573
16063WAT     H148431   2.355   0.250   2.553
16063WAT     H248432   2.457   0.347   2.636
16064WAT      O48433   8.925   4.952   1.654
16064WAT     H148434   9.013   4.986   1.622
16064WAT     H248435   8.937   4.902   1.740
16065WAT      O48436   0.396   4.248   1.866
16065WAT     H148437   0.454   4.233   1.946
16065WAT     H248438   0.453   4.264   1.786
16066WAT      O48439   6.365   7.342   7.338
16066WAT     H148440   6.416   7.273   7.287
16066WAT     H248441   6.276   7.305   7.365
16067WAT      O48442   2.796   0.849   0.063
16067WAT     H148443   2.790   0.918   0.135
16067WAT     H248444   2.884   0.801   0.069
16068WAT      O48445   9.338   4.908   6.316
16068WAT     H148446   9.304   4.847   6.388
16068WAT     H248447   9.334   4.861   6.228
16069WAT      O48448   1.643   2.062   0.474
16069WAT     H148449   1.610   1.982   0.523
16069WAT     H248450   1.690   2.034   0.390
16070WAT      O48451   6.291   1.934   3.888
16070WAT     H148452   6.201   1.910   3.923
16070WAT     H248453   6.317   1.870   3.816
16071WAT      O48454   4.714   0.186   6.379
16071WAT     H148455   4.728   0.115   6.310
16071WAT     H248456   4.752   0.272   6.346
16072WAT      O48457   8.271   6.405   1.112
16072WAT     H148458   8.257   6.317   1.067
16072WAT     H248459   8.359   6.442   1.084
16073WAT      O48460   0.111   7.702   4.585
16073WAT     H148461   0.115   7.608   4.551
16073WAT     H248462   0.017   7.736   4.579
16074WAT      O48463   5.720   5.146   3.591
16074WAT     H148464   5.720   5.095   3.677
16074WAT     H248465   5.809   5.138   3.546
16075WAT      O48466   2.111   2.977   0.618
16075WAT     H148467   2.198   3.008   0.655
16075WAT     H248468   2.075   3.047   0.555
16076WAT      O48469   2.343   8.607   8.201
16076WAT     H148470   2.413   8.652   8.255
16076WAT     H248471   2.322   8.518   8.240
16077WAT      O48472   4.594   5.436   1.267
16077WAT     H148473   4.528   5.441   1.342
16077WAT     H248474   4.560   5.488   1.188
16078WAT      O48475   9.522   6.845   1.915
16078WAT     H148476   9.545   6.754   1.950
16078WAT     H248477   9.555   6.854   1.821
16079WAT      O48478   4.759   2.276   3.924
16079WAT     H148479   4.855   2.249   3.918
16079WAT     H248480   4.742   2.322   4.010
16080WAT      O48481   2.913   0.166   7.562
16080WAT     H148482   2.887   0.222   7.642
16080WAT     H248483   3.002   0.124   7.578
16081WAT      O48484   6.750   4.858   9.637
16081WAT     H148485   6.665   4.911   9.631
16081WAT     H248486   6.825   4.918   9.666
16082WAT      O48487   0.380   1.309   4.741
16082WAT     H148488   0.442   1.375   4.784
16082WAT     H248489   0.296   1.303   4.794
16083WAT      O48490   7.651   8.113   9.551
16083WAT     H148491   7.560   8.091   9.515
16083WAT     H248492   7.653   8.208   9.580
16084WAT      O48493   1.259   8.436   1.671
16084WAT     H148494   1.169   8.403   1.700
16084WAT     H248495   1.254   8.534   1.653
16085WAT      O48496   2.962   9.511   0.900
16085WAT     H148497   3.051   9.553   0.884
16085WAT     H248498   2.895   9.582   0.923
16086WAT      O48499   7.707   7.449   8.245
16086WAT     H148500   7.728   7.378   8.178
16086WAT     H248501   7.776   7.521   8.239
16087WAT      O48502   1.121   1.067   5.922
16087WAT     H148503   1.179   1.046   5.843
16087WAT     H248504   1.053   1.135   5.895
16088WAT      O48505   4.216   8.217   9.278
16088WAT     H148506   4.144   8.285   9.292
16088WAT     H248507   4.237   8.172   9.364
16089WAT      O48508   0.890   1.688   4.315
16089WAT     H148509   0.815   1.623   4.308
16089WAT     H248510   0.867   1.771   4.263
16090WAT      O48511   0.928   0.743   5.518
16090WAT     H148512   0.900   0.658   5.473
16090WAT     H248513   0.908   0.820   5.457
16091WAT      O48514   8.980   0.866   3.919
16091WAT     H148515   8.890   0.908   3.929
16091WAT     H248516   9.016   0.842   4.009
16092WAT      O48517   9.486   1.552   8.010
16092WAT     H148518   9.443   1.606   8.083
16092WAT     H248519   9.566   1.600   7.976
16093WAT      O48520   3.154   2.118   9.278
16093WAT     H148521   3.202   2.107   9.365
16093WAT     H248522   3.097   2.038   9.260
16094WAT      O48523   2.835   8.766   4.549
16094WAT     H148524   2.812   8.797   4.641
16094WAT     H248525   2.767   8.699   4.519
16095WAT      O48526   2.513   8.309   0.601
16095WAT     H148527   2.435   8.368   0.622
16095WAT     H248528   2.520   8.297   0.502
16096WAT      O48529   8.657   8.128   4.450
16096WAT     H148530   8.622   8.106   4.358
16096WAT     H248531   8.596   8.193   4.494
16097WAT      O48532   0.298   5.487   3.415
16097WAT     H148533   0.262   5.416   3.355
16097WAT     H248534   0.281   5.577   3.376
16098WAT      O48535   7.828   6.911   6.250
16098WAT     H148536   7.832   7.009   6.231
16098WAT     H248537   7.759   6.869   6.191
16099WAT      O48538   9.243   0.156   0.268
16099WAT     H148539   9.244   0.191   0.361
16099WAT     H248540   9.323   0.190   0.218
16100WAT      O48541   4.387   0.019   2.410
16100WAT     H148542   4.326   0.029   2.489
16100WAT     H248543   4.342   0.055   2.328
16101WAT      O48544   5.231   7.763   1.100
16101WAT     H148545   5.257   7.685   1.043
16101WAT     H248546   5.221   7.844   1.042
16102WAT      O48547   1.838   2.333   2.573
16102WAT     H148548   1.898   2.380   2.637
16102WAT     H248549   1.812   2.396   2.499
16103WAT      O48550   6.313   4.760   7.336
16103WAT     H148551   6.238   4.791   7.277
16103WAT     H248552   6.383   4.831   7.341
16104WAT      O48553   9.750   5.603   3.860
16104WAT     H148554   9.836   5.654   3.869
16104WAT     H248555   9.693   5.621   3.940
16105WAT      O48556   0.978   7.830   6.101
16105WAT     H148557   0.972   7.747   6.044
16105WAT     H248558   1.071   7.867   6.094
16106WAT      O48559   1.313   7.794   1.033
16106WAT     H148560   1.325   7.893   1.036
16106WAT     H248561   1.235   7.768   1.090
16107WAT      O48562   4.972   9.523   1.248
16107WAT     H148563   4.985   9.523   1.347
16107WAT     H248564   5.057   9.550   1.203
16108WAT      O48565   1.799   2.988   3.888
16108WAT     H148566   1.849   3.068   3.854
16108WAT     H248567   1.818   2.976   3.986
16109WAT      O48568   3.332   5.117   3.190
16109WAT     H148569   3.244   5.148   3.154
16109WAT     H248570   3.379   5.061   3.122
16110WAT      O48571   7.260   8.563   8.133
16110WAT     H148572   7.351   8.600   8.154
16110WAT     H248573   7.270   8.474   8.090
16111WAT      O48574   8.172   8.566   6.513
16111WAT     H148575   8.189   8.625   6.592
16111WAT     H248576   8.086   8.516   6.526
16112WAT      O48577   7.925   3.134   2.586
16112WAT     H148578   7.929   3.065   2.657
16112WAT     H248579   7.830   3.146   2.556
16113WAT      O48580   1.510   0.156   0.175
16113WAT     H148581   1.455   0.087   0.222
16113WAT     H248582   1.606   0.144   0.199
16114WAT      O48583   7.564   0.985   9.025
16114WAT     H148584   7.631   1.036   8.972
16114WAT     H248585   7.598   0.971   9.118
16115WAT      O48586   3.423   1.448   4.967
16115WAT     H148587   3.475   1.465   5.050
16115WAT     H248588   3.479   1.470   4.887
16116WAT      O48589   7.363   0.540   4.498
16116WAT     H148590   7.431   0.613   4.500
16116WAT     H248591   7.301   0.555   4.421
16117WAT      O48592   6.795   3.125   8.726
16117WAT     H148593   6.845   3.199   8.770
16117WAT     H248594   6.738   3.079   8.793
16118WAT      O48595   3.640   7.088   7.327
16118WAT     H148596   3.644   6.996   7.289
16118WAT     H248597   3.728   7.111   7.368
16119WAT      O48598   7.243   2.911   7.100
16119WAT     H148599   7.217   2.816   7.083
16119WAT     H248600   7.179   2.972   7.053
16120WAT      O48601   1.753   9.394   5.541
16120WAT     H148602   1.666   9.347   5.555
16120WAT     H248603   1.747   9.451   5.459
16121WAT      O48604   6.751   4.193   2.630
16121WAT     H148605   6.839   4.153   2.654
16121WAT     H248606   6.703   4.134   2.565
16122WAT      O48607   5.647   0.256   6.739
16122WAT     H148608   5.631   0.169   6.691
16122WAT     H248609   5.603   0.254   6.829
16123WAT      O48610   6.078   6.325   4.832
16123WAT     H148611   6.014   6.365   4.897
16123WAT     H248612   6.032   6.307   4.745
16124WAT      O48613   7.368   5.816   0.339
16124WAT     H148614   7.420   5.901   0.344
16124WAT     H248615   7.422   5.746   0.293
16125WAT      O48616   4.779   9.793   6.214
16125WAT     H148617   4.725   9.812   6.132
16125WAT     H248618   4.832   9.709   6.200
16126WAT      O48619   4.530   8.621   2.349
16126WAT     H148620   4.574   8.556   2.287
16126WAT     H248621   4.453   8.664   2.303
16127WAT      O48622   1.466   4.347   0.933
16127WAT     H148623   1.439   4.285   1.007
16127WAT     H248624   1.457   4.300   0.845
16128WAT      O48625   9.562   6.509   1.453
16128WAT     H148626   9.468   6.533   1.479
16128WAT     H248627   9.560   6.440   1.381
16129WAT      O48628   6.943   1.451   7.365
16129WAT     H148629   6.902   1.367   7.329
16129WAT     H248630   7.033   1.465   7.325
16130WAT      O48631   6.085   5.878   6.208
16130WAT     H148632   6.062   5.891   6.304
16130WAT     H248633   6.159   5.812   6.200
16131WAT      O48634   1.653   3.702   2.072
16131WAT     H148635   1.644   3.776   2.005
16131WAT     H248636   1.724   3.639   2.042
16132WAT      O48637   4.979   4.745   7.310
16132WAT     H148638   5.075   4.717   7.298
16132WAT     H248639   4.934   4.681   7.372
16133WAT      O48640   4.342   7.834   9.430
16133WAT     H148641   4.391   7.879   9.504
16133WAT     H248642   4.244   7.835   9.450
16134WAT      O48643   6.445   2.427   4.966
16134WAT     H148644   6.426   2.333   4.938
16134WAT     H248645   6.526   2.461   4.919
16135WAT      O48646   7.772   5.479   5.980
16135WAT     H148647   7.720   5.532   6.046
16135WAT     H248648   7.713   5.407   5.942
16136WAT      O48649   4.769   1.105   3.493
16136WAT     H148650   4.791   1.139   3.585
16136WAT     H248651   4.765   1.182   3.429
16137WAT      O48652   3.790   8.579   0.807
16137WAT     H148653   3.770   8.537   0.718
16137WAT     H248654   3.778   8.511   0.879
16138WAT      O48655   0.029   3.122   1.925
16138WAT     H148656  -0.003   3.035   1.962
16138WAT     H248657   0.110   3.106   1.870
16139WAT      O48658   0.966   7.675   9.087
16139WAT     H148659   1.000   7.769   9.089
16139WAT     H248660   0.871   7.674   9.056
16140WAT      O48661   4.313   2.148   1.928
16140WAT     H148662   4.295   2.196   2.014
16140WAT     H248663   4.412   2.147   1.911
16141WAT      O48664   3.482   3.684   6.028
16141WAT     H148665   3.396   3.641   6.000
16141WAT     H248666   3.523   3.630   6.102
16142WAT      O48667   7.365   0.399   2.272
16142WAT     H148668   7.397   0.371   2.362
16142WAT     H248669   7.368   0.321   2.210
16143WAT      O48670   6.077   5.801   4.442
16143WAT     H148671   5.995   5.857   4.425
16143WAT     H248672   6.064   5.750   4.527
16144WAT      O48673   6.122   8.539   5.409
16144WAT     H148674   6.113   8.499   5.500
16144WAT     H248675   6.208   8.509   5.368
16145WAT      O48676   1.439   3.165   1.492
16145WAT     H148677   1.496   3.180   1.573
16145WAT     H248678   1.492   3.184   1.410
16146WAT      O48679   9.210   2.630   7.137
16146WAT     H148680   9.231   2.578   7.219
16146WAT     H248681   9.126   2.596   7.096
16147WAT      O48682   3.859   8.582   8.661
16147WAT     H148683   3.956   8.584   8.687
16147WAT     H248684   3.816   8.668   8.688
16148WAT      O48685   2.466   4.495   3.795
16148WAT     H148686   2.380   4.446   3.775
16148WAT     H248687   2.540   4.455   3.741
16149WAT      O48688   8.186   0.503   0.566
16149WAT     H148689   8.171   0.598   0.538
16149WAT     H248690   8.251   0.460   0.504
16150WAT      O48691   1.922   4.202   1.264
16150WAT     H148692   1.952   4.138   1.193
16150WAT     H248693   1.975   4.186   1.347
16151WAT      O48694   7.004   3.208   1.047
16151WAT     H148695   7.007   3.108   1.055
16151WAT     H248696   6.910   3.239   1.063
16152WAT      O48697   8.582   7.427   7.796
16152WAT     H148698   8.528   7.502   7.759
16152WAT     H248699   8.522   7.352   7.822
16153WAT      O48700   4.165   5.603   4.479
16153WAT     H148701   4.099   5.605   4.403
16153WAT     H248702   4.239   5.667   4.460
16154WAT      O48703   7.244   1.145   0.611
16154WAT     H148704   7.182   1.075   0.646
16154WAT     H248705   7.192   1.224   0.579
16155WAT      O48706   4.285   2.766   6.252
16155WAT     H148707   4.313   2.810   6.337
16155WAT     H248708   4.304   2.827   6.175
16156WAT      O48709   7.751   3.747   1.094
16156WAT     H148710   7.742   3.788   1.004
16156WAT     H248711   7.666   3.701   1.119
16157WAT      O48712   7.165   7.212   8.771
16157WAT     H148713   7.129   7.288   8.716
16157WAT     H248714   7.260   7.231   8.796
16158WAT      O48715   2.977   6.458   2.624
16158WAT     H148716   3.029   6.518   2.564
16158WAT     H248717   3.026   6.449   2.712
16159WAT      O48718   0.349   1.971   8.776
16159WAT     H148719   0.344   1.892   8.838
16159WAT     H248720   0.349   2.055   8.830
16160WAT      O48721   9.729   3.670   5.241
16160WAT     H148722   9.826   3.692   5.253
16160WAT     H248723   9.693   3.722   5.163
16161WAT      O48724   8.990   4.294   0.630
16161WAT     H148725   9.042   4.372   0.596
16161WAT     H248726   9.052   4.219   0.652
16162WAT      O48727   6.854   3.721   1.581
16162WAT     H148728   6.866   3.768   1.494
16162WAT     H248729   6.872   3.784   1.656
16163WAT      O48730   3.256   0.473   2.205
16163WAT     H148731   3.337   0.480   2.147
16163WAT     H248732   3.176   0.504   2.153
16164WAT      O48733   1.706   8.953   5.335
16164WAT     H148734   1.725   9.040   5.289
16164WAT     H248735   1.764   8.881   5.296
16165WAT      O48736   1.604   6.714   0.747
16165WAT     H148737   1.703   6.724   0.753
16165WAT     H248738   1.561   6.804   0.742
16166WAT      O48739   5.817   1.029   6.071
16166WAT     H148740   5.879   0.958   6.105
16166WAT     H248741   5.852   1.065   5.984
16167WAT      O48742   2.613   7.046   4.467
16167WAT     H148743   2.524   7.029   4.508
16167WAT     H248744   2.603   7.064   4.370
16168WAT      O48745   6.669   8.908   5.192
16168WAT     H148746   6.767   8.925   5.179
16168WAT     H248747   6.656   8.817   5.231
16169WAT      O48748   3.892   2.951   9.222
16169WAT     H148749   3.983   2.950   9.264
16169WAT     H248750   3.900   2.979   9.127
16170WAT      O48751   4.801   0.851   8.550
16170WAT     H148752   4.713   0.862   8.503
16170WAT     H248753   4.791   0.786   8.625
16171WAT      O48754   2.120   5.634   9.715
16171WAT     H148755   2.041   5.590   9.672
16171WAT     H248756   2.091   5.678   9.801
16172WAT      O48757   1.405   2.091   9.648
16172WAT     H148758   1.496   2.050   9.653
16172WAT     H248759   1.339   2.023   9.617
16173WAT      O48760   7.728   7.317   1.968
16173WAT     H148761   7.681   7.281   2.049
16173WAT     H248762   7.783   7.396   1.994
16174WAT      O48763   1.492   0.108   4.145
16174WAT     H148764   1.465   0.201   4.172
16174WAT     H248765   1.590   0.096   4.161
16175WAT      O48766   4.445   6.994   9.740
16175WAT     H148767   4.395   6.928   9.684
16175WAT     H248768   4.489   7.061   9.680
16176WAT      O48769   7.193   1.318   9.163
16176WAT     H148770   7.276   1.274   9.199
16176WAT     H248771   7.213   1.362   9.076
16177WAT      O48772   0.802   2.139   1.128
16177WAT     H148773   0.727   2.100   1.182
16177WAT     H248774   0.866   2.186   1.189
16178WAT      O48775   6.324   1.299   1.719
16178WAT     H148776   6.293   1.368   1.784
16178WAT     H248777   6.407   1.255   1.754
16179WAT      O48778   7.270   3.792   4.124
16179WAT     H148779   7.185   3.845   4.129
16179WAT     H248780   7.348   3.851   4.148
16180WAT      O48781   3.560   1.218   5.339
16180WAT     H148782   3.644   1.164   5.338
16180WAT     H248783   3.482   1.159   5.360
16181WAT      O48784   5.601   9.797   7.399
16181WAT     H148785   5.606   9.878   7.459
16181WAT     H248786   5.628   9.823   7.307
16182WAT      O48787   8.823   9.806   1.885
16182WAT     H148788   8.728   9.825   1.910
16182WAT     H248789   8.882   9.821   1.964
16183WAT      O48790   7.702   1.370   2.697
16183WAT     H148791   7.762   1.426   2.640
16183WAT     H248792   7.752   1.289   2.728
16184WAT      O48793   0.209   7.328   8.865
16184WAT     H148794   0.297   7.340   8.909
16184WAT     H248795   0.202   7.388   8.785
16185WAT      O48796   3.758   6.711   5.136
16185WAT     H148797   3.802   6.713   5.047
16185WAT     H248798   3.825   6.734   5.207
16186WAT      O48799   7.248   2.882   6.369
16186WAT     H148800   7.264   2.784   6.361
16186WAT     H248801   7.153   2.898   6.395
16187WAT      O48802   0.011   1.986   8.580
16187WAT     H148803  -0.054   1.975   8.505
16187WAT     H248804   0.096   2.026   8.546
16188WAT      O48805   0.296   8.339   2.446
16188WAT     H148806   0.308   8.248   2.404
16188WAT     H248807   0.381   8.367   2.489
16189WAT      O48808   1.028   4.281   6.890
16189WAT     H148809   1.124   4.310   6.881
16189WAT     H248810   0.979   4.300   6.805
16190WAT      O48811   8.741   3.942   4.571
16190WAT     H148812   8.716   3.951   4.667
16190WAT     H248813   8.664   3.971   4.514
16191WAT      O48814   4.224   2.718   9.043
16191WAT     H148815   4.270   2.702   8.956
16191WAT     H248816   4.268   2.794   9.091
16192WAT      O48817   3.832   0.594   2.057
16192WAT     H148818   3.889   0.590   2.139
16192WAT     H248819   3.824   0.688   2.025
16193WAT      O48820   7.769   1.366   8.663
16193WAT     H148821   7.841   1.298   8.676
16193WAT     H248822   7.709   1.367   8.743
16194WAT      O48823   6.760   2.685   2.094
16194WAT     H148824   6.849   2.666   2.134
16194WAT     H248825   6.771   2.711   1.998
16195WAT      O48826   6.324   6.620   0.013
16195WAT     H148827   6.333   6.565   0.096
16195WAT     H248828   6.234   6.604  -0.029
16196WAT      O48829   3.061   1.944   2.797
16196WAT     H148830   3.049   2.036   2.761
16196WAT     H248831   3.158   1.928   2.815
16197WAT      O48832   8.733   4.081   2.102
16197WAT     H148833   8.784   4.001   2.072
16197WAT     H248834   8.740   4.090   2.202
16198WAT      O48835   2.909   0.709   5.154
16198WAT     H148836   3.004   0.677   5.159
16198WAT     H248837   2.847   0.631   5.153
16199WAT      O48838   7.557   5.082   5.768
16199WAT     H148839   7.545   5.081   5.669
16199WAT     H248840   7.654   5.099   5.789
16200WAT      O48841   7.375   8.105   1.291
16200WAT     H148842   7.327   8.063   1.368
16200WAT     H248843   7.447   8.165   1.325
16201WAT      O48844   7.463   7.877   5.857
16201WAT     H148845   7.465   7.915   5.765
16201WAT     H248846   7.372   7.887   5.896
16202WAT      O48847   6.934   3.227   8.148
16202WAT     H148848   6.945   3.320   8.113
16202WAT     H248849   6.897   3.230   8.241
16203WAT      O48850   1.145   8.935   7.806
16203WAT     H148851   1.133   8.838   7.826
16203WAT     H248852   1.117   8.989   7.885
16204WAT      O48853   2.113   6.627  -0.002
16204WAT     H148854   2.023   6.600   0.032
16204WAT     H248855   2.180   6.556   0.021
16205WAT      O48856   9.321   5.307   2.949
16205WAT     H148857   9.321   5.403   2.920
16205WAT     H248858   9.231   5.267   2.934
16206WAT      O48859   0.851   3.944   2.528
16206WAT     H148860   0.890   4.027   2.567
16206WAT     H248861   0.830   3.879   2.600
16207WAT      O48862   5.305   8.375   7.713
16207WAT     H148863   5.346   8.306   7.773
16207WAT     H248864   5.368   8.452   7.703
16208WAT      O48865   0.483   7.255   8.526
16208WAT     H148866   0.570   7.242   8.479
16208WAT     H248867   0.418   7.298   8.464
16209WAT      O48868   3.706   9.716   5.022
16209WAT     H148869   3.679   9.759   4.936
16209WAT     H248870   3.625   9.685   5.071
16210WAT      O48871   9.582   5.118   2.498
16210WAT     H148872   9.555   5.124   2.594
16210WAT     H248873   9.678   5.142   2.488
16211WAT      O48874   4.658   7.651   8.568
16211WAT     H148875   4.573   7.654   8.621
16211WAT     H248876   4.647   7.702   8.483
16212WAT      O48877   9.566   8.821   0.436
16212WAT     H148878   9.596   8.808   0.342
16212WAT     H248879   9.472   8.788   0.446
16213WAT      O48880   1.674   3.689   5.172
16213WAT     H148881   1.619   3.611   5.199
16213WAT     H248882   1.756   3.657   5.125
16214WAT      O48883   4.681   5.118   1.142
16214WAT     H148884   4.647   5.097   1.233
16214WAT     H248885   4.700   5.216   1.135
16215WAT      O48886   2.975   5.107   6.080
16215WAT     H148887   3.073   5.085   6.083
16215WAT     H248888   2.932   5.080   6.167
16216WAT      O48889   3.237   4.206   4.991
16216WAT     H148890   3.269   4.248   4.907
16216WAT     H248891   3.137   4.204   4.991
16217WAT      O48892   7.236   6.631   2.473
16217WAT     H148893   7.330   6.601   2.462
16217WAT     H248894   7.234   6.727   2.502
16218WAT      O48895   9.122   9.260   6.151
16218WAT     H148896   9.193   9.305   6.205
16218WAT     H248897   9.032   9.296   6.177
16219WAT      O48898   7.878   1.964   9.007
16219WAT     H148899   7.915   1.930   8.921
16219WAT     H248900   7.949   2.016   9.055
16220WAT      O48901   7.416   7.231   8.839
16220WAT     H148902   7.463   7.232   8.928
16220WAT     H248903   7.484   7.237   8.766
16221WAT      O48904   4.121   1.248   9.770
16221WAT     H148905   4.197   1.188   9.745
16221WAT     H248906   4.051   1.196   9.819
16222WAT      O48907   9.390   7.898   2.027
16222WAT     H148908   9.420   7.991   2.009
16222WAT     H248909   9.392   7.880   2.125
16223WAT      O48910   9.386   2.807   5.403
16223WAT     H148911   9.358   2.730   5.346
16223WAT     H248912   9.346   2.797   5.494
16224WAT      O48913   9.259   5.382   1.913
16224WAT     H148914   9.245   5.335   2.000
16224WAT     H248915   9.203   5.338   1.842
16225WAT      O48916   7.364   8.629   6.466
16225WAT     H148917   7.385   8.534   6.444
16225WAT     H248918   7.269   8.636   6.496
16226WAT      O48919   2.722   8.047   3.717
16226WAT     H148920   2.668   8.131   3.712
16226WAT     H248921   2.819   8.070   3.726
16227WAT      O48922   9.544   2.896   9.495
16227WAT     H148923   9.474   2.827   9.515
16227WAT     H248924   9.567   2.893   9.398
16228WAT      O48925   7.224   4.672   5.070
16228WAT     H148926   7.263   4.595   5.021
16228WAT     H248927   7.154   4.638   5.134
16229WAT      O48928   9.333   6.481   1.901
16229WAT     H148929   9.307   6.516   1.992
16229WAT     H248930   9.430   6.457   1.901
16230WAT      O48931   0.779   5.750   6.036
16230WAT     H148932   0.808   5.673   5.979
16230WAT     H248933   0.855   5.813   6.049
16231WAT      O48934   3.838   8.559   7.782
16231WAT     H148935   3.743   8.557   7.752
16231WAT     H248936   3.895   8.514   7.713
16232WAT      O48937   7.700   3.819   5.010
16232WAT     H148938   7.655   3.787   4.927
16232WAT     H248939   7.634   3.818   5.085
16233WAT      O48940   3.517   6.529   2.263
16233WAT     H148941   3.475   6.531   2.354
16233WAT     H248942   3.480   6.604   2.208
16234WAT      O48943   8.955   5.591   7.310
16234WAT     H148944   9.043   5.544   7.312
16234WAT     H248945   8.881   5.524   7.324
16235WAT      O48946   0.276   2.544   9.529
16235WAT     H148947   0.202   2.538   9.462
16235WAT     H248948   0.352   2.486   9.501
16236WAT      O48949   3.347   6.945   6.614
16236WAT     H148950   3.363   6.847   6.621
16236WAT     H248951   3.407   6.994   6.678
16237WAT      O48952   0.179   9.447   3.901
16237WAT     H148953   0.140   9.486   3.985
16237WAT     H248954   0.160   9.349   3.899
16238WAT      O48955   5.594   7.878   1.689
16238WAT     H148956   5.651   7.960   1.683
16238WAT     H248957   5.554   7.873   1.781
16239WAT      O48958   1.958   3.889   1.932
16239WAT     H148959   1.997   3.934   2.012
16239WAT     H248960   1.886   3.946   1.893
16240WAT      O48961   1.131   2.767   0.960
16240WAT     H148962   1.073   2.700   1.006
16240WAT     H248963   1.134   2.851   1.015
16241WAT      O48964   6.896   7.057   5.331
16241WAT     H148965   6.873   7.048   5.428
16241WAT     H248966   6.894   6.967   5.288
16242WAT      O48967   6.322   2.464   2.059
16242WAT     H148968   6.299   2.409   1.978
16242WAT     H248969   6.420   2.482   2.059
16243WAT      O48970   6.549   7.305   2.566
16243WAT     H148971   6.595   7.299   2.477
16243WAT     H248972   6.511   7.216   2.590
16244WAT      O48973   3.784   4.560   6.481
16244WAT     H148974   3.771   4.499   6.403
16244WAT     H248975   3.772   4.655   6.452
16245WAT      O48976   1.715   6.061   9.475
16245WAT     H148977   1.752   6.104   9.393
16245WAT     H248978   1.616   6.053   9.467
16246WAT      O48979   4.090   0.361   7.300
16246WAT     H148980   4.050   0.307   7.373
16246WAT     H248981   4.098   0.305   7.217
16247WAT      O48982   1.784   7.823   7.006
16247WAT     H148983   1.771   7.775   6.919
16247WAT     H248984   1.703   7.813   7.063
16248WAT      O48985   6.466   8.790   9.841
16248WAT     H148986   6.482   8.821   9.934
16248WAT     H248987   6.443   8.693   9.842
16249WAT      O48988   6.912   6.302   8.468
16249WAT     H148989   6.994   6.335   8.420
16249WAT     H248990   6.831   6.330   8.418
16250WAT      O48991   9.229   0.204   2.853
16250WAT     H148992   9.304   0.143   2.829
16250WAT     H248993   9.217   0.206   2.952
16251WAT      O48994   6.291   5.612   4.782
16251WAT     H148995   6.285   5.679   4.857
16251WAT     H248996   6.372   5.632   4.727
16252WAT      O48997   6.744   8.042   3.489
16252WAT     H148998   6.754   7.973   3.561
16252WAT     H248999   6.816   8.110   3.498
16253WAT      O49000   1.842   4.445   2.938
16253WAT     H149001   1.894   4.436   3.023
16253WAT     H249002   1.749   4.412   2.952
16254WAT      O49003   8.294   6.625   9.551
16254WAT     H149004   8.332   6.679   9.476
16254WAT     H249005   8.220   6.568   9.516
16255WAT      O49006   8.237   9.325   5.623
16255WAT     H149007   8.308   9.396   5.625
16255WAT     H249008   8.275   9.240   5.658
16256WAT      O49009   2.971   9.086   4.599
16256WAT     H149010   2.995   9.158   4.535
16256WAT     H249011   3.040   9.080   4.671
16257WAT      O49012   1.254   5.199   8.660
16257WAT     H149013   1.170   5.230   8.704
16257WAT     H249014   1.332   5.251   8.697
16258WAT      O49015   5.587   4.691   0.942
16258WAT     H149016   5.654   4.720   1.010
16258WAT     H249017   5.577   4.762   0.872
16259WAT      O49018   8.067   3.359   0.634
16259WAT     H149019   8.122   3.278   0.614
16259WAT     H249020   7.970   3.338   0.619
16260WAT      O49021   4.204   4.203   0.289
16260WAT     H149022   4.226   4.247   0.202
16260WAT     H249023   4.120   4.150   0.279
16261WAT      O49024   1.801   8.846   4.647
16261WAT     H149025   1.858   8.925   4.669
16261WAT     H249026   1.706   8.874   4.638
16262WAT      O49027   7.246   2.628   9.414
16262WAT     H149028   7.338   2.623   9.376
16262WAT     H249029   7.216   2.724   9.415
16263WAT      O49030   1.157   5.550   5.869
16263WAT     H149031   1.165   5.622   5.800
16263WAT     H249032   1.238   5.551   5.927
16264WAT      O49033   5.815   6.892   1.174
16264WAT     H149034   5.764   6.830   1.114
16264WAT     H249035   5.913   6.886   1.153
16265WAT      O49036   4.444   1.536   0.517
16265WAT     H149037   4.477   1.557   0.609
16265WAT     H249038   4.371   1.468   0.523
16266WAT      O49039   6.188   1.205   2.918
16266WAT     H149040   6.129   1.243   2.989
16266WAT     H249041   6.136   1.139   2.863
16267WAT      O49042   2.888   2.976   8.473
16267WAT     H149043   2.844   2.956   8.385
16267WAT     H249044   2.979   3.015   8.456
16268WAT      O49045   9.574   3.582   2.683
16268WAT     H149046   9.609   3.675   2.685
16268WAT     H249047   9.608   3.535   2.601
16269WAT      O49048   2.052   5.617   5.990
16269WAT     H149049   2.112   5.537   5.993
16269WAT     H249050   2.105   5.697   5.960
16270WAT      O49051   0.933   8.554   8.646
16270WAT     H149052   0.914   8.545   8.548
16270WAT     H249053   0.914   8.647   8.675
16271WAT      O49054   6.665   3.543   6.347
16271WAT     H149055   6.763   3.566   6.348
16271WAT     H249056   6.654   3.445   6.366
16272WAT      O49057   1.958   5.595   7.072
16272WAT     H149058   1.991   5.639   6.988
16272WAT     H249059   1.862   5.571   7.061
16273WAT      O49060   6.832   4.587   5.273
16273WAT     H149061   6.861   4.668   5.222
16273WAT     H249062   6.907   4.522   5.278
16274WAT      O49063   1.478   2.597   2.330
16274WAT     H149064   1.444   2.683   2.368
16274WAT     H249065   1.432   2.578   2.243
16275WAT      O49066   0.204   5.448   6.648
16275WAT     H149067   0.232   5.352   6.639
16275WAT     H249068   0.226   5.481   6.739
16276WAT      O49069   2.986   7.811   5.974
16276WAT     H149070   2.980   7.725   6.024
16276WAT     H249071   2.909   7.817   5.910
16277WAT      O49072   4.927   1.607   0.397
16277WAT     H149073   4.858   1.552   0.444
16277WAT     H249074   4.888   1.695   0.370
16278WAT      O49075   4.603   2.245   0.576
16278WAT     H149076   4.539   2.262   0.501
16278WAT     H249077   4.680   2.309   0.569
16279WAT      O49078   1.019   3.400   4.063
16279WAT     H149079   0.991   3.320   4.117
16279WAT     H249080   1.073   3.369   3.984
16280WAT      O49081   3.520   1.189   6.466
16280WAT     H149082   3.484   1.270   6.418
16280WAT     H249083   3.585   1.218   6.535
16281WAT      O49084   4.747   5.612   3.391
16281WAT     H149085   4.822   5.654   3.442
16281WAT     H249086   4.660   5.651   3.420
16282WAT      O49087   0.660   9.044   9.696
16282WAT     H149088   0.691   9.002   9.611
16282WAT     H249089   0.740   9.073   9.750
16283WAT      O49090   5.586   2.840   1.797
16283WAT     H149091   5.510   2.799   1.848
16283WAT     H249092   5.591   2.938   1.818
16284WAT      O49093   2.008   3.185   9.352
16284WAT     H149094   2.043   3.092   9.364
16284WAT     H249095   2.080   3.251   9.374
16285WAT      O49096   2.030   7.269   6.400
16285WAT     H149097   2.099   7.198   6.414
16285WAT     H249098   2.000   7.304   6.488
16286WAT      O49099   7.086   1.850   6.094
16286WAT     H149100   7.118   1.758   6.116
16286WAT     H249101   7.064   1.856   5.997
16287WAT      O49102   3.191   1.485   2.808
16287WAT     H149103   3.190   1.553   2.882
16287WAT     H249104   3.191   1.532   2.720
16288WAT      O49105   2.314   4.476   4.472
16288WAT     H149106   2.393   4.416   4.484
16288WAT     H249107   2.309   4.540   4.549
16289WAT      O49108   3.610   8.103   4.534
16289WAT     H149109   3.596   8.160   4.453
16289WAT     H249110   3.536   8.119   4.599
16290WAT      O49111   3.951   3.036   3.918
16290WAT     H149112   4.008   2.974   3.864
16290WAT     H249113   3.969   3.023   4.015
16291WAT      O49114   3.787   1.340   3.440
16291WAT     H149115   3.798   1.345   3.341
16291WAT     H249116   3.877   1.348   3.483
16292WAT      O49117   8.759   1.044   6.232
16292WAT     H149118   8.767   1.133   6.187
16292WAT     H249119   8.696   1.051   6.309
16293WAT      O49120   9.584   4.937   1.208
16293WAT     H149121   9.663   4.878   1.190
16293WAT     H249122   9.539   4.959   1.122
16294WAT      O49123   6.607   3.977   8.691
16294WAT     H149124   6.511   3.952   8.698
16294WAT     H249125   6.638   3.967   8.596
16295WAT      O49126   0.167   3.528   1.802
16295WAT     H149127   0.202   3.616   1.836
16295WAT     H249128   0.093   3.497   1.861
16296WAT      O49129   0.443   1.697   3.383
16296WAT     H149130   0.392   1.685   3.469
16296WAT     H249131   0.483   1.609   3.356
16297WAT      O49132   4.131   3.361   6.354
16297WAT     H149133   4.125   3.450   6.309
16297WAT     H249134   4.125   3.288   6.285
16298WAT      O49135   4.615   0.200   4.135
16298WAT     H149136   4.675   0.184   4.213
16298WAT     H249137   4.662   0.171   4.051
16299WAT      O49138   1.948   6.419   3.879
16299WAT     H149139   1.891   6.501   3.888
16299WAT     H249140   2.004   6.409   3.961
16300WAT      O49141   0.564   3.996   2.491
16300WAT     H149142   0.663   3.987   2.495
16300WAT     H249143   0.526   3.921   2.436
16301WAT      O49144   0.340   3.411   7.825
16301WAT     H149145   0.398   3.388   7.746
16301WAT     H249146   0.396   3.417   7.907
16302WAT      O49147   3.331   1.441   0.195
16302WAT     H149148   3.268   1.371   0.229
16302WAT     H249149   3.399   1.462   0.265
16303WAT      O49150   3.290   8.639   9.543
16303WAT     H149151   3.265   8.575   9.614
16303WAT     H249152   3.215   8.648   9.478
16304WAT      O49153   8.838   0.178   4.319
16304WAT     H149154   8.828   0.274   4.293
16304WAT     H249155   8.755   0.128   4.294
16305WAT      O49156   2.733   7.628   3.654
16305WAT     H149157   2.757   7.708   3.600
16305WAT     H249158   2.762   7.545   3.606
16306WAT      O49159   6.561   3.398   4.829
16306WAT     H149160   6.536   3.404   4.732
16306WAT     H249161   6.487   3.436   4.885
16307WAT      O49162   7.071   0.124   3.736
16307WAT     H149163   7.009   0.067   3.790
16307WAT     H249164   7.113   0.069   3.664
16308WAT      O49165   6.691   0.859   4.114
16308WAT     H149166   6.652   0.876   4.205
16308WAT     H249167   6.734   0.943   4.080
16309WAT      O49168   2.043   3.824   3.372
16309WAT     H149169   2.136   3.826   3.335
16309WAT     H249170   1.988   3.756   3.323
16310WAT      O49171   2.801   2.106   6.864
16310WAT     H149172   2.876   2.055   6.822
16310WAT     H249173   2.800   2.088   6.963
16311WAT      O49174   3.470   6.109   1.464
16311WAT     H149175   3.499   6.204   1.475
16311WAT     H249176   3.406   6.085   1.537
16312WAT      O49177   8.034   4.242   4.207
16312WAT     H149178   8.039   4.278   4.114
16312WAT     H249179   7.940   4.217   4.228
16313WAT      O49180   2.798   7.627   9.013
16313WAT     H149181   2.884   7.618   8.962
16313WAT     H249182   2.786   7.548   9.073
16314WAT      O49183   6.553   5.901   8.435
16314WAT     H149184   6.554   5.830   8.506
16314WAT     H249185   6.472   5.889   8.378
16315WAT      O49186   1.816   8.684   2.184
16315WAT     H149187   1.784   8.736   2.263
16315WAT     H249188   1.916   8.684   2.183
16316WAT      O49189   7.794   3.589   8.065
16316WAT     H149190   7.794   3.593   8.165
16316WAT     H249191   7.852   3.663   8.029
16317WAT      O49192   3.762   3.610   7.887
16317WAT     H149193   3.839   3.666   7.857
16317WAT     H249194   3.796   3.522   7.921
16318WAT      O49195   2.623   1.081   7.631
16318WAT     H149196   2.640   1.178   7.615
16318WAT     H249197   2.656   1.056   7.722
16319WAT      O49198   8.833   2.782   8.148
16319WAT     H149199   8.849   2.729   8.232
16319WAT     H249200   8.734   2.791   8.133
16320WAT      O49201   6.692   9.558   4.032
16320WAT     H149202   6.692   9.490   3.958
16320WAT     H249203   6.752   9.527   4.106
16321WAT      O49204   3.366   9.250   9.736
16321WAT     H149205   3.462   9.267   9.712
16321WAT     H249206   3.320   9.207   9.658
16322WAT      O49207   3.764   9.381   2.644
16322WAT     H149208   3.827   9.326   2.589
16322WAT     H249209   3.689   9.415   2.586
16323WAT      O49210   9.315   4.065   3.573
16323WAT     H149211   9.307   4.042   3.670
16323WAT     H249212   9.343   3.984   3.522
16324WAT      O49213   2.242   8.561   9.423
16324WAT     H149214   2.262   8.519   9.335
16324WAT     H249215   2.298   8.643   9.435
16325WAT      O49216   0.326   7.386   1.397
16325WAT     H149217   0.292   7.448   1.325
16325WAT     H249218   0.252   7.324   1.424
16326WAT      O49219   5.655   8.808   4.296
16326WAT     H149220   5.649   8.907   4.313
16326WAT     H249221   5.745   8.786   4.259
16327WAT      O49222   7.319   3.199   9.876
16327WAT     H149223   7.414   3.226   9.891
16327WAT     H249224   7.260   3.247   9.942
16328WAT      O49225   9.443   2.002   3.843
16328WAT     H149226   9.432   2.069   3.916
16328WAT     H249227   9.534   1.962   3.847
16329WAT      O49228   6.352   1.510   4.709
16329WAT     H149229   6.317   1.520   4.802
16329WAT     H249230   6.367   1.414   4.689
16330WAT      O49231   5.135   0.251   5.350
16330WAT     H149232   5.213   0.311   5.367
16330WAT     H249233   5.107   0.259   5.255
16331WAT      O49234   9.644   4.664   6.678
16331WAT     H149235   9.610   4.751   6.715
16331WAT     H249236   9.670   4.677   6.583
16332WAT      O49237   9.795   8.402   7.751
16332WAT     H149238   9.858   8.434   7.681
16332WAT     H249239   9.842   8.397   7.839
16333WAT      O49240   4.329   0.780   4.772
16333WAT     H149241   4.319   0.879   4.763
16333WAT     H249242   4.376   0.759   4.858
16334WAT      O49243   5.780   0.453   3.121
16334WAT     H149244   5.798   0.361   3.087
16334WAT     H249245   5.780   0.452   3.221
16335WAT      O49246   7.517   5.962   5.561
16335WAT     H149247   7.612   5.933   5.558
16335WAT     H249248   7.469   5.927   5.480
16336WAT      O49249   0.877   0.278   2.958
16336WAT     H149250   0.874   0.195   3.013
16336WAT     H249251   0.913   0.354   3.013
16337WAT      O49252   9.641   9.176   4.645
16337WAT     H149253   9.689   9.245   4.590
16337WAT     H249254   9.542   9.186   4.632
16338WAT      O49255   9.047   4.279   1.206
16338WAT     H149256   9.137   4.251   1.241
16338WAT     H249257   9.039   4.378   1.210
16339WAT      O49258   8.921   6.812   0.979
16339WAT     H149259   8.936   6.829   0.881
16339WAT     H249260   8.887   6.719   0.992
16340WAT      O49261   8.329   4.594   7.639
16340WAT     H149262   8.275   4.668   7.680
16340WAT     H249263   8.407   4.633   7.590
16341WAT      O49264   0.086   6.680   4.681
16341WAT     H149265   0.123   6.667   4.590
16341WAT     H249266   0.066   6.778   4.696
16342WAT      O49267   5.880   0.034   6.473
16342WAT     H149268   5.791   0.075   6.496
16342WAT     H249269   5.865  -0.055   6.431
16343WAT      O49270   9.448   6.955   2.922
16343WAT     H149271   9.430   7.035   2.980
16343WAT     H249272   9.474   6.986   2.830
16344WAT      O49273   6.751   7.564   8.112
16344WAT     H149274   6.757   7.664   8.109
16344WAT     H249275   6.666   7.537   8.157
16345WAT      O49276   1.425   2.054   3.061
16345WAT     H149277   1.414   2.092   2.969
16345WAT     H249278   1.501   1.989   3.062
16346WAT      O49279   4.286   2.832   1.095
16346WAT     H149280   4.277   2.752   1.036
16346WAT     H249281   4.292   2.915   1.040
16347WAT      O49282   4.386   1.175   3.416
16347WAT     H149283   4.340   1.264   3.418
16347WAT     H249284   4.451   1.169   3.492
16348WAT      O49285   0.246   5.811   0.319
16348WAT     H149286   0.253   5.815   0.219
16348WAT     H249287   0.336   5.789   0.357
16349WAT      O49288   9.554   3.044   8.198
16349WAT     H149289   9.626   3.113   8.189
16349WAT     H249290   9.480   3.080   8.255
16350WAT      O49291   9.658   8.482   5.022
16350WAT     H149292   9.603   8.506   5.103
16350WAT     H249293   9.684   8.566   4.974
16351WAT      O49294   0.153   7.449   4.967
16351WAT     H149295   0.208   7.529   4.947
16351WAT     H249296   0.197   7.367   4.930
16352WAT      O49297   7.149   7.368   9.852
16352WAT     H149298   7.205   7.391   9.932
16352WAT     H249299   7.200   7.307   9.792
16353WAT      O49300   8.468   5.133   6.875
16353WAT     H149301   8.559   5.105   6.903
16353WAT     H249302   8.402   5.062   6.899
16354WAT      O49303   2.712   9.773   3.051
16354WAT     H149304   2.706   9.862   3.006
16354WAT     H249305   2.675   9.780   3.144
16355WAT      O49306   2.674   9.047   2.021
16355WAT     H149307   2.609   9.032   1.947
16355WAT     H249308   2.749   9.105   1.989
16356WAT      O49309   6.202   0.856   9.555
16356WAT     H149310   6.215   0.813   9.644
16356WAT     H249311   6.226   0.953   9.562
16357WAT      O49312   5.849   2.048   7.732
16357WAT     H149313   5.911   2.087   7.800
16357WAT     H249314   5.884   1.959   7.703
16358WAT      O49315   0.647   7.465   9.790
16358WAT     H149316   0.655   7.425   9.699
16358WAT     H249317   0.739   7.478   9.828
16359WAT      O49318   8.037   8.169   9.036
16359WAT     H149319   8.024   8.094   9.100
16359WAT     H249320   7.969   8.240   9.052
16360WAT      O49321   2.898   6.610   6.903
16360WAT     H149322   2.984   6.634   6.856
16360WAT     H249323   2.906   6.634   7.000
16361WAT      O49324   1.965   0.412   2.972
16361WAT     H149325   2.022   0.450   2.899
16361WAT     H249326   2.015   0.340   3.020
16362WAT      O49327   5.672   9.718   9.546
16362WAT     H149328   5.714   9.795   9.497
16362WAT     H249329   5.741   9.672   9.601
16363WAT      O49330   1.409   5.034   2.605
16363WAT     H149331   1.475   4.973   2.562
16363WAT     H249332   1.319   4.990   2.606
16364WAT      O49333   4.929   3.384   2.487
16364WAT     H149334   4.847   3.372   2.431
16364WAT     H249335   5.005   3.334   2.445
16365WAT      O49336   7.649   1.960   9.745
16365WAT     H149337   7.669   1.903   9.825
16365WAT     H249338   7.688   1.918   9.663
16366WAT      O49339   1.874   0.982   5.380
16366WAT     H149340   1.826   1.069   5.388
16366WAT     H249341   1.960   0.986   5.431
16367WAT      O49342   7.481   5.778   4.044
16367WAT     H149343   7.396   5.801   3.996
16367WAT     H249344   7.461   5.768   4.142
16368WAT      O49345   5.176   4.975   4.198
16368WAT     H149346   5.132   4.991   4.109
16368WAT     H249347   5.143   5.041   4.264
16369WAT      O49348   6.600   4.539   2.220
16369WAT     H149349   6.504   4.547   2.247
16369WAT     H249350   6.655   4.518   2.300
16370WAT      O49351   1.604   1.702   1.993
16370WAT     H149352   1.620   1.659   2.082
16370WAT     H249353   1.512   1.678   1.961
16371WAT      O49354   9.808   6.924   8.241
16371WAT     H149355   9.853   6.979   8.311
16371WAT     H249356   9.811   6.972   8.153
16372WAT      O49357   4.143   7.450   0.472
16372WAT     H149358   4.194   7.513   0.414
16372WAT     H249359   4.147   7.482   0.567
16373WAT      O49360   1.210   7.898   5.271
16373WAT     H149361   1.254   7.883   5.359
16373WAT     H249362   1.173   7.812   5.236
16374WAT      O49363   4.479   2.332   9.761
16374WAT     H149364   4.455   2.429   9.750
16374WAT     H249365   4.396   2.277   9.758
16375WAT      O49366   7.417   0.477   0.503
16375WAT     H149367   7.351   0.411   0.466
16375WAT     H249368   7.399   0.567   0.465
16376WAT      O49369   0.432   7.018   8.995
16376WAT     H149370   0.396   7.058   8.911
16376WAT     H249371   0.525   7.052   9.011
16377WAT      O49372   7.986   6.451   0.178
16377WAT     H149373   8.062   6.400   0.139
16377WAT     H249374   8.010   6.548   0.182
16378WAT      O49375   2.235   7.351   2.385
16378WAT     H149376   2.176   7.271   2.394
16378WAT     H249377   2.322   7.324   2.344
16379WAT      O49378   6.365   4.012   0.695
16379WAT     H149379   6.366   3.945   0.621
16379WAT     H249380   6.458   4.025   0.730
16380WAT      O49381   3.547   1.551   2.457
16380WAT     H149382   3.526   1.648   2.464
16380WAT     H249383   3.646   1.537   2.464
16381WAT      O49384   9.533   6.313   8.388
16381WAT     H149385   9.490   6.225   8.406
16381WAT     H249386   9.632   6.305   8.395
16382WAT      O49387   1.776   7.718   3.879
16382WAT     H149388   1.819   7.720   3.789
16382WAT     H249389   1.806   7.636   3.929
16383WAT      O49390   6.977   9.199   5.838
16383WAT     H149391   7.010   9.175   5.746
16383WAT     H249392   6.954   9.296   5.841
16384WAT      O49393   5.460   2.260   0.018
16384WAT     H149394   5.459   2.360   0.019
16384WAT     H249395   5.370   2.226   0.046
16385WAT      O49396   4.734   3.102   8.487
16385WAT     H149397   4.799   3.051   8.430
16385WAT     H249398   4.687   3.169   8.431
16386WAT      O49399   4.336   6.835   0.546
16386WAT     H149400   4.253   6.785   0.523
16386WAT     H249401   4.362   6.895   0.470
16387WAT      O49402   3.348   7.107   2.650
16387WAT     H149403   3.364   7.121   2.552
16387WAT     H249404   3.423   7.148   2.702
16388WAT      O49405   2.867   3.733   8.239
16388WAT     H149406   2.834   3.827   8.229
16388WAT     H249407   2.812   3.673   8.181
16389WAT      O49408   6.024   5.907   4.879
16389WAT     H149409   6.007   5.844   4.803
16389WAT     H249410   6.080   5.861   4.948
16390WAT      O49411   7.292   7.539   9.619
16390WAT     H149412   7.200   7.556   9.655
16390WAT     H249413   7.285   7.510   9.524
16391WAT      O49414   4.540   7.783   4.371
16391WAT     H149415   4.613   7.767   4.436
16391WAT     H249416   4.567   7.855   4.307
16392WAT      O49417   0.581   5.135   7.716
16392WAT     H149418   0.588   5.083   7.631
16392WAT     H249419   0.558   5.230   7.695
16393WAT      O49420   8.808   5.165   1.990
16393WAT     H149421   8.833   5.261   1.991
16393WAT     H249422   8.721   5.154   1.941
16394WAT      O49423   1.863   4.056   7.076
16394WAT     H149424   1.879   3.964   7.111
16394WAT     H249425   1.897   4.063   6.982
16395WAT      O49426   7.429   6.963   8.692
16395WAT     H149427   7.356   7.020   8.731
16395WAT     H249428   7.393   6.872   8.672
16396WAT      O49429   8.565   4.738   7.441
16396WAT     H149430   8.629   4.662   7.457
16396WAT     H249431   8.613   4.813   7.397
16397WAT      O49432   6.411   3.173   7.352
16397WAT     H149433   6.415   3.160   7.253
16397WAT     H249434   6.319   3.150   7.385
16398WAT      O49435   6.580   7.575   8.465
16398WAT     H149436   6.631   7.501   8.509
16398WAT     H249437   6.569   7.651   8.529
16399WAT      O49438   2.805   3.145   9.605
16399WAT     H149439   2.815   3.190   9.694
16399WAT     H249440   2.804   3.214   9.532
16400WAT      O49441   6.828   9.326   7.501
16400WAT     H149442   6.819   9.378   7.585
16400WAT     H249443   6.880   9.242   7.519
16401WAT      O49444   9.372   5.136   7.033
16401WAT     H149445   9.463   5.110   7.067
16401WAT     H249446   9.369   5.234   7.019
16402WAT      O49447   9.551   6.713   2.959
16402WAT     H149448   9.525   6.809   2.969
16402WAT     H249449   9.547   6.668   3.048
16403WAT      O49450   9.100   8.978   7.339
16403WAT     H149451   9.031   8.954   7.408
16403WAT     H249452   9.182   9.012   7.385
16404WAT      O49453   2.605   6.373   6.226
16404WAT     H149454   2.538   6.416   6.166
16404WAT     H249455   2.697   6.396   6.194
16405WAT      O49456   7.512   3.450   5.503
16405WAT     H149457   7.477   3.480   5.415
16405WAT     H249458   7.437   3.410   5.557
16406WAT      O49459   0.144   5.604   5.678
16406WAT     H149460   0.101   5.628   5.765
16406WAT     H249461   0.075   5.575   5.613
16407WAT      O49462   8.242   1.004   2.716
16407WAT     H149463   8.169   1.036   2.776
16407WAT     H249464   8.212   1.011   2.621
16408WAT      O49465   5.989   7.339   4.884
16408WAT     H149466   6.056   7.413   4.874
16408WAT     H249467   5.984   7.288   4.798
16409WAT      O49468   5.136   6.136   0.600
16409WAT     H149469   5.118   6.061   0.537
16409WAT     H249470   5.211   6.192   0.564
16410WAT      O49471   4.960   2.755   6.783
16410WAT     H149472   4.988   2.720   6.872
16410WAT     H249473   5.032   2.735   6.716
16411WAT      O49474   7.186   6.480   6.420
16411WAT     H149475   7.275   6.518   6.393
16411WAT     H249476   7.170   6.394   6.372
16412WAT      O49477   9.547   4.812   7.483
16412WAT     H149478   9.529   4.722   7.523
16412WAT     H249479   9.569   4.802   7.387
16413WAT      O49480   0.495   8.526   5.644
16413WAT     H149481   0.422   8.572   5.592
16413WAT     H249482   0.458   8.494   5.731
16414WAT      O49483   8.166   7.984   0.867
16414WAT     H149484   8.217   7.920   0.809
16414WAT     H249485   8.100   7.934   0.923
16415WAT      O49486   2.997   1.439   9.181
16415WAT     H149487   2.904   1.474   9.179
16415WAT     H249488   3.022   1.403   9.091
16416WAT      O49489   3.489   7.381   8.588
16416WAT     H149490   3.469   7.294   8.543
16416WAT     H249491   3.540   7.365   8.672
16417WAT      O49492   3.561   3.406   3.473
16417WAT     H149493   3.465   3.394   3.497
16417WAT     H249494   3.611   3.320   3.489
16418WAT      O49495   0.051   9.427   0.500
16418WAT     H149496   0.093   9.386   0.581
16418WAT     H249497   0.011   9.355   0.443
16419WAT      O49498   7.962   4.295   3.750
16419WAT     H149499   7.981   4.362   3.679
16419WAT     H249500   8.046   4.250   3.778
16420WAT      O49501   0.581   0.853   0.994
16420WAT     H149502   0.667   0.893   0.962
16420WAT     H249503   0.508   0.920   0.984
16421WAT      O49504   9.383   2.509   8.661
16421WAT     H149505   9.322   2.451   8.715
16421WAT     H249506   9.335   2.594   8.637
16422WAT      O49507   3.877   0.687   9.599
16422WAT     H149508   3.965   0.734   9.600
16422WAT     H249509   3.825   0.711   9.682
16423WAT      O49510   6.139   0.755   9.815
16423WAT     H149511   6.079   0.678   9.797
16423WAT     H249512   6.216   0.725   9.871
16424WAT      O49513   1.801   1.172   1.081
16424WAT     H149514   1.767   1.204   0.993
16424WAT     H249515   1.735   1.109   1.123
16425WAT      O49516   1.863   1.776   4.752
16425WAT     H149517   1.862   1.866   4.708
16425WAT     H249518   1.956   1.754   4.780
16426WAT      O49519   8.237   1.659   0.859
16426WAT     H149520   8.223   1.757   0.847
16426WAT     H249521   8.234   1.614   0.770
16427WAT      O49522   1.670   0.745   6.824
16427WAT     H149523   1.635   0.817   6.764
16427WAT     H249524   1.645   0.656   6.788
16428WAT      O49525   8.687   6.073   6.537
16428WAT     H149526   8.705   6.090   6.634
16428WAT     H249527   8.647   5.982   6.526
16429WAT      O49528   9.303   7.639   7.396
16429WAT     H149529   9.399   7.638   7.367
16429WAT     H249530   9.250   7.698   7.334
16430WAT      O49531   7.332   8.798   1.541
16430WAT     H149532   7.292   8.806   1.633
16430WAT     H249533   7.302   8.713   1.498
16431WAT      O49534   8.610   1.608   3.484
16431WAT     H149535   8.702   1.580   3.513
16431WAT     H249536   8.548   1.530   3.491
16432WAT      O49537   5.081   1.630   1.950
16432WAT     H149538   5.179   1.649   1.939
16432WAT     H249539   5.028   1.700   1.902
16433WAT      O49540   7.902   9.289   7.085
16433WAT     H149541   7.967   9.271   7.160
16433WAT     H249542   7.861   9.380   7.097
16434WAT      O49543   8.716   6.030   1.826
16434WAT     H149544   8.658   5.967   1.878
16434WAT     H249545   8.713   6.005   1.729
16435WAT      O49546   1.759   6.137   1.701
16435WAT     H149547   1.702   6.182   1.633
16435WAT     H249548   1.791   6.049   1.666
16436WAT      O49549   2.691   5.839   3.209
16436WAT     H149550   2.742   5.905   3.264
16436WAT     H249551   2.593   5.857   3.219
16437WAT      O49552   9.882   6.932   4.290
16437WAT     H149553   9.811   6.870   4.257
16437WAT     H249554   9.883   7.015   4.233
16438WAT      O49555   3.064   4.156   0.066
16438WAT     H149556   3.022   4.120  -0.017
16438WAT     H249557   3.060   4.256   0.064
16439WAT      O49558   4.053   4.866   2.814
16439WAT     H149559   4.078   4.962   2.826
16439WAT     H249560   3.965   4.860   2.766
16440WAT      O49561   6.957   7.181   1.046
16440WAT     H149562   7.019   7.258   1.029
16440WAT     H249563   6.863   7.214   1.045
16441WAT      O49564   9.618   6.955   3.561
16441WAT     H149565   9.701   6.999   3.594
16441WAT     H249566   9.544   7.023   3.554
16442WAT      O49567   4.774   6.323   7.001
16442WAT     H149568   4.871   6.329   6.978
16442WAT     H249569   4.720   6.324   6.916
16443WAT      O49570   5.070   4.526   7.787
16443WAT     H149571   5.055   4.592   7.860
16443WAT     H249572   5.168   4.516   7.771
16444WAT      O49573   4.747   9.419   6.230
16444WAT     H149574   4.811   9.482   6.186
16444WAT     H249575   4.726   9.344   6.168
16445WAT      O49576   9.616   7.953   5.850
16445WAT     H149577   9.576   7.895   5.779
16445WAT     H249578   9.551   8.024   5.876
16446WAT      O49579   5.129   2.195   4.998
16446WAT     H149580   5.187   2.158   4.926
16446WAT     H249581   5.063   2.126   5.027
16447WAT      O49582   0.680   7.062   9.031
16447WAT     H149583   0.715   7.119   9.105
16447WAT     H249584   0.749   6.995   9.006
16448WAT      O49585   1.640   8.252   7.915
16448WAT     H149586   1.548   8.258   7.877
16448WAT     H249587   1.705   8.227   7.842
16449WAT      O49588   3.000   5.769   2.875
16449WAT     H149589   3.083   5.822   2.891
16449WAT     H249590   2.920   5.822   2.904
16450WAT      O49591   2.136   1.654   2.915
16450WAT     H149592   2.061   1.643   2.980
16450WAT     H249593   2.204   1.581   2.930
16451WAT      O49594   7.626   8.863   7.705
16451WAT     H149595   7.609   8.866   7.804
16451WAT     H249596   7.724   8.863   7.687
16452WAT      O49597   2.770   2.386   6.819
16452WAT     H149598   2.840   2.441   6.863
16452WAT     H249599   2.777   2.291   6.851
16453WAT      O49600   8.494   5.280   3.508
16453WAT     H149601   8.537   5.369   3.523
16453WAT     H249602   8.551   5.225   3.447
16454WAT      O49603   1.306   4.767   4.503
16454WAT     H149604   1.374   4.717   4.450
16454WAT     H249605   1.352   4.829   4.567
16455WAT      O49606   8.294   1.846   9.244
16455WAT     H149607   8.300   1.943   9.224
16455WAT     H249608   8.222   1.830   9.312
16456WAT      O49609   3.273   7.578   9.309
16456WAT     H149610   3.353   7.606   9.361
16456WAT     H249611   3.300   7.514   9.237
16457WAT      O49612   8.354   1.201   5.148
16457WAT     H149613   8.320   1.143   5.074
16457WAT     H249614   8.451   1.220   5.132
16458WAT      O49615   8.802   1.573   1.052
16458WAT     H149616   8.716   1.536   1.018
16458WAT     H249617   8.796   1.588   1.151
16459WAT      O49618   1.760   0.213   7.016
16459WAT     H149619   1.718   0.246   7.100
16459WAT     H249620   1.849   0.257   7.003
16460WAT      O49621   0.545   0.148   6.260
16460WAT     H149622   0.548   0.050   6.275
16460WAT     H249623   0.537   0.196   6.347
16461WAT      O49624   3.639   2.799   6.162
16461WAT     H149625   3.706   2.743   6.113
16461WAT     H249626   3.589   2.741   6.226
16462WAT      O49627   5.060   4.235   5.436
16462WAT     H149628   5.052   4.145   5.479
16462WAT     H249629   5.149   4.243   5.392
16463WAT      O49630   4.502   3.322   3.159
16463WAT     H149631   4.490   3.419   3.139
16463WAT     H249632   4.416   3.273   3.144
16464WAT      O49633   2.310   3.319   2.798
16464WAT     H149634   2.375   3.304   2.723
16464WAT     H249635   2.278   3.231   2.832
16465WAT      O49636   0.310   4.358   7.193
16465WAT     H149637   0.264   4.445   7.173
16465WAT     H249638   0.265   4.284   7.142
16466WAT      O49639   9.215   2.699   6.336
16466WAT     H149640   9.300   2.650   6.353
16466WAT     H249641   9.195   2.700   6.238
16467WAT      O49642   5.433   2.552   4.239
16467WAT     H149643   5.471   2.593   4.157
16467WAT     H249644   5.491   2.574   4.318
16468WAT      O49645   9.112   9.325   4.879
16468WAT     H149646   9.107   9.374   4.792
16468WAT     H249647   9.165   9.241   4.867
16469WAT      O49648   0.506   1.094   2.254
16469WAT     H149649   0.551   1.061   2.338
16469WAT     H249650   0.548   1.051   2.175
16470WAT      O49651   6.982   8.502   0.445
16470WAT     H149652   7.064   8.560   0.446
16470WAT     H249653   6.952   8.488   0.351
16471WAT      O49654   0.044   4.298   5.739
16471WAT     H149655   0.119   4.235   5.755
16471WAT     H249656   0.072   4.391   5.765
16472WAT      O49657   7.860   7.138   0.680
16472WAT     H149658   7.893   7.044   0.674
16472WAT     H249659   7.775   7.141   0.732
16473WAT      O49660   6.343   4.812   9.342
16473WAT     H149661   6.405   4.788   9.417
16473WAT     H249662   6.384   4.886   9.288
16474WAT      O49663   2.784   7.988   2.973
16474WAT     H149664   2.872   8.034   2.984
16474WAT     H249665   2.716   8.055   2.942
16475WAT      O49666   6.190   2.653   9.286
16475WAT     H149667   6.102   2.698   9.300
16475WAT     H249668   6.261   2.700   9.339
16476WAT      O49669   5.309   1.338   4.837
16476WAT     H149670   5.312   1.240   4.816
16476WAT     H249671   5.345   1.353   4.929
16477WAT      O49672   9.361   1.658   1.198
16477WAT     H149673   9.325   1.571   1.233
16477WAT     H249674   9.286   1.711   1.157
16478WAT      O49675   2.830   0.253   3.838
16478WAT     H149676   2.844   0.201   3.923
16478WAT     H249677   2.919   0.274   3.798
16479WAT      O49678   3.705   3.998   9.619
16479WAT     H149679   3.639   4.036   9.683
16479WAT     H249680   3.658   3.973   9.534
16480WAT      O49681   4.659   9.712   4.050
16480WAT     H149682   4.750   9.673   4.034
16480WAT     H249683   4.590   9.656   4.002
16481WAT      O49684   0.377   2.079   9.505
16481WAT     H149685   0.277   2.081   9.504
16481WAT     H249686   0.412   2.098   9.413
16482WAT      O49687   6.557   7.544   3.930
16482WAT     H149688   6.620   7.566   4.004
16482WAT     H249689   6.605   7.553   3.842
16483WAT      O49690   0.920   5.969   4.307
16483WAT     H149691   0.903   5.930   4.216
16483WAT     H249692   0.896   6.067   4.306
16484WAT      O49693   4.954   4.865   0.595
16484WAT     H149694   4.916   4.956   0.584
16484WAT     H249695   5.036   4.856   0.539
16485WAT      O49696   0.555   5.814   8.300
16485WAT     H149697   0.510   5.875   8.235
16485WAT     H249698   0.541   5.719   8.273
16486WAT      O49699   8.654   5.373   4.270
16486WAT     H149700   8.613   5.319   4.343
16486WAT     H249701   8.706   5.313   4.209
16487WAT      O49702   8.230   0.453   8.042
16487WAT     H149703   8.178   0.481   8.123
16487WAT     H249704   8.313   0.406   8.071
16488WAT      O49705   6.554   6.171   2.578
16488WAT     H149706   6.567   6.240   2.507
16488WAT     H249707   6.472   6.194   2.632
16489WAT      O49708   2.970   6.013   0.239
16489WAT     H149709   2.912   5.939   0.275
16489WAT     H249710   2.914   6.094   0.222
16490WAT      O49711   5.044   2.427   8.197
16490WAT     H149712   5.043   2.449   8.295
16490WAT     H249713   4.955   2.391   8.170
16491WAT      O49714   8.462   3.247   6.210
16491WAT     H149715   8.465   3.275   6.114
16491WAT     H249716   8.382   3.288   6.254
16492WAT      O49717   3.508   1.452   2.112
16492WAT     H149718   3.593   1.489   2.150
16492WAT     H249719   3.496   1.486   2.019
16493WAT      O49720   5.100   6.155   4.094
16493WAT     H149721   5.009   6.114   4.105
16493WAT     H249722   5.090   6.249   4.062
16494WAT      O49723   3.510   0.019   0.086
16494WAT     H149724   3.549   0.007  -0.005
16494WAT     H249725   3.421  -0.027   0.090
16495WAT      O49726   4.670   4.962   7.505
16495WAT     H149727   4.732   4.893   7.545
16495WAT     H249728   4.724   5.039   7.472
16496WAT      O49729   4.004   1.690   2.313
16496WAT     H149730   3.914   1.731   2.296
16496WAT     H249731   3.996   1.591   2.310
16497WAT      O49732   3.604   6.732   6.741
16497WAT     H149733   3.625   6.678   6.660
16497WAT     H249734   3.667   6.707   6.815
16498WAT      O49735   9.583   9.232   8.832
16498WAT     H149736   9.580   9.215   8.734
16498WAT     H249737   9.506   9.290   8.859
16499WAT      O49738   6.779   8.851   4.620
16499WAT     H149739   6.866   8.806   4.639
16499WAT     H249740   6.704   8.793   4.651
16500WAT      O49741   1.988   6.573   4.185
16500WAT     H149742   1.913   6.529   4.233
16500WAT     H249743   1.951   6.642   4.122
16501WAT      O49744   2.762   8.769   2.077
16501WAT     H149745   2.684   8.717   2.042
16501WAT     H249746   2.750   8.866   2.055
16502WAT      O49747   6.379   4.570   4.329
16502WAT     H149748   6.340   4.488   4.287
16502WAT     H249749   6.475   4.579   4.301
16503WAT      O49750   2.943   6.344   4.538
16503WAT     H149751   2.992   6.341   4.451
16503WAT     H249752   2.862   6.403   4.528
16504WAT      O49753   0.093   9.530   5.857
16504WAT     H149754   0.169   9.558   5.915
16504WAT     H249755   0.111   9.556   5.762
16505WAT      O49756   7.657   0.691   6.779
16505WAT     H149757   7.728   0.639   6.731
16505WAT     H249758   7.680   0.697   6.876
16506WAT      O49759   0.300   0.062   8.767
16506WAT     H149760   0.209   0.099   8.751
16506WAT     H249761   0.308  -0.029   8.728
16507WAT      O49762   2.674   1.843   0.628
16507WAT     H149763   2.759   1.822   0.677
16507WAT     H249764   2.695   1.857   0.531
16508WAT      O49765   1.217   1.325   7.457
16508WAT     H149766   1.240   1.239   7.413
16508WAT     H249767   1.238   1.401   7.396
16509WAT      O49768   8.104   1.791   9.435
16509WAT     H149769   8.028   1.729   9.418
16509WAT     H249770   8.070   1.884   9.443
16510WAT      O49771   7.590   9.629   4.977
16510WAT     H149772   7.568   9.572   4.897
16510WAT     H249773   7.589   9.725   4.949
16511WAT      O49774   8.706   5.766   7.922
16511WAT     H149775   8.621   5.783   7.873
16511WAT     H249776   8.760   5.698   7.874
16512WAT      O49777   4.426   8.105   2.781
16512WAT     H149778   4.337   8.082   2.742
16512WAT     H249779   4.423   8.199   2.816
16513WAT      O49780   7.777   4.586   4.489
16513WAT     H149781   7.732   4.532   4.418
16513WAT     H249782   7.751   4.682   4.477
16514WAT      O49783   6.433   8.683   6.320
16514WAT     H149784   6.523   8.694   6.363
16514WAT     H249785   6.382   8.769   6.330
16515WAT      O49786   1.426   7.993   5.126
16515WAT     H149787   1.477   7.908   5.116
16515WAT     H249788   1.344   7.975   5.181
16516WAT      O49789   6.658   8.157   0.024
16516WAT     H149790   6.633   8.203  -0.061
16516WAT     H249791   6.729   8.089   0.006
16517WAT      O49792   1.529   7.557   8.787
16517WAT     H149793   1.429   7.561   8.779
16517WAT     H249794   1.566   7.650   8.787
16518WAT      O49795   1.688   9.696   5.781
16518WAT     H149796   1.684   9.708   5.880
16518WAT     H249797   1.778   9.661   5.755
16519WAT      O49798   1.989   8.312   7.513
16519WAT     H149799   1.945   8.367   7.442
16519WAT     H249800   1.943   8.327   7.600
16520WAT      O49801   8.188   3.993   4.101
16520WAT     H149802   8.263   3.927   4.102
16520WAT     H249803   8.120   3.969   4.170
16521WAT      O49804   4.643   5.431   9.744
16521WAT     H149805   4.558   5.380   9.754
16521WAT     H249806   4.646   5.505   9.812
16522WAT      O49807   3.134   7.227   4.767
16522WAT     H149808   3.209   7.169   4.736
16522WAT     H249809   3.050   7.202   4.718
16523WAT      O49810   6.006   7.780   7.716
16523WAT     H149811   6.078   7.844   7.691
16523WAT     H249812   5.959   7.812   7.798
16524WAT      O49813   1.276   6.342   7.148
16524WAT     H149814   1.374   6.363   7.155
16524WAT     H249815   1.242   6.377   7.061
16525WAT      O49816   0.374   8.878   6.293
16525WAT     H149817   0.373   8.874   6.193
16525WAT     H249818   0.307   8.945   6.325
16526WAT      O49819   2.379   1.756   1.478
16526WAT     H149820   2.372   1.731   1.382
16526WAT     H249821   2.302   1.814   1.503
16527WAT      O49822   1.450   8.076   9.050
16527WAT     H149823   1.524   8.008   9.043
16527WAT     H249824   1.366   8.038   9.011
16528WAT      O49825   7.942   5.333   1.670
16528WAT     H149826   7.872   5.301   1.607
16528WAT     H249827   8.009   5.388   1.620
16529WAT      O49828   1.840   3.481   8.285
16529WAT     H149829   1.833   3.546   8.209
16529WAT     H249830   1.907   3.515   8.351
16530WAT      O49831   4.665   6.954   2.683
16530WAT     H149832   4.697   6.993   2.596
16530WAT     H249833   4.567   6.972   2.693
16531WAT      O49834   5.237   8.024   6.263
16531WAT     H149835   5.299   8.014   6.340
16531WAT     H249836   5.142   8.021   6.295
16532WAT      O49837   2.551   1.376   5.334
16532WAT     H149838   2.538   1.430   5.418
16532WAT     H249839   2.621   1.420   5.277
16533WAT      O49840   6.422   8.020   9.035
16533WAT     H149841   6.325   8.031   9.057
16533WAT     H249842   6.470   8.105   9.054
16534WAT      O49843   0.186   3.560   7.979
16534WAT     H149844   0.203   3.512   7.893
16534WAT     H249845   0.269   3.609   8.008
16535WAT      O49846   6.159   1.317   4.029
16535WAT     H149847   6.220   1.363   3.964
16535WAT     H249848   6.069   1.361   4.027
16536WAT      O49849   6.023   9.648   5.962
16536WAT     H149850   5.995   9.621   6.054
16536WAT     H249851   5.942   9.663   5.906
16537WAT      O49852   1.654   3.278   8.343
16537WAT     H149853   1.696   3.196   8.305
16537WAT     H249854   1.714   3.357   8.328
16538WAT      O49855   8.271   3.562   8.485
16538WAT     H149856   8.354   3.561   8.429
16538WAT     H249857   8.288   3.514   8.571
16539WAT      O49858   4.797   7.828   9.759
16539WAT     H149859   4.787   7.909   9.701
16539WAT     H249860   4.720   7.766   9.743
16540WAT      O49861   2.100   3.344   9.847
16540WAT     H149862   2.198   3.335   9.829
16540WAT     H249863   2.063   3.255   9.873
16541WAT      O49864   7.609   0.175   8.250
16541WAT     H149865   7.526   0.223   8.279
16541WAT     H249866   7.626   0.195   8.153
16542WAT      O49867   6.313   4.972   3.699
16542WAT     H149868   6.383   4.903   3.720
16542WAT     H249869   6.300   5.031   3.778
16543WAT      O49870   7.253   7.581   5.549
16543WAT     H149871   7.204   7.555   5.632
16543WAT     H249872   7.198   7.648   5.498
16544WAT      O49873   8.727   3.096   0.106
16544WAT     H149874   8.801   3.129   0.164
16544WAT     H249875   8.641   3.138   0.135
16545WAT      O49876   9.253   9.024   6.517
16545WAT     H149877   9.197   9.014   6.435
16545WAT     H249878   9.244   9.117   6.552
16546WAT      O49879   7.414   6.013   3.827
16546WAT     H149880   7.513   6.022   3.818
16546WAT     H249881   7.373   6.105   3.829
16547WAT      O49882   3.095   6.046   3.643
16547WAT     H149883   3.002   6.031   3.609
16547WAT     H249884   3.093   6.049   3.743
16548WAT      O49885   7.318   2.372   2.769
16548WAT     H149886   7.354   2.290   2.723
16548WAT     H249887   7.248   2.344   2.835
16549WAT      O49888   0.762   5.433   2.688
16549WAT     H149889   0.843   5.374   2.685
16549WAT     H249890   0.789   5.528   2.675
16550WAT      O49891   2.102   1.021   5.554
16550WAT     H149892   2.193   0.980   5.565
16550WAT     H249893   2.108   1.120   5.570
16551WAT      O49894   5.863   0.050   6.182
16551WAT     H149895   5.921   0.087   6.109
16551WAT     H249896   5.910   0.061   6.270
16552WAT      O49897   1.845   3.820   9.315
16552WAT     H149898   1.829   3.917   9.332
16552WAT     H249899   1.770   3.784   9.259
16553WAT      O49900   9.098   9.428   7.643
16553WAT     H149901   9.132   9.337   7.664
16553WAT     H249902   9.071   9.433   7.547
16554WAT      O49903   5.936   0.240   9.360
16554WAT     H149904   5.957   0.303   9.435
16554WAT     H249905   5.973   0.276   9.275
16555WAT      O49906   7.209   5.761   3.944
16555WAT     H149907   7.129   5.795   3.895
16555WAT     H249908   7.224   5.665   3.920
16556WAT      O49909   0.221   5.046   2.968
16556WAT     H149910   0.182   4.975   3.026
16556WAT     H249911   0.250   5.007   2.881
16557WAT      O49912   8.019   2.015   6.417
16557WAT     H149913   7.950   1.964   6.366
16557WAT     H249914   8.104   2.017   6.366
16558WAT      O49915   7.941   6.507   8.197
16558WAT     H149916   8.024   6.556   8.223
16558WAT     H249917   7.922   6.435   8.264
16559WAT      O49918   6.836   1.830   0.593
16559WAT     H149919   6.760   1.868   0.646
16559WAT     H249920   6.811   1.825   0.497
16560WAT      O49921   8.788   7.558   9.551
16560WAT     H149922   8.731   7.592   9.476
16560WAT     H249923   8.884   7.571   9.528
16561WAT      O49924   1.256   6.490   4.877
16561WAT     H149925   1.182   6.423   4.872
16561WAT     H249926   1.330   6.453   4.934
16562WAT      O49927   5.792   6.767   2.192
16562WAT     H149928   5.771   6.700   2.262
16562WAT     H249929   5.799   6.722   2.103
16563WAT      O49930   8.820   6.162   8.217
16563WAT     H149931   8.731   6.205   8.199
16563WAT     H249932   8.828   6.079   8.162
16564WAT      O49933   4.493   4.617   4.091
16564WAT     H149934   4.467   4.711   4.069
16564WAT     H249935   4.415   4.556   4.078
16565WAT      O49936   3.110   5.418   8.093
16565WAT     H149937   3.140   5.430   7.998
16565WAT     H249938   3.177   5.459   8.155
16566WAT      O49939   4.164   9.603   0.153
16566WAT     H149940   4.068   9.581   0.139
16566WAT     H249941   4.194   9.566   0.241
16567WAT      O49942   3.168   5.763   3.690
16567WAT     H149943   3.218   5.776   3.776
16567WAT     H249944   3.203   5.826   3.621
16568WAT      O49945   1.293   5.663   1.766
16568WAT     H149946   1.242   5.598   1.823
16568WAT     H249947   1.297   5.629   1.672
16569WAT      O49948   7.568   6.049   2.793
16569WAT     H149949   7.661   6.084   2.797
16569WAT     H249950   7.562   5.976   2.725
16570WAT      O49951   4.604   8.536   7.193
16570WAT     H149952   4.557   8.613   7.150
16570WAT     H249953   4.703   8.550   7.188
16571WAT      O49954   8.159   7.708   0.754
16571WAT     H149955   8.249   7.746   0.734
16571WAT     H249956   8.162   7.608   0.744
16572WAT      O49957   9.611   7.118   2.764
16572WAT     H149958   9.541   7.114   2.692
16572WAT     H249959   9.615   7.211   2.801
16573WAT      O49960   8.980   2.248   5.770
16573WAT     H149961   8.911   2.319   5.756
16573WAT     H249962   8.953   2.191   5.848
16574WAT      O49963   8.227   7.020   0.203
16574WAT     H149964   8.163   7.014   0.127
16574WAT     H249965   8.307   6.963   0.184
16575WAT      O49966   4.784   3.779   2.423
16575WAT     H149967   4.753   3.721   2.498
16575WAT     H249968   4.859   3.837   2.455
16576WAT      O49969   2.493   8.404   5.069
16576WAT     H149970   2.512   8.329   5.005
16576WAT     H249971   2.543   8.388   5.155
16577WAT      O49972   2.385   6.646   7.176
16577WAT     H149973   2.484   6.657   7.171
16577WAT     H249974   2.340   6.733   7.158
16578WAT      O49975   7.761   3.267   8.805
16578WAT     H149976   7.670   3.227   8.816
16578WAT     H249977   7.762   3.359   8.844
16579WAT      O49978   7.704   9.759   5.723
16579WAT     H149979   7.669   9.665   5.727
16579WAT     H249980   7.782   9.762   5.661
16580WAT      O49981   4.328   3.046   5.011
16580WAT     H149982   4.349   2.970   5.072
16580WAT     H249983   4.264   3.016   4.941
16581WAT      O49984   8.712   1.791   1.319
16581WAT     H149985   8.671   1.882   1.314
16581WAT     H249986   8.810   1.799   1.338
16582WAT      O49987   9.789   4.865   8.361
16582WAT     H149988   9.756   4.772   8.341
16582WAT     H249989   9.887   4.871   8.341
16583WAT      O49990   3.045   3.710   4.235
16583WAT     H149991   3.098   3.689   4.317
16583WAT     H249992   2.956   3.664   4.241
16584WAT      O49993   2.132   2.254   9.064
16584WAT     H149994   2.207   2.192   9.040
16584WAT     H249995   2.147   2.343   9.021
16585WAT      O49996   2.658   8.941   7.721
16585WAT     H149997   2.671   8.967   7.816
16585WAT     H249998   2.747   8.930   7.677
16586WAT      O49999   7.550   2.916   0.222
16586WAT     H150000   7.600   2.936   0.306
16586WAT     H250001   7.521   2.820   0.222
16587WAT      O50002   4.750   6.689   3.465
16587WAT     H150003   4.831   6.729   3.422
16587WAT     H250004   4.770   6.665   3.560
16588WAT      O50005   3.171   1.689   8.054
16588WAT     H150006   3.098   1.653   7.996
16588WAT     H250007   3.242   1.619   8.064
16589WAT      O50008   4.636   5.113   3.858
16589WAT     H150009   4.730   5.123   3.890
16589WAT     H250010   4.572   5.146   3.928
16590WAT      O50011   3.740   9.374   8.592
16590WAT     H150012   3.698   9.360   8.502
16590WAT     H250013   3.813   9.308   8.605
16591WAT      O50014   1.184   7.022   6.073
16591WAT     H150015   1.086   7.032   6.058
16591WAT     H250016   1.234   7.070   6.000
16592WAT      O50017   3.021   8.526   0.128
16592WAT     H150018   2.966   8.544   0.046
16592WAT     H250019   2.965   8.542   0.209
16593WAT      O50020   4.933   9.484   5.434
16593WAT     H150021   4.949   9.476   5.336
16593WAT     H250022   4.886   9.402   5.467
16594WAT      O50023   3.075   5.194   2.885
16594WAT     H150024   3.074   5.168   2.982
16594WAT     H250025   3.147   5.261   2.868
16595WAT      O50026   6.139   3.012   8.055
16595WAT     H150027   6.211   2.967   8.002
16595WAT     H250028   6.050   2.980   8.023
16596WAT      O50029   9.726   1.694   9.348
16596WAT     H150030   9.709   1.654   9.258
16596WAT     H250031   9.648   1.676   9.408
16597WAT      O50032   5.097   4.087   3.244
16597WAT     H150033   5.004   4.100   3.211
16597WAT     H250034   5.147   4.173   3.237
16598WAT      O50035   7.556   4.881   6.291
16598WAT     H150036   7.616   4.801   6.300
16598WAT     H250037   7.592   4.956   6.346
16599WAT      O50038   1.171   3.572   6.546
16599WAT     H150039   1.181   3.614   6.636
16599WAT     H250040   1.170   3.644   6.476
16600WAT      O50041   5.879   9.466   9.407
16600WAT     H150042   5.849   9.372   9.422
16600WAT     H250043   5.884   9.514   9.495
16601WAT      O50044   4.264   8.621   9.147
16601WAT     H150045   4.338   8.557   9.170
16601WAT     H250046   4.194   8.617   9.218
16602WAT      O50047   6.915   6.111   4.580
16602WAT     H150048   6.946   6.198   4.619
16602WAT     H250049   6.823   6.091   4.613
16603WAT      O50050   2.993   2.177   4.503
16603WAT     H150051   2.936   2.095   4.496
16603WAT     H250052   3.078   2.155   4.549
16604WAT      O50053   5.055   0.469   9.284
16604WAT     H150054   5.044   0.568   9.276
16604WAT     H250055   5.096   0.448   9.373
16605WAT      O50056   2.164   0.339   3.791
16605WAT     H150057   2.237   0.274   3.810
16605WAT     H250058   2.104   0.302   3.719
16606WAT      O50059   1.767   0.156   1.488
16606WAT     H150060   1.825   0.083   1.523
16606WAT     H250061   1.774   0.236   1.548
16607WAT      O50062   9.678   6.436   8.773
16607WAT     H150063   9.632   6.350   8.750
16607WAT     H250064   9.688   6.491   8.690
16608WAT      O50065   7.309   5.471   5.937
16608WAT     H150066   7.230   5.504   5.988
16608WAT     H250067   7.283   5.391   5.882
16609WAT      O50068   6.729   0.233   5.114
16609WAT     H150069   6.630   0.218   5.107
16609WAT     H250070   6.762   0.197   5.201
16610WAT      O50071   9.559   2.280   5.516
16610WAT     H150072   9.468   2.315   5.498
16610WAT     H250073   9.627   2.342   5.477
16611WAT      O50074   8.926   0.499   9.422
16611WAT     H150075   9.005   0.456   9.377
16611WAT     H250076   8.954   0.586   9.462
16612WAT      O50077   6.084  -0.003   5.546
16612WAT     H150078   6.067   0.087   5.506
16612WAT     H250079   6.157   0.003   5.613
16613WAT      O50080   8.989   0.710   1.651
16613WAT     H150081   9.042   0.655   1.716
16613WAT     H250082   8.957   0.793   1.697
16614WAT      O50083   8.596   5.161   0.020
16614WAT     H150084   8.675   5.191   0.073
16614WAT     H250085   8.516   5.156   0.080
16615WAT      O50086   9.220   4.857   9.708
16615WAT     H150087   9.293   4.914   9.745
16615WAT     H250088   9.154   4.914   9.660
16616WAT      O50089   7.864   1.018   4.809
16616WAT     H150090   7.785   1.024   4.870
16616WAT     H250091   7.938   0.971   4.855
16617WAT      O50092   9.443   1.299   7.774
16617WAT     H150093   9.408   1.318   7.866
16617WAT     H250094   9.444   1.200   7.759
16618WAT      O50095   7.508   1.309   1.382
16618WAT     H150096   7.528   1.244   1.454
16618WAT     H250097   7.573   1.297   1.307
16619WAT      O50098   4.759   2.507   0.868
16619WAT     H150099   4.807   2.501   0.955
16619WAT     H250100   4.791   2.588   0.818
16620WAT      O50101   7.035   8.234   8.746
16620WAT     H150102   7.057   8.137   8.757
16620WAT     H250103   6.962   8.259   8.809
16621WAT      O50104   5.810   7.143   0.647
16621WAT     H150105   5.771   7.188   0.727
16621WAT     H250106   5.808   7.044   0.660
16622WAT      O50107   9.321   9.372   5.937
16622WAT     H150108   9.250   9.390   6.006
16622WAT     H250109   9.280   9.374   5.846
16623WAT      O50110   5.432   2.824   5.993
16623WAT     H150111   5.342   2.784   6.012
16623WAT     H250112   5.464   2.792   5.904
16624WAT      O50113   2.015   1.016   2.886
16624WAT     H150114   1.931   1.058   2.922
16624WAT     H250115   1.992   0.961   2.806
16625WAT      O50116   3.031   9.077   1.477
16625WAT     H150117   3.109   9.119   1.431
16625WAT     H250118   3.034   8.978   1.463
16626WAT      O50119   8.302   5.482   4.128
16626WAT     H150120   8.228   5.546   4.108
16626WAT     H250121   8.330   5.436   4.044
16627WAT      O50122   6.752   8.110   5.839
16627WAT     H150123   6.684   8.152   5.778
16627WAT     H250124   6.741   8.145   5.931
16628WAT      O50125   6.670   8.360   1.404
16628WAT     H150126   6.615   8.338   1.484
16628WAT     H250127   6.730   8.438   1.425
16629WAT      O50128   0.812   6.278   1.109
16629WAT     H150129   0.852   6.332   1.184
16629WAT     H250130   0.867   6.290   1.027
16630WAT      O50131   2.928   4.810   7.375
16630WAT     H150132   3.023   4.810   7.405
16630WAT     H250133   2.915   4.740   7.305
16631WAT      O50134   7.941   5.280   3.469
16631WAT     H150135   7.888   5.196   3.486
16631WAT     H250136   8.037   5.256   3.455
16632WAT      O50137   4.835   3.705   0.076
16632WAT     H150138   4.862   3.619   0.033
16632WAT     H250139   4.892   3.722   0.157
16633WAT      O50140   7.882   1.749   2.165
16633WAT     H150141   7.799   1.694   2.153
16633WAT     H250142   7.899   1.762   2.263
16634WAT      O50143   3.307   1.678   1.556
16634WAT     H150144   3.263   1.756   1.510
16634WAT     H250145   3.403   1.674   1.529
16635WAT      O50146   6.276   5.700   6.183
16635WAT     H150147   6.341   5.674   6.255
16635WAT     H250148   6.256   5.621   6.126
16636WAT      O50149   8.261   7.450   9.593
16636WAT     H150150   8.345   7.503   9.585
16636WAT     H250151   8.271   7.383   9.667
16637WAT      O50152   0.244   9.400   0.956
16637WAT     H150153   0.298   9.471   0.912
16637WAT     H250154   0.185   9.442   1.026
16638WAT      O50155   2.695   8.557   3.655
16638WAT     H150156   2.715   8.635   3.596
16638WAT     H250157   2.658   8.590   3.742
16639WAT      O50158   1.982   1.993   1.145
16639WAT     H150159   1.981   2.073   1.087
16639WAT     H250160   2.066   1.940   1.129
16640WAT      O50161   6.154   1.843   6.816
16640WAT     H150162   6.059   1.873   6.824
16640WAT     H250163   6.156   1.746   6.791
16641WAT      O50164   8.581   6.121   3.586
16641WAT     H150165   8.481   6.120   3.574
16641WAT     H250166   8.602   6.100   3.681
16642WAT      O50167   7.781   6.736   2.907
16642WAT     H150168   7.793   6.786   2.820
16642WAT     H250169   7.725   6.791   2.969
16643WAT      O50170   2.764   3.382   1.370
16643WAT     H150171   2.851   3.430   1.360
16643WAT     H250172   2.769   3.317   1.445
16644WAT      O50173   2.942   7.184   7.866
16644WAT     H150174   3.023   7.174   7.809
16644WAT     H250175   2.863   7.146   7.818
16645WAT      O50176   5.009   7.751   6.131
16645WAT     H150177   5.064   7.703   6.062
16645WAT     H250178   5.057   7.750   6.218
16646WAT      O50179   9.273   6.958   4.614
16646WAT     H150180   9.244   6.985   4.706
16646WAT     H250181   9.339   7.025   4.579
16647WAT      O50182   6.633   4.692   2.024
16647WAT     H150183   6.555   4.669   1.965
16647WAT     H250184   6.630   4.635   2.107
16648WAT      O50185   3.974   2.547   7.120
16648WAT     H150186   4.032   2.580   7.194
16648WAT     H250187   4.002   2.591   7.034
16649WAT      O50188   5.694   6.406   0.052
16649WAT     H150189   5.783   6.442   0.082
16649WAT     H250190   5.656   6.347   0.122
16650WAT      O50191   2.200   3.894   7.644
16650WAT     H150192   2.124   3.844   7.684
16650WAT     H250193   2.286   3.865   7.687
16651WAT      O50194   0.473   9.702   5.269
16651WAT     H150195   0.566   9.729   5.241
16651WAT     H250196   0.429   9.654   5.193
16652WAT      O50197   0.729   6.736   3.050
16652WAT     H150198   0.757   6.738   3.146
16652WAT     H250199   0.634   6.769   3.043
16653WAT      O50200   7.888   8.820   4.830
16653WAT     H150201   7.891   8.903   4.886
16653WAT     H250202   7.796   8.782   4.831
16654WAT      O50203   6.545   4.102   3.333
16654WAT     H150204   6.481   4.178   3.334
16654WAT     H250205   6.557   4.067   3.426
16655WAT      O50206   4.681   5.737   2.605
16655WAT     H150207   4.610   5.756   2.673
16655WAT     H250208   4.695   5.639   2.598
16656WAT      O50209   0.006   9.295   8.503
16656WAT     H150210   0.059   9.301   8.587
16656WAT     H250211  -0.023   9.387   8.476
16657WAT      O50212   2.029   3.960   6.161
16657WAT     H150213   2.100   4.029   6.155
16657WAT     H250214   2.068   3.875   6.198
16658WAT      O50215   2.114   2.426   9.741
16658WAT     H150216   2.045   2.461   9.678
16658WAT     H250217   2.087   2.448   9.835
16659WAT      O50218   9.024   3.077   0.915
16659WAT     H150219   9.110   3.111   0.953
16659WAT     H250220   9.043   3.012   0.841
16660WAT      O50221   7.953   5.091   7.364
16660WAT     H150222   7.896   5.104   7.445
16660WAT     H250223   7.945   4.997   7.332
16661WAT      O50224   6.271   7.666   9.341
16661WAT     H150225   6.350   7.727   9.349
16661WAT     H250226   6.213   7.695   9.265
16662WAT      O50227   6.440   1.584   9.860
16662WAT     H150228   6.477   1.571   9.951
16662WAT     H250229   6.452   1.500   9.806
16663WAT      O50230   1.839   9.774   8.585
16663WAT     H150231   1.753   9.727   8.566
16663WAT     H250232   1.828   9.831   8.666
16664WAT      O50233   3.762   1.584   8.414
16664WAT     H150234   3.782   1.557   8.320
16664WAT     H250235   3.807   1.672   8.434
16665WAT      O50236   9.182   0.821   9.279
16665WAT     H150237   9.152   0.783   9.366
16665WAT     H250238   9.167   0.920   9.279
16666WAT      O50239   3.539   7.832   8.190
16666WAT     H150240   3.634   7.862   8.200
16666WAT     H250241   3.512   7.778   8.270
16667WAT      O50242   7.796   5.471   7.695
16667WAT     H150243   7.728   5.415   7.647
16667WAT     H250244   7.748   5.541   7.749
16668WAT      O50245   0.461   6.698   7.724
16668WAT     H150246   0.545   6.698   7.779
16668WAT     H250247   0.400   6.626   7.757
16669WAT      O50248   1.685   4.043   6.660
16669WAT     H150249   1.729   4.076   6.744
16669WAT     H250250   1.620   3.971   6.683
16670WAT      O50251   8.014   0.041   4.278
16670WAT     H150252   8.061  -0.015   4.210
16670WAT     H250253   7.936  -0.009   4.314
16671WAT      O50254   7.503   5.321   4.496
16671WAT     H150255   7.463   5.412   4.498
16671WAT     H250256   7.582   5.320   4.434
16672WAT      O50257   9.258   6.727   4.128
16672WAT     H150258   9.255   6.804   4.190
16672WAT     H250259   9.351   6.690   4.125
16673WAT      O50260   1.361   6.813   8.686
16673WAT     H150261   1.457   6.792   8.665
16673WAT     H250262   1.351   6.912   8.695
16674WAT      O50263   7.301   9.148   6.083
16674WAT     H150264   7.212   9.103   6.084
16674WAT     H250265   7.294   9.237   6.128
16675WAT      O50266   1.899   2.436   0.778
16675WAT     H150267   1.993   2.454   0.751
16675WAT     H250268   1.849   2.522   0.785
16676WAT      O50269   2.849   3.051   7.411
16676WAT     H150270   2.786   3.113   7.458
16676WAT     H250271   2.873   3.090   7.322
16677WAT      O50272   0.542   2.706   5.249
16677WAT     H150273   0.531   2.702   5.349
16677WAT     H250274   0.517   2.798   5.217
16678WAT      O50275   4.199   8.591   8.496
16678WAT     H150276   4.231   8.548   8.581
16678WAT     H250277   4.205   8.525   8.421
16679WAT      O50278   9.301   5.868   3.214
16679WAT     H150279   9.310   5.768   3.220
16679WAT     H250280   9.205   5.893   3.226
16680WAT      O50281   0.660   1.898   0.405
16680WAT     H150282   0.616   1.983   0.376
16680WAT     H250283   0.738   1.919   0.463
16681WAT      O50284   3.903   9.026   7.537
16681WAT     H150285   3.975   8.960   7.558
16681WAT     H250286   3.821   8.977   7.509
16682WAT      O50287   6.301   4.460   6.049
16682WAT     H150288   6.295   4.374   6.100
16682WAT     H250289   6.395   4.475   6.021
16683WAT      O50290   6.445   4.200   2.858
16683WAT     H150291   6.470   4.103   2.861
16683WAT     H250292   6.527   4.256   2.872
16684WAT      O50293   1.982   6.768   0.266
16684WAT     H150294   2.076   6.775   0.233
16684WAT     H250295   1.925   6.834   0.218
16685WAT      O50296   2.943   7.847   4.322
16685WAT     H150297   2.933   7.808   4.413
16685WAT     H250298   2.938   7.774   4.254
16686WAT      O50299   7.605   3.494   3.984
16686WAT     H150300   7.536   3.546   4.034
16686WAT     H250301   7.675   3.461   4.047
16687WAT      O50302   5.981   8.973   1.824
16687WAT     H150303   5.955   9.011   1.913
16687WAT     H250304   6.001   9.048   1.761
16688WAT      O50305   8.460   3.660   1.263
16688WAT     H150306   8.362   3.661   1.241
16688WAT     H250307   8.477   3.720   1.341
16689WAT      O50308   0.369   3.794   4.691
16689WAT     H150309   0.315   3.753   4.765
16689WAT     H250310   0.306   3.831   4.622
16690WAT      O50311   7.670   8.371   3.027
16690WAT     H150312   7.592   8.433   3.016
16690WAT     H250313   7.747   8.403   2.971
16691WAT      O50314   2.410   0.819   7.911
16691WAT     H150315   2.478   0.774   7.969
16691WAT     H250316   2.446   0.907   7.880
16692WAT      O50317   1.068   5.107   1.348
16692WAT     H150318   1.129   5.133   1.423
16692WAT     H250319   0.994   5.174   1.341
16693WAT      O50320   7.954   3.733   5.054
16693WAT     H150321   7.863   3.774   5.042
16693WAT     H250322   7.949   3.635   5.037
16694WAT      O50323   8.686   3.958   2.723
16694WAT     H150324   8.777   3.921   2.741
16694WAT     H250325   8.651   3.921   2.637
16695WAT      O50326   4.093   0.321   8.352
16695WAT     H150327   4.139   0.236   8.375
16695WAT     H250328   4.007   0.327   8.402
16696WAT      O50329   0.909   5.145   7.090
16696WAT     H150330   0.944   5.214   7.153
16696WAT     H250331   0.814   5.124   7.112
16697WAT      O50332   2.434   0.357   3.983
16697WAT     H150333   2.377   0.302   4.044
16697WAT     H250334   2.443   0.450   4.021
16698WAT      O50335   4.112   0.842   9.673
16698WAT     H150336   4.061   0.899   9.737
16698WAT     H250337   4.164   0.901   9.611
16699WAT      O50338   7.917   5.389   2.843
16699WAT     H150339   7.959   5.449   2.774
16699WAT     H250340   7.969   5.304   2.849
16700WAT      O50341   5.736   8.630   0.718
16700WAT     H150342   5.723   8.545   0.666
16700WAT     H250343   5.829   8.632   0.755
16701WAT      O50344   6.503   1.364   5.808
16701WAT     H150345   6.598   1.394   5.809
16701WAT     H250346   6.452   1.407   5.883
16702WAT      O50347   7.886   7.414   0.809
16702WAT     H150348   7.888   7.335   0.748
16702WAT     H250349   7.952   7.402   0.882
16703WAT      O50350   3.518   8.856   2.115
16703WAT     H150351   3.474   8.832   2.202
16703WAT     H250352   3.614   8.828   2.119
16704WAT      O50353   0.487   3.439   8.074
16704WAT     H150354   0.559   3.375   8.046
16704WAT     H250355   0.519   3.533   8.062
16705WAT      O50356   4.877   9.734   5.504
16705WAT     H150357   4.951   9.793   5.473
16705WAT     H250358   4.897   9.639   5.479
16706WAT      O50359   1.911   5.219   7.672
16706WAT     H150360   1.835   5.161   7.702
16706WAT     H250361   1.874   5.303   7.633
16707WAT      O50362   8.669   8.591   9.354
16707WAT     H150363   8.660   8.685   9.387
16707WAT     H250364   8.579   8.547   9.353
16708WAT      O50365   9.779   9.836   0.011
16708WAT     H150366   9.818   9.780   0.083
16708WAT     H250367   9.689   9.799  -0.015
16709WAT      O50368   5.331   4.412   7.801
16709WAT     H150369   5.314   4.341   7.869
16709WAT     H250370   5.383   4.374   7.725
16710WAT      O50371   6.462   1.767   4.640
16710WAT     H150372   6.459   1.742   4.543
16710WAT     H250373   6.436   1.688   4.696
16711WAT      O50374   6.775   0.225   7.519
16711WAT     H150375   6.807   0.139   7.479
16711WAT     H250376   6.701   0.205   7.584
16712WAT      O50377   4.663   1.066   7.990
16712WAT     H150378   4.631   1.060   8.085
16712WAT     H250379   4.727   1.142   7.981
16713WAT      O50380   3.890   0.987   3.764
16713WAT     H150381   3.833   1.056   3.720
16713WAT     H250382   3.984   1.022   3.773
16714WAT      O50383   2.707   1.153   6.251
16714WAT     H150384   2.672   1.245   6.231
16714WAT     H250385   2.775   1.159   6.325
16715WAT      O50386   5.860   1.049   3.430
16715WAT     H150387   5.795   1.114   3.470
16715WAT     H250388   5.818   1.003   3.352
16716WAT      O50389   2.188   7.656   8.670
16716WAT     H150390   2.274   7.614   8.697
16716WAT     H250391   2.172   7.639   8.573
16717WAT      O50392   4.939   5.373   3.855
16717WAT     H150393   4.856   5.388   3.802
16717WAT     H250394   5.013   5.344   3.794
16718WAT      O50395   7.984   2.465   3.497
16718WAT     H150396   8.076   2.503   3.512
16718WAT     H250397   7.950   2.427   3.582
16719WAT      O50398   1.443   7.582   2.839
16719WAT     H150399   1.436   7.513   2.910
16719WAT     H250400   1.352   7.600   2.800
16720WAT      O50401   0.521   3.151   8.962
16720WAT     H150402   0.587   3.121   8.894
16720WAT     H250403   0.540   3.107   9.050
16721WAT      O50404   5.259   7.522   0.966
16721WAT     H150405   5.180   7.464   0.948
16721WAT     H250406   5.325   7.512   0.891
16722WAT      O50407   8.927   8.460   2.745
16722WAT     H150408   8.974   8.519   2.680
16722WAT     H250409   8.992   8.427   2.813
16723WAT      O50410   9.200   6.637   5.502
16723WAT     H150411   9.254   6.634   5.586
16723WAT     H250412   9.115   6.687   5.518
16724WAT      O50413   8.222   8.583   1.765
16724WAT     H150414   8.141   8.641   1.756
16724WAT     H250415   8.304   8.637   1.743
16725WAT      O50416   6.451   3.247   6.803
16725WAT     H150417   6.535   3.195   6.788
16725WAT     H250418   6.470   3.344   6.794
16726WAT      O50419   6.067   6.975   4.999
16726WAT     H150420   6.035   6.989   4.905
16726WAT     H250421   6.151   6.921   4.998
16727WAT      O50422   5.246   1.867   8.349
16727WAT     H150423   5.317   1.895   8.414
16727WAT     H250424   5.238   1.767   8.350
16728WAT      O50425   9.590   5.048   7.199
16728WAT     H150426   9.590   4.948   7.187
16728WAT     H250427   9.619   5.070   7.292
16729WAT      O50428   9.338   8.339   8.134
16729WAT     H150429   9.333   8.273   8.208
16729WAT     H250430   9.411   8.314   8.071
16730WAT      O50431   7.179   6.484   6.775
16730WAT     H150432   7.234   6.547   6.721
16730WAT     H250433   7.082   6.503   6.760
16731WAT      O50434   2.935   8.019   5.288
16731WAT     H150435   2.903   8.114   5.280
16731WAT     H250436   2.857   7.957   5.280
16732WAT      O50437   4.947   8.976   6.546
16732WAT     H150438   4.959   8.970   6.447
16732WAT     H250439   4.899   8.895   6.579
16733WAT      O50440   6.676   5.416   7.793
16733WAT     H150441   6.681   5.440   7.890
16733WAT     H250442   6.750   5.352   7.772
16734WAT      O50443   6.601   9.767   1.193
16734WAT     H150444   6.673   9.711   1.152
16734WAT     H250445   6.620   9.780   1.290
16735WAT      O50446   8.934   0.676   8.876
16735WAT     H150447   8.893   0.592   8.840
16735WAT     H250448   8.968   0.660   8.968
16736WAT      O50449   4.800   4.066   7.862
16736WAT     H150450   4.762   3.977   7.887
16736WAT     H250451   4.899   4.066   7.879
16737WAT      O50452   4.857   3.038   3.518
16737WAT     H150453   4.892   2.944   3.522
16737WAT     H250454   4.871   3.074   3.426
16738WAT      O50455   2.528   3.297   8.086
16738WAT     H150456   2.475   3.236   8.144
16738WAT     H250457   2.623   3.297   8.114
16739WAT      O50458   1.166   7.866   8.097
16739WAT     H150459   1.246   7.924   8.112
16739WAT     H250460   1.083   7.915   8.125
16740WAT      O50461   1.575   6.619   1.221
16740WAT     H150462   1.527   6.698   1.185
16740WAT     H250463   1.605   6.638   1.314
16741WAT      O50464   8.185   6.089   5.338
16741WAT     H150465   8.262   6.146   5.369
16741WAT     H250466   8.100   6.125   5.376
16742WAT      O50467   4.690   0.625   1.500
16742WAT     H150468   4.631   0.557   1.455
16742WAT     H250469   4.670   0.716   1.464
16743WAT      O50470   2.008   5.037   2.942
16743WAT     H150471   1.909   5.047   2.942
16743WAT     H250472   2.036   4.985   3.023
16744WAT      O50473   6.979   1.973   8.044
16744WAT     H150474   6.885   1.939   8.035
16744WAT     H250475   6.977   2.071   8.066
16745WAT      O50476   2.766   3.380   8.822
16745WAT     H150477   2.841   3.399   8.758
16745WAT     H250478   2.801   3.382   8.915
16746WAT      O50479   0.931   5.806   0.205
16746WAT     H150480   0.978   5.885   0.166
16746WAT     H250481   0.996   5.749   0.254
16747WAT      O50482   1.803   1.294   5.873
16747WAT     H150483   1.712   1.296   5.914
16747WAT     H250484   1.795   1.287   5.773
16748WAT      O50485   4.230   0.991   5.548
16748WAT     H150486   4.253   1.004   5.645
16748WAT     H250487   4.158   0.923   5.539
16749WAT      O50488   0.921   3.287   5.807
16749WAT     H150489   0.890   3.345   5.882
16749WAT     H250490   1.020   3.298   5.795
16750WAT      O50491   2.593   1.501   7.136
16750WAT     H150492   2.627   1.592   7.159
16750WAT     H250493   2.526   1.508   7.062
16751WAT      O50494   5.914   3.884   7.819
16751WAT     H150495   6.004   3.912   7.784
16751WAT     H250496   5.894   3.791   7.787
16752WAT      O50497   7.461   3.251   2.988
16752WAT     H150498   7.537   3.306   2.953
16752WAT     H250499   7.480   3.225   3.082
16753WAT      O50500   9.266   0.815   9.654
16753WAT     H150501   9.351   0.815   9.601
16753WAT     H250502   9.252   0.906   9.694
16754WAT      O50503   5.962   8.789   5.500
16754WAT     H150504   6.002   8.820   5.587
16754WAT     H250505   6.035   8.750   5.443
16755WAT      O50506   7.302   3.724   3.103
16755WAT     H150507   7.240   3.694   3.031
16755WAT     H250508   7.325   3.645   3.161
16756WAT      O50509   8.722   0.556   2.379
16756WAT     H150510   8.672   0.605   2.308
16756WAT     H250511   8.660   0.494   2.427
16757WAT      O50512   4.275   6.522   7.720
16757WAT     H150513   4.298   6.497   7.815
16757WAT     H250514   4.356   6.559   7.675
16758WAT      O50515   3.152   5.990   1.876
16758WAT     H150516   3.069   5.937   1.859
16758WAT     H250517   3.131   6.064   1.939
16759WAT      O50518   1.678   3.965   3.201
16759WAT     H150519   1.717   4.019   3.127
16759WAT     H250520   1.578   3.972   3.197
16760WAT      O50521   8.243   6.414   6.513
16760WAT     H150522   8.295   6.420   6.428
16760WAT     H250523   8.305   6.428   6.591
16761WAT      O50524   4.960   6.557   0.659
16761WAT     H150525   5.033   6.616   0.694
16761WAT     H250526   4.871   6.593   0.688
16762WAT      O50527   2.567   0.576   8.325
16762WAT     H150528   2.655   0.616   8.349
16762WAT     H250529   2.566   0.479   8.349
16763WAT      O50530   8.138   7.583   4.491
16763WAT     H150531   8.142   7.553   4.396
16763WAT     H250532   8.115   7.506   4.550
16764WAT      O50533   1.400   1.472   1.552
16764WAT     H150534   1.322   1.495   1.610
16764WAT     H250535   1.454   1.555   1.536
16765WAT      O50536   5.637   1.709   8.412
16765WAT     H150537   5.540   1.688   8.423
16765WAT     H250538   5.653   1.750   8.322
16766WAT      O50539   5.829   4.911   4.610
16766WAT     H150540   5.847   4.966   4.691
16766WAT     H250541   5.872   4.821   4.620
16767WAT      O50542   5.876   5.777   6.833
16767WAT     H150543   5.877   5.765   6.734
16767WAT     H250544   5.936   5.853   6.858
16768WAT      O50545   1.218   7.636   9.645
16768WAT     H150546   1.274   7.638   9.728
16768WAT     H250547   1.174   7.546   9.637
16769WAT      O50548   8.718   2.130   3.009
16769WAT     H150549   8.660   2.212   3.009
16769WAT     H250550   8.782   2.136   2.932
16770WAT      O50551   2.539   4.828   9.854
16770WAT     H150552   2.602   4.890   9.807
16770WAT     H250553   2.445   4.856   9.835
16771WAT      O50554   8.295   7.821   4.465
16771WAT     H150555   8.246   7.739   4.494
16771WAT     H250556   8.392   7.812   4.490
16772WAT      O50557   1.185   4.618   4.145
16772WAT     H150558   1.156   4.554   4.216
16772WAT     H250559   1.254   4.575   4.087
16773WAT      O50560   7.835   8.981   6.666
16773WAT     H150561   7.833   8.899   6.609
16773WAT     H250562   7.922   9.029   6.651
16774WAT      O50563   3.220   1.127   6.423
16774WAT     H150564   3.317   1.141   6.403
16774WAT     H250565   3.200   1.160   6.515
16775WAT      O50566   1.562   7.674   9.478
16775WAT     H150567   1.508   7.700   9.399
16775WAT     H250568   1.659   7.675   9.455
16776WAT      O50569   7.975   3.748   7.966
16776WAT     H150570   7.930   3.828   7.927
16776WAT     H250571   8.073   3.750   7.944
16777WAT      O50572   6.658   0.142   3.295
16777WAT     H150573   6.636   0.087   3.376
16777WAT     H250574   6.748   0.185   3.308
16778WAT      O50575   1.479   5.381   5.048
16778WAT     H150576   1.464   5.315   4.974
16778WAT     H250577   1.432   5.467   5.026
16779WAT      O50578   4.128   5.384   4.643
16779WAT     H150579   4.152   5.446   4.569
16779WAT     H250580   4.031   5.360   4.635
16780WAT      O50581   5.941   3.003   8.279
16780WAT     H150582   5.876   3.041   8.215
16780WAT     H250583   6.016   2.959   8.229
16781WAT      O50584   4.937   6.829   5.776
16781WAT     H150585   4.941   6.920   5.817
16781WAT     H250586   4.845   6.792   5.785
16782WAT      O50587   4.306   1.705   9.825
16782WAT     H150588   4.209   1.684   9.834
16782WAT     H250589   4.354   1.682   9.910
16783WAT      O50590   0.513   0.359   1.870
16783WAT     H150591   0.432   0.325   1.822
16783WAT     H250592   0.580   0.285   1.878
16784WAT      O50593   5.982   3.403   9.467
16784WAT     H150594   5.990   3.493   9.423
16784WAT     H250595   6.032   3.335   9.413
16785WAT      O50596   9.261   1.058   7.574
16785WAT     H150597   9.345   1.049   7.627
16785WAT     H250598   9.223   0.967   7.556
16786WAT      O50599   0.849   3.140   6.347
16786WAT     H150600   0.919   3.203   6.314
16786WAT     H250601   0.887   3.047   6.352
16787WAT      O50602   0.899   5.300   6.851
16787WAT     H150603   0.934   5.393   6.856
16787WAT     H250604   0.894   5.262   6.944
16788WAT      O50605   6.100   9.365   2.265
16788WAT     H150606   6.132   9.341   2.173
16788WAT     H250607   6.008   9.329   2.279
16789WAT      O50608   9.400   1.147   8.437
16789WAT     H150609   9.390   1.101   8.525
16789WAT     H250610   9.491   1.126   8.399
16790WAT      O50611   2.411   7.434   1.940
16790WAT     H150612   2.348   7.479   2.003
16790WAT     H250613   2.374   7.345   1.913
16791WAT      O50614   6.750   4.316   1.215
16791WAT     H150615   6.722   4.265   1.133
16791WAT     H250616   6.764   4.412   1.190
16792WAT      O50617   5.211   9.052   7.266
16792WAT     H150618   5.201   9.140   7.221
16792WAT     H250619   5.220   8.980   7.198
16793WAT      O50620   0.157   8.431   5.706
16793WAT     H150621   0.203   8.512   5.669
16793WAT     H250622   0.066   8.423   5.666
16794WAT      O50623   3.423   1.049   6.686
16794WAT     H150624   3.454   1.097   6.604
16794WAT     H250625   3.458   1.096   6.767
16795WAT      O50626   9.363   2.938   5.884
16795WAT     H150627   9.357   2.838   5.882
16795WAT     H250628   9.423   2.969   5.810
16796WAT      O50629   0.302   9.065   7.064
16796WAT     H150630   0.400   9.080   7.050
16796WAT     H250631   0.278   8.973   7.032
16797WAT      O50632   9.307   9.337   2.186
16797WAT     H150633   9.307   9.366   2.281
16797WAT     H250634   9.378   9.387   2.136
16798WAT      O50635   7.771   2.350   2.626
16798WAT     H150636   7.733   2.286   2.694
16798WAT     H250637   7.871   2.351   2.633
16799WAT      O50638   2.221   2.177   3.518
16799WAT     H150639   2.248   2.113   3.446
16799WAT     H250640   2.156   2.133   3.579
16800WAT      O50641   3.048   2.708   3.063
16800WAT     H150642   3.143   2.691   3.037
16800WAT     H250643   3.040   2.710   3.163
16801WAT      O50644   0.346   2.670   2.230
16801WAT     H150645   0.356   2.700   2.135
16801WAT     H250646   0.420   2.606   2.252
16802WAT      O50647   5.077   3.697   0.667
16802WAT     H150648   4.997   3.639   0.683
16802WAT     H250649   5.128   3.708   0.752
16803WAT      O50650   4.180   3.212   1.196
16803WAT     H150651   4.278   3.230   1.197
16803WAT     H250652   4.132   3.291   1.159
16804WAT      O50653   4.147   0.047   8.375
16804WAT     H150654   4.056   0.008   8.362
16804WAT     H250655   4.216  -0.019   8.346
16805WAT      O50656   2.815   5.830   4.104
16805WAT     H150657   2.846   5.889   4.179
16805WAT     H250658   2.786   5.741   4.142
16806WAT      O50659   7.169   0.137   5.268
16806WAT     H150660   7.135   0.060   5.323
16806WAT     H250661   7.162   0.113   5.171
16807WAT      O50662   7.940   3.097   9.565
16807WAT     H150663   7.882   3.020   9.591
16807WAT     H250664   7.910   3.135   9.478
16808WAT      O50665   4.300   7.070   1.161
16808WAT     H150666   4.342   7.156   1.190
16808WAT     H250667   4.204   7.086   1.139
16809WAT      O50668   3.379   4.991   9.522
16809WAT     H150669   3.280   4.977   9.525
16809WAT     H250670   3.425   4.916   9.569
16810WAT      O50671   0.062   1.365   1.971
16810WAT     H150672  -0.035   1.351   1.993
16810WAT     H250673   0.095   1.447   2.018
16811WAT      O50674   2.298   8.105   5.088
16811WAT     H150675   2.230   8.031   5.094
16811WAT     H250676   2.278   8.162   5.008
16812WAT      O50677   3.116   6.657   2.509
16812WAT     H150678   3.155   6.731   2.564
16812WAT     H250679   3.107   6.687   2.414
16813WAT      O50680   6.937   6.674   8.428
16813WAT     H150681   6.997   6.652   8.351
16813WAT     H250682   6.972   6.755   8.475
16814WAT      O50683   6.736   0.725   6.136
16814WAT     H150684   6.741   0.749   6.233
16814WAT     H250685   6.661   0.660   6.121
16815WAT      O50686   3.531   6.152   6.888
16815WAT     H150687   3.473   6.109   6.957
16815WAT     H250688   3.493   6.241   6.863
16816WAT      O50689   0.611   3.790   1.558
16816WAT     H150690   0.558   3.862   1.603
16816WAT     H250691   0.706   3.819   1.549
16817WAT      O50692   2.234   4.303   8.510
16817WAT     H150693   2.227   4.328   8.607
16817WAT     H250694   2.218   4.205   8.499
16818WAT      O50695   6.066   6.843   7.484
16818WAT     H150696   6.157   6.836   7.443
16818WAT     H250697   6.015   6.915   7.438
16819WAT      O50698   7.091   4.845   6.134
16819WAT     H150699   7.080   4.935   6.177
16819WAT     H250700   7.188   4.825   6.124
16820WAT      O50701   8.060   3.701   9.112
16820WAT     H150702   7.985   3.729   9.053
16820WAT     H250703   8.042   3.610   9.149
16821WAT      O50704   2.169   0.664   9.141
16821WAT     H150705   2.233   0.596   9.106
16821WAT     H250706   2.143   0.641   9.234
16822WAT      O50707   2.869   6.811   0.227
16822WAT     H150708   2.828   6.864   0.152
16822WAT     H250709   2.954   6.769   0.195
16823WAT      O50710   2.854   7.455   1.415
16823WAT     H150711   2.895   7.543   1.438
16823WAT     H250712   2.910   7.381   1.453
16824WAT      O50713   5.142   1.544   2.640
16824WAT     H150714   5.092   1.518   2.557
16824WAT     H250715   5.124   1.478   2.712
16825WAT      O50716   1.058   1.000   3.382
16825WAT     H150717   1.123   0.924   3.385
16825WAT     H250718   0.982   0.977   3.321
16826WAT      O50719   2.624   0.616   8.819
16826WAT     H150720   2.690   0.579   8.754
16826WAT     H250721   2.653   0.594   8.912
16827WAT      O50722   4.212   6.102   7.767
16827WAT     H150723   4.180   6.012   7.737
16827WAT     H250724   4.149   6.172   7.733
16828WAT      O50725   3.900   0.577   1.748
16828WAT     H150726   3.976   0.570   1.812
16828WAT     H250727   3.819   0.534   1.787
16829WAT      O50728   7.511   5.633   5.884
16829WAT     H150729   7.584   5.619   5.951
16829WAT     H250730   7.435   5.571   5.903
16830WAT      O50731   4.304   2.183   3.734
16830WAT     H150732   4.346   2.098   3.767
16830WAT     H250733   4.374   2.253   3.725
16831WAT      O50734   2.546   9.517   8.973
16831WAT     H150735   2.564   9.463   9.056
16831WAT     H250736   2.596   9.477   8.896
16832WAT      O50737   1.902   3.371   4.912
16832WAT     H150738   1.879   3.302   4.980
16832WAT     H250739   1.874   3.340   4.821
16833WAT      O50740   8.738   7.850   0.286
16833WAT     H150741   8.731   7.769   0.343
16833WAT     H250742   8.705   7.829   0.194
16834WAT      O50743   8.268   5.191   9.282
16834WAT     H150744   8.341   5.142   9.330
16834WAT     H250745   8.271   5.169   9.185
16835WAT      O50746   0.753   0.441   2.772
16835WAT     H150747   0.673   0.470   2.825
16835WAT     H250748   0.796   0.363   2.817
16836WAT      O50749   0.230   6.895   8.239
16836WAT     H150750   0.230   6.933   8.331
16836WAT     H250751   0.203   6.798   8.243
16837WAT      O50752   0.998   7.636   5.027
16837WAT     H150753   0.987   7.561   5.092
16837WAT     H250754   0.978   7.602   4.935
16838WAT      O50755   1.121   8.504   2.444
16838WAT     H150756   1.101   8.567   2.519
16838WAT     H250757   1.040   8.449   2.424
16839WAT      O50758   1.769   0.224   2.907
16839WAT     H150759   1.827   0.303   2.925
16839WAT     H250760   1.712   0.206   2.988
16840WAT      O50761   8.011   5.270   6.627
16840WAT     H150762   8.061   5.282   6.541
16840WAT     H250763   8.022   5.352   6.683
16841WAT      O50764   9.495   9.400   5.231
16841WAT     H150765   9.408   9.387   5.184
16841WAT     H250766   9.487   9.370   5.326
16842WAT      O50767   3.919   4.209   7.521
16842WAT     H150768   3.895   4.114   7.544
16842WAT     H250769   3.945   4.213   7.424
16843WAT      O50770   6.839   8.475   3.477
16843WAT     H150771   6.792   8.488   3.389
16843WAT     H250772   6.878   8.383   3.481
16844WAT      O50773   8.065   1.099   2.178
16844WAT     H150774   8.144   1.130   2.230
16844WAT     H250775   8.095   1.052   2.095
16845WAT      O50776   1.615   5.580   7.492
16845WAT     H150777   1.517   5.591   7.473
16845WAT     H250778   1.662   5.667   7.473
16846WAT      O50779   3.601   0.789   5.332
16846WAT     H150780   3.508   0.822   5.312
16846WAT     H250781   3.631   0.730   5.257
16847WAT      O50782   7.024   2.946   6.676
16847WAT     H150783   7.015   3.034   6.722
16847WAT     H250784   7.119   2.914   6.682
16848WAT      O50785   5.240   1.979   1.608
16848WAT     H150786   5.303   1.916   1.562
16848WAT     H250787   5.269   1.991   1.703
16849WAT      O50788   5.696   8.187   0.422
16849WAT     H150789   5.721   8.094   0.450
16849WAT     H250790   5.764   8.251   0.458
16850WAT      O50791   0.960   5.991   2.214
16850WAT     H150792   0.978   6.054   2.138
16850WAT     H250793   1.046   5.948   2.242
16851WAT      O50794   1.716   1.835   3.417
16851WAT     H150795   1.719   1.783   3.502
16851WAT     H250796   1.667   1.921   3.432
16852WAT      O50797   0.900   8.447   2.677
16852WAT     H150798   0.906   8.349   2.657
16852WAT     H250799   0.880   8.460   2.774
16853WAT      O50800   1.141   1.245   3.362
16853WAT     H150801   1.229   1.237   3.314
16853WAT     H250802   1.099   1.154   3.370
16854WAT      O50803   0.812   7.899   1.890
16854WAT     H150804   0.743   7.896   1.819
16854WAT     H250805   0.773   7.940   1.973
16855WAT      O50806   0.823   2.214   5.051
16855WAT     H150807   0.912   2.258   5.042
16855WAT     H250808   0.834   2.128   5.102
16856WAT      O50809   1.314   7.900   5.521
16856WAT     H150810   1.321   7.999   5.529
16856WAT     H250811   1.279   7.862   5.607
16857WAT      O50812   6.788   1.938   0.141
16857WAT     H150813   6.872   1.944   0.086
16857WAT     H250814   6.731   2.018   0.122
16858WAT      O50815   0.460   0.021   9.539
16858WAT     H150816   0.503   0.099   9.584
16858WAT     H250817   0.440   0.044   9.444
16859WAT      O50818   6.111   5.735   1.181
16859WAT     H150819   6.190   5.697   1.134
16859WAT     H250820   6.080   5.671   1.251
16860WAT      O50821   0.805   6.849   4.369
16860WAT     H150822   0.774   6.802   4.451
16860WAT     H250823   0.805   6.785   4.292
16861WAT      O50824   4.060   6.085   1.392
16861WAT     H150825   3.974   6.083   1.443
16861WAT     H250826   4.134   6.051   1.450
16862WAT      O50827   5.004   1.774   6.908
16862WAT     H150828   4.909   1.766   6.939
16862WAT     H250829   5.065   1.772   6.987
16863WAT      O50830   0.074   4.723   0.235
16863WAT     H150831   0.112   4.807   0.195
16863WAT     H250832   0.072   4.652   0.165
16864WAT      O50833   0.373   6.942   5.029
16864WAT     H150834   0.356   6.843   5.029
16864WAT     H250835   0.375   6.975   5.123
16865WAT      O50836   5.058   0.781   1.065
16865WAT     H150837   5.028   0.709   1.128
16865WAT     H250838   4.994   0.858   1.069
16866WAT      O50839   4.500   0.238   9.749
16866WAT     H150840   4.580   0.221   9.807
16866WAT     H250841   4.419   0.197   9.791
16867WAT      O50842   8.394   9.271   4.204
16867WAT     H150843   8.372   9.189   4.151
16867WAT     H250844   8.416   9.246   4.298
16868WAT      O50845   6.849   4.618   2.847
16868WAT     H150846   6.829   4.615   2.749
16868WAT     H250847   6.826   4.708   2.883
16869WAT      O50848   7.933   7.260   9.642
16869WAT     H150849   7.957   7.313   9.723
16869WAT     H250850   7.904   7.322   9.569
16870WAT      O50851   3.102   0.361   6.089
16870WAT     H150852   3.053   0.374   6.176
16870WAT     H250853   3.107   0.448   6.040
16871WAT      O50854   8.369   1.548   8.820
16871WAT     H150855   8.351   1.595   8.906
16871WAT     H250856   8.290   1.492   8.795
16872WAT      O50857   2.845   2.275   8.848
16872WAT     H150858   2.762   2.313   8.807
16872WAT     H250859   2.880   2.338   8.917
16873WAT      O50860   8.287   8.409   1.138
16873WAT     H150861   8.327   8.396   1.047
16873WAT     H250862   8.272   8.319   1.179
16874WAT      O50863   0.015   0.930   6.931
16874WAT     H150864  -0.085   0.938   6.929
16874WAT     H250865   0.041   0.850   6.985
16875WAT      O50866   9.102   1.707   8.090
16875WAT     H150867   9.163   1.668   8.021
16875WAT     H250868   9.046   1.634   8.129
16876WAT      O50869   7.354   2.134   6.314
16876WAT     H150870   7.449   2.154   6.291
16876WAT     H250871   7.294   2.192   6.259
16877WAT      O50872   9.877   4.108   4.979
16877WAT     H150873   9.818   4.126   5.058
16877WAT     H250874   9.860   4.016   4.945
16878WAT      O50875   3.378   8.572   9.061
16878WAT     H150876   3.322   8.580   8.979
16878WAT     H250877   3.361   8.649   9.122
16879WAT      O50878   3.468   8.200   4.257
16879WAT     H150879   3.455   8.298   4.276
16879WAT     H250880   3.544   8.189   4.194
16880WAT      O50881   7.128   3.001   1.448
16880WAT     H150882   7.210   2.952   1.416
16880WAT     H250883   7.126   3.092   1.408
16881WAT      O50884   8.425   6.227   2.414
16881WAT     H150885   8.442   6.205   2.510
16881WAT     H250886   8.378   6.315   2.407
16882WAT      O50887   6.437   1.750   5.095
16882WAT     H150888   6.352   1.716   5.056
16882WAT     H250889   6.436   1.850   5.098
16883WAT      O50890   2.940   5.452   0.671
16883WAT     H150891   2.841   5.441   0.668
16883WAT     H250892   2.977   5.400   0.748
16884WAT      O50893   2.990   3.625   6.532
16884WAT     H150894   2.919   3.613   6.600
16884WAT     H250895   3.045   3.706   6.555
16885WAT      O50896   1.613   0.285   9.473
16885WAT     H150897   1.551   0.248   9.405
16885WAT     H250898   1.649   0.211   9.530
16886WAT      O50899   7.727   0.796   0.017
16886WAT     H150900   7.651   0.736  -0.008
16886WAT     H250901   7.724   0.815   0.115
16887WAT      O50902   4.952   6.729   7.772
16887WAT     H150903   5.001   6.809   7.739
16887WAT     H250904   4.972   6.715   7.869
16888WAT      O50905   8.140   6.928   0.796
16888WAT     H150906   8.211   6.999   0.791
16888WAT     H250907   8.182   6.839   0.812
16889WAT      O50908   7.369   0.675   2.230
16889WAT     H150909   7.378   0.742   2.305
16889WAT     H250910   7.388   0.584   2.265
16890WAT      O50911   8.342   5.781   2.006
16890WAT     H150912   8.284   5.855   2.039
16890WAT     H250913   8.367   5.797   1.910
16891WAT      O50914   2.668   0.760   6.156
16891WAT     H150915   2.688   0.796   6.065
16891WAT     H250916   2.570   0.743   6.165
16892WAT      O50917   8.675   5.671   3.702
16892WAT     H150918   8.637   5.709   3.786
16892WAT     H250919   8.775   5.675   3.706
16893WAT      O50920   8.004   4.950   8.094
16893WAT     H150921   7.913   4.965   8.133
16893WAT     H250922   7.998   4.947   7.994
16894WAT      O50923   3.259   5.848   9.631
16894WAT     H150924   3.246   5.874   9.726
16894WAT     H250925   3.182   5.880   9.576
16895WAT      O50926   8.621   1.143   8.425
16895WAT     H150927   8.687   1.096   8.367
16895WAT     H250928   8.659   1.153   8.517
16896WAT      O50929   4.753   8.823   6.980
16896WAT     H150930   4.664   8.792   7.013
16896WAT     H250931   4.759   8.922   6.989
16897WAT      O50932   9.182   2.621   9.016
16897WAT     H150933   9.131   2.701   9.048
16897WAT     H250934   9.279   2.635   9.032
16898WAT      O50935   9.357   5.149   7.442
16898WAT     H150936   9.448   5.130   7.479
16898WAT     H250937   9.363   5.224   7.376
16899WAT      O50938   8.346   8.251   4.060
16899WAT     H150939   8.415   8.209   4.119
16899WAT     H250940   8.365   8.226   3.965
16900WAT      O50941   7.615   2.006   8.088
16900WAT     H150942   7.519   2.014   8.060
16900WAT     H250943   7.620   2.009   8.188
16901WAT      O50944   0.111   5.608   0.843
16901WAT     H150945   0.129   5.683   0.780
16901WAT     H250946   0.024   5.624   0.890
16902WAT      O50947   4.577   3.951   9.401
16902WAT     H150948   4.506   3.881   9.402
16902WAT     H250949   4.547   4.029   9.457
16903WAT      O50950   6.886   3.573   5.863
16903WAT     H150951   6.950   3.522   5.922
16903WAT     H250952   6.879   3.667   5.896
16904WAT      O50953   9.072   4.932   5.599
16904WAT     H150954   9.150   4.990   5.624
16904WAT     H250955   9.044   4.879   5.679
16905WAT      O50956   2.702   0.822   7.549
16905WAT     H150957   2.681   0.920   7.545
16905WAT     H250958   2.789   0.809   7.597
16906WAT      O50959   8.114   6.206   9.567
16906WAT     H150960   8.190   6.213   9.630
16906WAT     H250961   8.135   6.139   9.496
16907WAT      O50962   2.728   7.096   3.161
16907WAT     H150963   2.778   7.166   3.110
16907WAT     H250964   2.681   7.138   3.238
16908WAT      O50965   8.910   1.942   2.433
16908WAT     H150966   8.824   1.905   2.469
16908WAT     H250967   8.905   2.042   2.430
16909WAT      O50968   5.233   7.310   7.864
16909WAT     H150969   5.176   7.388   7.891
16909WAT     H250970   5.275   7.270   7.945
16910WAT      O50971   5.173   2.384   4.073
16910WAT     H150972   5.078   2.413   4.087
16910WAT     H250973   5.228   2.463   4.045
16911WAT      O50974   8.692   6.520   3.112
16911WAT     H150975   8.627   6.481   3.177
16911WAT     H250976   8.718   6.612   3.142
16912WAT      O50977   4.388   7.599   8.727
16912WAT     H150978   4.348   7.683   8.687
16912WAT     H250979   4.370   7.522   8.665
16913WAT      O50980   6.393   1.181   3.086
16913WAT     H150981   6.316   1.200   3.025
16913WAT     H250982   6.477   1.216   3.045
16914WAT      O50983   8.919   0.855   6.119
16914WAT     H150984   8.854   0.928   6.136
16914WAT     H250985   8.925   0.795   6.199
16915WAT      O50986   6.852   5.333   1.602
16915WAT     H150987   6.799   5.401   1.552
16915WAT     H250988   6.944   5.369   1.620
16916WAT      O50989   0.162   0.242   5.147
16916WAT     H150990   0.108   0.268   5.068
16916WAT     H250991   0.104   0.198   5.215
16917WAT      O50992   2.137   2.307   6.139
16917WAT     H150993   2.232   2.293   6.114
16917WAT     H250994   2.086   2.222   6.126
16918WAT      O50995   2.251   8.917   8.495
16918WAT     H150996   2.195   8.857   8.552
16918WAT     H250997   2.208   8.928   8.406
16919WAT      O50998   9.109   8.607   9.060
16919WAT     H150999   9.149   8.516   9.048
16919WAT     H251000   9.053   8.608   9.142
16920WAT      O51001   4.674   6.746   5.747
16920WAT     H151002   4.695   6.671   5.684
16920WAT     H251003   4.601   6.718   5.809
16921WAT      O51004   2.108   8.812   0.024
16921WAT     H151005   2.024   8.851  -0.013
16921WAT     H251006   2.174   8.798  -0.049
16922WAT      O51007   6.113   7.420   9.670
16922WAT     H151008   6.151   7.340   9.625
16922WAT     H251009   6.147   7.503   9.625
16923WAT      O51010   9.456   7.138   9.793
16923WAT     H151011   9.521   7.139   9.717
16923WAT     H251012   9.460   7.225   9.841
16924WAT      O51013   9.660   1.004   8.644
16924WAT     H151014   9.730   1.061   8.688
16924WAT     H251015   9.705   0.929   8.595
16925WAT      O51016   3.728   5.307   2.650
16925WAT     H151017   3.713   5.208   2.642
16925WAT     H251018   3.703   5.338   2.741
16926WAT      O51019   4.857   3.444   1.216
16926WAT     H151020   4.795   3.366   1.208
16926WAT     H251021   4.832   3.498   1.296
16927WAT      O51022   8.384   3.605   0.784
16927WAT     H151023   8.421   3.576   0.696
16927WAT     H251024   8.284   3.603   0.780
16928WAT      O51025   1.008   6.357   9.785
16928WAT     H151026   0.945   6.305   9.842
16928WAT     H251027   1.025   6.446   9.828
16929WAT      O51028   7.658   0.021   3.747
16929WAT     H151029   7.620   0.074   3.823
16929WAT     H251030   7.728   0.075   3.700
16930WAT      O51031   1.589   4.595   2.636
16930WAT     H151032   1.669   4.536   2.632
16930WAT     H251033   1.508   4.540   2.658
16931WAT      O51034   9.675   3.710   1.987
16931WAT     H151035   9.585   3.729   2.025
16931WAT     H251036   9.716   3.632   2.034
16932WAT      O51037   0.623   0.631   0.845
16932WAT     H151038   0.615   0.702   0.915
16932WAT     H251039   0.531   0.605   0.813
16933WAT      O51040   1.899   8.840   3.790
16933WAT     H151041   1.810   8.884   3.802
16933WAT     H251042   1.928   8.798   3.876
16934WAT      O51043   5.629   6.637   4.505
16934WAT     H151044   5.660   6.719   4.456
16934WAT     H251045   5.599   6.568   4.439
16935WAT      O51046   4.970   6.010   0.179
16935WAT     H151047   4.878   5.986   0.148
16935WAT     H251048   4.999   6.096   0.136
16936WAT      O51049   3.665   7.575   1.024
16936WAT     H151050   3.683   7.494   1.080
16936WAT     H251051   3.750   7.606   0.982
16937WAT      O51052   5.097   6.878   3.544
16937WAT     H151053   5.182   6.921   3.516
16937WAT     H251054   5.117   6.795   3.597
16938WAT      O51055   5.652   6.861   4.331
16938WAT     H151056   5.593   6.918   4.389
16938WAT     H251057   5.610   6.852   4.241
16939WAT      O51058   9.268   7.421   0.859
16939WAT     H151059   9.316   7.507   0.875
16939WAT     H251060   9.314   7.348   0.911
16940WAT      O51061   0.180   4.533   1.602
16940WAT     H151062   0.121   4.460   1.635
16940WAT     H251063   0.250   4.553   1.671
16941WAT      O51064   0.455   9.682   6.642
16941WAT     H151065   0.453   9.769   6.592
16941WAT     H251066   0.383   9.681   6.711
16942WAT      O51067   3.572   2.469   0.821
16942WAT     H151068   3.477   2.484   0.849
16942WAT     H251069   3.606   2.385   0.863
16943WAT      O51070   0.322   9.168   1.692
16943WAT     H151071   0.251   9.155   1.761
16943WAT     H251072   0.397   9.104   1.709
16944WAT      O51073   6.219   2.241   1.284
16944WAT     H151074   6.158   2.197   1.218
16944WAT     H251075   6.218   2.190   1.370
16945WAT      O51076   1.256   5.136   7.990
16945WAT     H151077   1.199   5.056   7.976
16945WAT     H251078   1.312   5.152   7.909
16946WAT      O51079   9.036   1.411   7.285
16946WAT     H151080   8.965   1.472   7.321
16946WAT     H251081   9.054   1.339   7.351
16947WAT      O51082   8.766   2.218   9.711
16947WAT     H151083   8.699   2.155   9.673
16947WAT     H251084   8.757   2.221   9.811
16948WAT      O51085   9.539   1.095   4.826
16948WAT     H151086   9.464   1.138   4.775
16948WAT     H251087   9.506   1.061   4.913
16949WAT      O51088   8.539   6.973   8.639
16949WAT     H151089   8.530   7.054   8.582
16949WAT     H251090   8.449   6.949   8.677
16950WAT      O51091   9.443   0.934   0.824
16950WAT     H151092   9.465   0.840   0.852
16950WAT     H251093   9.392   0.932   0.738
16951WAT      O51094   2.477   3.555   3.276
16951WAT     H151095   2.569   3.572   3.312
16951WAT     H251096   2.473   3.463   3.237
16952WAT      O51097   6.195   3.406   3.880
16952WAT     H151098   6.290   3.380   3.898
16952WAT     H251099   6.191   3.504   3.861
16953WAT      O51100   4.897   7.044   3.669
16953WAT     H151101   4.808   7.027   3.627
16953WAT     H251102   4.967   6.991   3.621
16954WAT      O51103   3.109   5.218   7.825
16954WAT     H151104   3.023   5.267   7.836
16954WAT     H251105   3.101   5.127   7.868
16955WAT      O51106   5.109   1.275   1.787
16955WAT     H151107   5.154   1.282   1.697
16955WAT     H251108   5.087   1.179   1.805
16956WAT      O51109   7.673   9.483   9.765
16956WAT     H151110   7.643   9.495   9.671
16956WAT     H251111   7.764   9.522   9.777
16957WAT      O51112   8.623   9.561   8.889
16957WAT     H151113   8.551   9.605   8.942
16957WAT     H251114   8.637   9.468   8.921
16958WAT      O51115   5.440   3.217   7.214
16958WAT     H151116   5.487   3.275   7.280
16958WAT     H251117   5.372   3.160   7.261
16959WAT      O51118   3.825   1.295   6.999
16959WAT     H151119   3.857   1.202   6.981
16959WAT     H251120   3.840   1.351   6.917
16960WAT      O51121   6.140   6.664   8.229
16960WAT     H151122   6.128   6.568   8.253
16960WAT     H251123   6.182   6.671   8.139
16961WAT      O51124   0.207   2.674   7.121
16961WAT     H151125   0.240   2.716   7.036
16961WAT     H251126   0.124   2.720   7.151
16962WAT      O51127   1.284   2.573   8.811
16962WAT     H151128   1.384   2.570   8.816
16962WAT     H251129   1.255   2.662   8.778
16963WAT      O51130   2.844   3.132   4.708
16963WAT     H151131   2.912   3.204   4.710
16963WAT     H251132   2.886   3.045   4.732
16964WAT      O51133   2.616   5.540   7.834
16964WAT     H151134   2.568   5.463   7.876
16964WAT     H251135   2.639   5.607   7.905
16965WAT      O51136   3.225   0.664   5.681
16965WAT     H151137   3.191   0.595   5.617
16965WAT     H251138   3.324   0.653   5.691
16966WAT      O51139   3.356   1.196   7.871
16966WAT     H151140   3.291   1.270   7.855
16966WAT     H251141   3.384   1.156   7.784
16967WAT      O51142   9.543   7.569   4.179
16967WAT     H151143   9.537   7.667   4.162
16967WAT     H251144   9.523   7.519   4.094
16968WAT      O51145   6.859   0.996   1.038
16968WAT     H151146   6.908   1.082   1.026
16968WAT     H251147   6.832   0.960   0.949
16969WAT      O51148   9.423   9.285   3.677
16969WAT     H151149   9.400   9.373   3.718
16969WAT     H251150   9.340   9.245   3.636
16970WAT      O51151   8.300   6.852   0.522
16970WAT     H151152   8.325   6.814   0.611
16970WAT     H251153   8.203   6.835   0.505
16971WAT      O51154   3.636   1.522   4.786
16971WAT     H151155   3.707   1.458   4.755
16971WAT     H251156   3.679   1.603   4.825
16972WAT      O51157   4.049   6.579   2.317
16972WAT     H151158   4.031   6.627   2.403
16972WAT     H251159   3.967   6.529   2.289
16973WAT      O51160   1.055   9.412   5.426
16973WAT     H151161   1.133   9.468   5.400
16973WAT     H251162   1.082   9.349   5.500
16974WAT      O51163   9.184   7.067   3.230
16974WAT     H151164   9.166   6.970   3.242
16974WAT     H251165   9.102   7.119   3.255
16975WAT      O51166   0.734   4.418   0.708
16975WAT     H151167   0.797   4.375   0.773
16975WAT     H251168   0.703   4.350   0.642
16976WAT      O51169   2.185   1.730   1.263
16976WAT     H151170   2.098   1.758   1.304
16976WAT     H251171   2.186   1.631   1.253
16977WAT      O51172   7.837   1.032   5.210
16977WAT     H151173   7.789   0.970   5.148
16977WAT     H251174   7.911   0.982   5.256
16978WAT      O51175   8.298   6.297   7.326
16978WAT     H151176   8.379   6.300   7.269
16978WAT     H251177   8.294   6.378   7.384
16979WAT      O51178   4.849   7.525   0.658
16979WAT     H151179   4.869   7.437   0.615
16979WAT     H251180   4.853   7.515   0.758
16980WAT      O51181   1.463   7.984   6.335
16980WAT     H151182   1.506   8.037   6.262
16980WAT     H251183   1.411   8.044   6.395
16981WAT      O51184   3.212   9.774   9.648
16981WAT     H151185   3.239   9.718   9.726
16981WAT     H251186   3.276   9.757   9.572
16982WAT      O51187   8.049   1.992   3.794
16982WAT     H151188   7.970   1.946   3.834
16982WAT     H251189   8.026   2.023   3.701
16983WAT      O51190   9.564   4.625   1.166
16983WAT     H151191   9.598   4.532   1.149
16983WAT     H251192   9.633   4.692   1.138
16984WAT      O51193   6.961   6.542   9.211
16984WAT     H151194   7.006   6.475   9.152
16984WAT     H251195   6.890   6.590   9.160
16985WAT      O51196   6.566   4.400   5.039
16985WAT     H151197   6.556   4.469   4.967
16985WAT     H251198   6.589   4.312   4.998
16986WAT      O51199   2.066   3.889   8.367
16986WAT     H151200   2.134   3.947   8.322
16986WAT     H251201   2.098   3.795   8.368
16987WAT      O51202   8.363   3.095   7.395
16987WAT     H151203   8.294   3.106   7.323
16987WAT     H251204   8.339   3.152   7.473
16988WAT      O51205   6.330   4.305   1.014
16988WAT     H151206   6.234   4.284   0.992
16988WAT     H251207   6.350   4.399   0.985
16989WAT      O51208   4.305   9.142   6.117
16989WAT     H151209   4.366   9.100   6.050
16989WAT     H251210   4.276   9.074   6.183
16990WAT      O51211   8.554   0.074   4.749
16990WAT     H151212   8.521  -0.001   4.691
16990WAT     H251213   8.523   0.059   4.843
16991WAT      O51214   3.294   0.381   4.288
16991WAT     H151215   3.286   0.455   4.222
16991WAT     H251216   3.388   0.377   4.323
16992WAT      O51217   1.139   4.274   6.264
16992WAT     H151218   1.057   4.330   6.258
16992WAT     H251219   1.187   4.294   6.350
16993WAT      O51220   5.838   0.185   2.389
16993WAT     H151221   5.897   0.234   2.453
16993WAT     H251222   5.791   0.250   2.330
16994WAT      O51223   1.590   1.788   8.340
16994WAT     H151224   1.685   1.771   8.314
16994WAT     H251225   1.566   1.883   8.319
16995WAT      O51226   9.199   7.114   7.595
16995WAT     H151227   9.149   7.054   7.658
16995WAT     H251228   9.230   7.061   7.516
16996WAT      O51229   2.819   5.026   6.761
16996WAT     H151230   2.814   4.987   6.853
16996WAT     H251231   2.839   4.954   6.695
16997WAT      O51232   7.576   0.920   1.884
16997WAT     H151233   7.580   1.019   1.872
16997WAT     H251234   7.480   0.890   1.883
16998WAT      O51235   7.172   2.549   9.656
16998WAT     H151236   7.183   2.562   9.558
16998WAT     H251237   7.144   2.454   9.674
16999WAT      O51238   6.971   8.618   3.247
16999WAT     H151239   6.941   8.641   3.339
16999WAT     H251240   6.950   8.522   3.227
17000WAT      O51241   3.167   8.863   9.189
17000WAT     H151242   3.120   8.819   9.112
17000WAT     H251243   3.160   8.804   9.270
17001WAT      O51244   2.581   9.288   6.805
17001WAT     H151245   2.592   9.234   6.889
17001WAT     H251246   2.503   9.253   6.753
17002WAT      O51247   6.907   9.714   9.078
17002WAT     H151248   6.987   9.770   9.098
17002WAT     H251249   6.829   9.747   9.130
17003WAT      O51250   6.111   9.678   8.728
17003WAT     H151251   6.064   9.704   8.812
17003WAT     H251252   6.111   9.578   8.719
17004WAT      O51253   2.287   1.595   0.552
17004WAT     H151254   2.311   1.692   0.557
17004WAT     H251255   2.366   1.542   0.520
17005WAT      O51256   3.330   5.863   2.109
17005WAT     H151257   3.291   5.839   2.198
17005WAT     H251258   3.265   5.919   2.058
17006WAT      O51259   7.901   7.005   0.041
17006WAT     H151260   7.976   6.983  -0.022
17006WAT     H251261   7.903   6.942   0.118
17007WAT      O51262   9.667   9.293   1.221
17007WAT     H151263   9.624   9.357   1.157
17007WAT     H251264   9.601   9.222   1.245
17008WAT      O51265   5.882   7.675   5.725
17008WAT     H151266   5.823   7.755   5.711
17008WAT     H251267   5.835   7.593   5.690
17009WAT      O51268   2.614   1.607   8.178
17009WAT     H151269   2.640   1.608   8.082
17009WAT     H251270   2.566   1.692   8.200
17010WAT      O51271   2.829   1.392   2.434
17010WAT     H151272   2.798   1.441   2.353
17010WAT     H251273   2.762   1.323   2.460
17011WAT      O51274   2.254   1.840   2.410
17011WAT     H151275   2.257   1.933   2.373
17011WAT     H251276   2.224   1.843   2.506
17012WAT      O51277   4.492   9.506   7.290
17012WAT     H151278   4.538   9.564   7.357
17012WAT     H251279   4.480   9.557   7.205
17013WAT      O51280   1.446   8.018   2.882
17013WAT     H151281   1.429   8.106   2.837
17013WAT     H251282   1.358   7.975   2.903
17014WAT      O51283   8.110   3.531   5.310
17014WAT     H151284   8.041   3.601   5.291
17014WAT     H251285   8.065   3.449   5.345
17015WAT      O51286   8.293   0.556   2.400
17015WAT     H151287   8.343   0.473   2.425
17015WAT     H251288   8.294   0.567   2.300
17016WAT      O51289   0.488   5.196   2.204
17016WAT     H151290   0.433   5.230   2.280
17016WAT     H251291   0.439   5.122   2.158
17017WAT      O51292   4.110   1.402   0.946
17017WAT     H151293   4.062   1.356   0.871
17017WAT     H251294   4.093   1.353   1.032
17018WAT      O51295   4.787   9.049   9.531
17018WAT     H151296   4.739   8.961   9.533
17018WAT     H251297   4.881   9.037   9.564
17019WAT      O51298   8.191   6.077   0.571
17019WAT     H151299   8.117   6.093   0.637
17019WAT     H251300   8.179   6.137   0.493
17020WAT      O51301   1.798   7.657   6.181
17020WAT     H151302   1.719   7.676   6.240
17020WAT     H251303   1.858   7.737   6.178
17021WAT      O51304   8.934   9.632   8.973
17021WAT     H151305   8.924   9.533   8.965
17021WAT     H251306   8.982   9.668   8.893
17022WAT      O51307   8.668   6.168   4.604
17022WAT     H151308   8.610   6.207   4.675
17022WAT     H251309   8.761   6.204   4.613
17023WAT      O51310   0.957   9.354   2.413
17023WAT     H151311   0.941   9.363   2.511
17023WAT     H251312   1.001   9.266   2.395
17024WAT      O51313   8.494   2.448   1.277
17024WAT     H151314   8.463   2.509   1.349
17024WAT     H251315   8.423   2.437   1.208
17025WAT      O51316   2.576   6.108   0.212
17025WAT     H151317   2.520   6.030   0.240
17025WAT     H251318   2.618   6.089   0.124
17026WAT      O51319   2.913   8.447   4.506
17026WAT     H151320   2.991   8.503   4.479
17026WAT     H251321   2.833   8.471   4.451
17027WAT      O51322   9.753   9.141   8.142
17027WAT     H151323   9.732   9.047   8.118
17027WAT     H251324   9.842   9.145   8.189
17028WAT      O51325   9.411   9.086   4.357
17028WAT     H151326   9.445   9.012   4.299
17028WAT     H251327   9.311   9.087   4.355
17029WAT      O51328   9.252   9.533   0.567
17029WAT     H151329   9.185   9.607   0.568
17029WAT     H251330   9.204   9.445   0.569
17030WAT      O51331   1.702   3.953   8.023
17030WAT     H151332   1.740   3.966   8.115
17030WAT     H251333   1.770   3.980   7.955
17031WAT      O51334   8.265   6.582   4.807
17031WAT     H151335   8.301   6.572   4.714
17031WAT     H251336   8.302   6.665   4.848
17032WAT      O51337   6.838   6.240   6.277
17032WAT     H151338   6.934   6.241   6.307
17032WAT     H251339   6.801   6.333   6.283
17033WAT      O51340   4.776   3.545   5.879
17033WAT     H151341   4.842   3.470   5.882
17033WAT     H251342   4.696   3.518   5.825
17034WAT      O51343   6.205   4.681   0.555
17034WAT     H151344   6.236   4.746   0.624
17034WAT     H251345   6.247   4.703   0.467
17035WAT      O51346   1.992   6.458   6.172
17035WAT     H151347   1.947   6.429   6.257
17035WAT     H251348   2.076   6.506   6.194
17036WAT      O51349   8.792   5.198   4.038
17036WAT     H151350   8.830   5.106   4.041
17036WAT     H251351   8.704   5.196   3.990
17037WAT      O51352   9.770   0.483   8.522
17037WAT     H151353   9.865   0.516   8.529
17037WAT     H251354   9.757   0.439   8.433
17038WAT      O51355   7.957   4.837   2.954
17038WAT     H151356   7.890   4.909   2.974
17038WAT     H251357   7.958   4.771   3.029
17039WAT      O51358   7.944   3.755   0.522
17039WAT     H151359   7.892   3.672   0.503
17039WAT     H251360   7.883   3.834   0.520
17040WAT      O51361   2.702   3.622   6.167
17040WAT     H151362   2.794   3.584   6.170
17040WAT     H251363   2.653   3.597   6.251
17041WAT      O51364   9.728   5.119   5.745
17041WAT     H151365   9.683   5.030   5.734
17041WAT     H251366   9.784   5.138   5.664
17042WAT      O51367   1.411   1.359   8.299
17042WAT     H151368   1.490   1.325   8.349
17042WAT     H251369   1.404   1.458   8.309
17043WAT      O51370   5.658   8.887   3.120
17043WAT     H151371   5.587   8.897   3.051
17043WAT     H251372   5.687   8.791   3.124
17044WAT      O51373   0.079   5.767   8.292
17044WAT     H151374   0.132   5.837   8.244
17044WAT     H251375   0.067   5.793   8.387
17045WAT      O51376   3.482   9.527   3.414
17045WAT     H151377   3.442   9.435   3.409
17045WAT     H251378   3.507   9.557   3.322
17046WAT      O51379   3.037   2.282   7.108
17046WAT     H151380   3.065   2.299   7.202
17046WAT     H251381   3.113   2.305   7.047
17047WAT      O51382   7.680   4.801   0.574
17047WAT     H151383   7.657   4.726   0.636
17047WAT     H251384   7.612   4.873   0.582
17048WAT      O51385   3.033   4.848   4.318
17048WAT     H151386   3.053   4.792   4.238
17048WAT     H251387   3.082   4.934   4.312
17049WAT      O51388   4.367   1.298   9.316
17049WAT     H151389   4.273   1.283   9.345
17049WAT     H251390   4.371   1.297   9.216
17050WAT      O51391   4.891   6.741   6.880
17050WAT     H151392   4.976   6.793   6.869
17050WAT     H251393   4.891   6.697   6.969
17051WAT      O51394   1.331   0.737   0.518
17051WAT     H151395   1.413   0.691   0.485
17051WAT     H251396   1.290   0.788   0.442
17052WAT      O51397   9.437   6.284   8.127
17052WAT     H151398   9.522   6.263   8.079
17052WAT     H251399   9.454   6.289   8.225
17053WAT      O51400   6.368   5.042   3.436
17053WAT     H151401   6.326   5.132   3.438
17053WAT     H251402   6.362   5.000   3.527
17054WAT      O51403   3.397   1.554   0.613
17054WAT     H151404   3.489   1.534   0.579
17054WAT     H251405   3.341   1.591   0.539
17055WAT      O51406   6.033   9.514   1.576
17055WAT     H151407   6.118   9.474   1.541
17055WAT     H251408   6.052   9.560   1.663
17056WAT      O51409   1.189   9.506   4.116
17056WAT     H151410   1.195   9.599   4.153
17056WAT     H251411   1.280   9.465   4.115
17057WAT      O51412   9.521   3.514   1.768
17057WAT     H151413   9.603   3.540   1.718
17057WAT     H251414   9.510   3.414   1.764
17058WAT      O51415   0.466   9.679   2.779
17058WAT     H151416   0.518   9.678   2.694
17058WAT     H251417   0.406   9.759   2.780
17059WAT      O51418   0.645   3.489   1.942
17059WAT     H151419   0.560   3.441   1.964
17059WAT     H251420   0.648   3.507   1.843
17060WAT      O51421   1.824   7.487   2.275
17060WAT     H151422   1.891   7.470   2.203
17060WAT     H251423   1.810   7.586   2.285
17061WAT      O51424   9.579   1.712   1.381
17061WAT     H151425   9.653   1.721   1.314
17061WAT     H251426   9.491   1.716   1.334
17062WAT      O51427   3.290   7.896   6.892
17062WAT     H151428   3.282   7.826   6.821
17062WAT     H251429   3.215   7.885   6.957
17063WAT      O51430   4.609   4.433   2.701
17063WAT     H151431   4.681   4.475   2.645
17063WAT     H251432   4.612   4.333   2.691
17064WAT      O51433   2.765   3.833   5.045
17064WAT     H151434   2.673   3.858   5.017
17064WAT     H251435   2.817   3.802   4.965
17065WAT      O51436   8.567   0.488   7.765
17065WAT     H151437   8.581   0.441   7.678
17065WAT     H251438   8.651   0.482   7.820
17066WAT      O51439   9.094   5.024   6.094
17066WAT     H151440   9.024   4.960   6.126
17066WAT     H251441   9.117   5.088   6.167
17067WAT      O51442   9.768   2.235   5.721
17067WAT     H151443   9.801   2.147   5.755
17067WAT     H251444   9.685   2.220   5.667
17068WAT      O51445   3.206   6.414   0.925
17068WAT     H151446   3.275   6.406   0.997
17068WAT     H251447   3.118   6.435   0.966
17069WAT      O51448   2.012   7.907   3.892
17069WAT     H151449   2.107   7.926   3.868
17069WAT     H251450   1.966   7.865   3.814
17070WAT      O51451   7.762   7.853   0.367
17070WAT     H151452   7.684   7.902   0.405
17070WAT     H251453   7.812   7.808   0.441
17071WAT      O51454   5.489   2.876   3.826
17071WAT     H151455   5.522   2.967   3.849
17071WAT     H251456   5.389   2.878   3.817
17072WAT      O51457   1.571   6.177   5.547
17072WAT     H151458   1.532   6.264   5.578
17072WAT     H251459   1.657   6.194   5.499
17073WAT      O51460   3.690   1.923   4.989
17073WAT     H151461   3.746   1.915   4.906
17073WAT     H251462   3.749   1.926   5.069
17074WAT      O51463   9.628   8.178   7.726
17074WAT     H151464   9.564   8.193   7.801
17074WAT     H251465   9.684   8.260   7.713
17075WAT      O51466   1.642   6.444   0.803
17075WAT     H151467   1.615   6.383   0.728
17075WAT     H251468   1.618   6.538   0.780
17076WAT      O51469   7.507   7.569   1.164
17076WAT     H151470   7.444   7.584   1.088
17076WAT     H251471   7.591   7.528   1.131
17077WAT      O51472   1.622   1.948   9.702
17077WAT     H151473   1.607   1.876   9.634
17077WAT     H251474   1.718   1.976   9.700
17078WAT      O51475   0.676   0.341   6.448
17078WAT     H151476   0.751   0.397   6.483
17078WAT     H251477   0.603   0.401   6.414
17079WAT      O51478   9.537   0.841   3.469
17079WAT     H151479   9.469   0.777   3.435
17079WAT     H251480   9.581   0.887   3.392
17080WAT      O51481   1.092   1.459   2.664
17080WAT     H151482   1.017   1.416   2.614
17080WAT     H251483   1.180   1.433   2.624
17081WAT      O51484   0.084   3.948   1.786
17081WAT     H151485   0.155   4.012   1.759
17081WAT     H251486   0.024   3.929   1.707
17082WAT      O51487   2.565   0.803   5.049
17082WAT     H151488   2.550   0.802   4.950
17082WAT     H251489   2.541   0.715   5.088
17083WAT      O51490   7.499   7.408   6.963
17083WAT     H151491   7.404   7.379   6.975
17083WAT     H251492   7.543   7.353   6.892
17084WAT      O51493   1.149   9.789   6.703
17084WAT     H151494   1.103   9.762   6.787
17084WAT     H251495   1.187   9.881   6.714
17085WAT      O51496   4.512   2.332   4.704
17085WAT     H151497   4.478   2.416   4.662
17085WAT     H251498   4.543   2.269   4.633
17086WAT      O51499   1.260   2.138   9.021
17086WAT     H151500   1.187   2.178   8.966
17086WAT     H251501   1.244   2.158   9.118
17087WAT      O51502   5.624   8.539   6.233
17087WAT     H151503   5.617   8.608   6.160
17087WAT     H251504   5.598   8.580   6.320
17088WAT      O51505   8.152   9.389   9.402
17088WAT     H151506   8.142   9.301   9.355
17088WAT     H251507   8.065   9.416   9.442
17089WAT      O51508   0.124   8.995   0.009
17089WAT     H151509   0.208   8.942  -0.005
17089WAT     H251510   0.089   8.977   0.100
17090WAT      O51511   9.846   2.422   1.997
17090WAT     H151512   9.914   2.484   1.958
17090WAT     H251513   9.757   2.467   2.000
17091WAT      O51514   3.338   3.823   5.425
17091WAT     H151515   3.360   3.745   5.484
17091WAT     H251516   3.409   3.893   5.434
17092WAT      O51517   0.187   0.889   6.612
17092WAT     H151518   0.258   0.881   6.543
17092WAT     H251519   0.224   0.936   6.693
17093WAT      O51520   1.583   2.688   6.232
17093WAT     H151521   1.663   2.638   6.266
17093WAT     H251522   1.537   2.733   6.309
17094WAT      O51523   9.882   2.249   0.498
17094WAT     H151524   9.966   2.302   0.486
17094WAT     H251525   9.847   2.221   0.409
17095WAT      O51526   0.802   2.578   7.522
17095WAT     H151527   0.801   2.581   7.422
17095WAT     H251528   0.882   2.628   7.555
17096WAT      O51529   2.844   6.422   6.148
17096WAT     H151530   2.892   6.508   6.131
17096WAT     H251531   2.905   6.359   6.197
17097WAT      O51532   5.463   3.994   3.234
17097WAT     H151533   5.557   3.962   3.238
17097WAT     H251534   5.402   3.923   3.269
17098WAT      O51535   0.367   0.906   8.396
17098WAT     H151536   0.362   0.879   8.493
17098WAT     H251537   0.289   0.966   8.375
17099WAT      O51538   7.728   5.269   8.690
17099WAT     H151539   7.754   5.365   8.673
17099WAT     H251540   7.811   5.214   8.700
17100WAT      O51541   8.422   3.115   5.595
17100WAT     H151542   8.385   3.022   5.590
17100WAT     H251543   8.499   3.117   5.658
17101WAT      O51544   4.584   9.690   5.428
17101WAT     H151545   4.677   9.701   5.464
17101WAT     H251546   4.586   9.691   5.328
17102WAT      O51547   5.259   2.675   7.527
17102WAT     H151548   5.336   2.614   7.510
17102WAT     H251549   5.210   2.691   7.442
17103WAT      O51550   2.329   9.784   5.390
17103WAT     H151551   2.389   9.852   5.346
17103WAT     H251552   2.234   9.811   5.378
17104WAT      O51553   0.669   3.683   3.229
17104WAT     H151554   0.647   3.675   3.326
17104WAT     H251555   0.756   3.731   3.218
17105WAT      O51556   0.886   1.360   1.594
17105WAT     H151557   0.894   1.302   1.676
17105WAT     H251558   0.954   1.331   1.527
17106WAT      O51559   4.471   5.807   0.669
17106WAT     H151560   4.393   5.744   0.661
17106WAT     H251561   4.452   5.875   0.739
17107WAT      O51562   6.740   7.506   0.582
17107WAT     H151563   6.773   7.474   0.670
17107WAT     H251564   6.735   7.606   0.583
17108WAT      O51565   3.196   1.282   0.926
17108WAT     H151566   3.120   1.334   0.889
17108WAT     H251567   3.168   1.237   1.010
17109WAT      O51568   2.529   2.790   3.460
17109WAT     H151569   2.615   2.797   3.510
17109WAT     H251570   2.478   2.875   3.470
17110WAT      O51571   1.451   6.661   3.017
17110WAT     H151572   1.457   6.598   3.095
17110WAT     H251573   1.543   6.684   2.986
17111WAT      O51574   7.173   7.160   5.275
17111WAT     H151575   7.185   7.254   5.305
17111WAT     H251576   7.084   7.126   5.306
17112WAT      O51577   1.426   7.137   3.349
17112WAT     H151578   1.423   7.127   3.249
17112WAT     H251579   1.407   7.048   3.391
17113WAT      O51580   4.062   7.293   6.879
17113WAT     H151581   3.997   7.281   6.955
17113WAT     H251582   4.067   7.209   6.826
17114WAT      O51583   6.591   8.241   9.673
17114WAT     H151584   6.635   8.178   9.608
17114WAT     H251585   6.494   8.248   9.650
17115WAT      O51586   5.653   5.507   8.406
17115WAT     H151587   5.640   5.436   8.337
17115WAT     H251588   5.568   5.521   8.456
17116WAT      O51589   3.057   8.179   9.717
17116WAT     H151590   3.011   8.091   9.710
17116WAT     H251591   3.154   8.168   9.696
17117WAT      O51592   3.281   3.724   8.347
17117WAT     H151593   3.232   3.759   8.267
17117WAT     H251594   3.345   3.794   8.380
17118WAT      O51595   5.592   6.461   9.709
17118WAT     H151596   5.622   6.549   9.671
17118WAT     H251597   5.642   6.442   9.793
17119WAT      O51598   3.025   1.912   3.222
17119WAT     H151599   3.015   2.011   3.212
17119WAT     H251600   2.992   1.884   3.313
17120WAT      O51601   6.733   7.324   3.382
17120WAT     H151602   6.677   7.406   3.397
17120WAT     H251603   6.759   7.318   3.286
17121WAT      O51604   5.889   3.124   3.545
17121WAT     H151605   5.930   3.199   3.493
17121WAT     H251606   5.842   3.061   3.483
17122WAT      O51607   5.675   8.391   9.206
17122WAT     H151608   5.690   8.476   9.256
17122WAT     H251609   5.636   8.413   9.116
17123WAT      O51610   5.704   4.982   6.490
17123WAT     H151611   5.723   4.983   6.588
17123WAT     H251612   5.632   5.047   6.469
17124WAT      O51613   6.143   4.530   9.472
17124WAT     H151614   6.046   4.512   9.487
17124WAT     H251615   6.189   4.539   9.560
17125WAT      O51616   3.789   2.596   1.364
17125WAT     H151617   3.770   2.694   1.358
17125WAT     H251618   3.798   2.558   1.271
17126WAT      O51619   4.500   9.097   7.018
17126WAT     H151620   4.423   9.074   6.959
17126WAT     H251621   4.586   9.076   6.971
17127WAT      O51622   8.689   8.641   2.467
17127WAT     H151623   8.752   8.660   2.391
17127WAT     H251624   8.704   8.707   2.540
17128WAT      O51625   2.520   0.219   1.893
17128WAT     H151626   2.574   0.169   1.961
17128WAT     H251627   2.494   0.308   1.929
17129WAT      O51628   5.318   8.324   6.431
17129WAT     H151629   5.330   8.373   6.345
17129WAT     H251630   5.221   8.306   6.446
17130WAT      O51631   5.911   8.542   9.826
17130WAT     H151632   5.974   8.466   9.843
17130WAT     H251633   5.957   8.611   9.770
17131WAT      O51634   9.515   2.170   8.355
17131WAT     H151635   9.451   2.174   8.432
17131WAT     H251636   9.478   2.223   8.278
17132WAT      O51637   6.038   1.548   6.307
17132WAT     H151638   6.077   1.606   6.236
17132WAT     H251639   6.048   1.452   6.282
17133WAT      O51640   0.692   9.601   1.637
17133WAT     H151641   0.643   9.514   1.648
17133WAT     H251642   0.698   9.622   1.539
17134WAT      O51643   6.354   6.721   1.491
17134WAT     H151644   6.345   6.740   1.393
17134WAT     H251645   6.301   6.639   1.514
17135WAT      O51646   5.585   5.556   1.822
17135WAT     H151647   5.537   5.594   1.743
17135WAT     H251648   5.643   5.627   1.863
17136WAT      O51649   6.675   5.691   1.893
17136WAT     H151650   6.657   5.651   1.802
17136WAT     H251651   6.773   5.693   1.909
17137WAT      O51652   0.423   2.895   4.076
17137WAT     H151653   0.459   2.841   4.000
17137WAT     H251654   0.486   2.891   4.153
17138WAT      O51655   3.838   6.484   7.569
17138WAT     H151656   3.774   6.468   7.645
17138WAT     H251657   3.787   6.511   7.488
17139WAT      O51658   2.630   8.810   6.578
17139WAT     H151659   2.632   8.845   6.485
17139WAT     H251660   2.609   8.712   6.576
17140WAT      O51661   8.698   2.606   3.588
17140WAT     H151662   8.651   2.683   3.545
17140WAT     H251663   8.691   2.525   3.529
17141WAT      O51664   4.070   1.424   3.846
17141WAT     H151665   4.109   1.398   3.934
17141WAT     H251666   4.001   1.495   3.860
17142WAT      O51667   5.671   1.479   1.411
17142WAT     H151668   5.688   1.515   1.502
17142WAT     H251669   5.754   1.485   1.356
17143WAT      O51670   6.308   4.575   8.909
17143WAT     H151671   6.344   4.666   8.928
17143WAT     H251672   6.294   4.526   8.995
17144WAT      O51673   3.085   5.793   0.937
17144WAT     H151674   3.041   5.768   0.850
17144WAT     H251675   3.168   5.845   0.918
17145WAT      O51676   5.505   7.754   1.463
17145WAT     H151677   5.516   7.808   1.547
17145WAT     H251678   5.468   7.664   1.487
17146WAT      O51679   4.765   7.130   0.143
17146WAT     H151680   4.712   7.138   0.059
17146WAT     H251681   4.736   7.047   0.193
17147WAT      O51682   3.294   7.270   6.318
17147WAT     H151683   3.378   7.221   6.342
17147WAT     H251684   3.301   7.303   6.224
17148WAT      O51685   4.191   9.034   5.727
17148WAT     H151686   4.175   9.132   5.715
17148WAT     H251687   4.202   8.992   5.637
17149WAT      O51688   0.795   9.510   9.073
17149WAT     H151689   0.719   9.518   9.009
17149WAT     H251690   0.763   9.526   9.166
17150WAT      O51691   4.419   8.577   5.395
17150WAT     H151692   4.325   8.545   5.410
17150WAT     H251693   4.468   8.510   5.339
17151WAT      O51694   8.535   3.929   9.150
17151WAT     H151695   8.459   3.960   9.207
17151WAT     H251696   8.510   3.939   9.054
17152WAT      O51697   6.349   2.188   9.871
17152WAT     H151698   6.406   2.258   9.826
17152WAT     H251699   6.314   2.125   9.801
17153WAT      O51700   7.281   5.639   2.738
17153WAT     H151701   7.238   5.549   2.748
17153WAT     H251702   7.331   5.662   2.821
17154WAT      O51703   1.464   8.697   1.176
17154WAT     H151704   1.406   8.752   1.116
17154WAT     H251705   1.414   8.616   1.205
17155WAT      O51706   4.899   0.352   4.242
17155WAT     H151707   4.995   0.330   4.258
17155WAT     H251708   4.874   0.326   4.148
17156WAT      O51709   4.500   9.003   3.358
17156WAT     H151710   4.417   9.042   3.398
17156WAT     H251711   4.490   8.904   3.350
17157WAT      O51712   0.277   3.281   5.353
17157WAT     H151713   0.362   3.332   5.341
17157WAT     H251714   0.254   3.233   5.268
17158WAT      O51715   7.581   3.953   5.854
17158WAT     H151716   7.675   3.923   5.837
17158WAT     H251717   7.518   3.878   5.833
17159WAT      O51718   2.814   9.090   4.990
17159WAT     H151719   2.788   9.082   5.086
17159WAT     H251720   2.772   9.173   4.951
17160WAT      O51721   1.270   3.919   3.374
17160WAT     H151722   1.331   3.960   3.306
17160WAT     H251723   1.315   3.917   3.463
17161WAT      O51724   7.606   1.741   6.064
17161WAT     H151725   7.539   1.810   6.034
17161WAT     H251726   7.649   1.701   5.984
17162WAT      O51727   6.028   9.641   1.829
17162WAT     H151728   6.093   9.703   1.872
17162WAT     H251729   5.954   9.620   1.893
17163WAT      O51730   9.876   9.399   9.686
17163WAT     H151731   9.844   9.326   9.625
17163WAT     H251732   9.951   9.364   9.743
17164WAT      O51733   6.774   8.227   0.292
17164WAT     H151734   6.839   8.303   0.284
17164WAT     H251735   6.733   8.209   0.202
17165WAT      O51736   7.724   9.048   5.524
17165WAT     H151737   7.631   9.021   5.500
17165WAT     H251738   7.748   9.010   5.613
17166WAT      O51739   1.488   0.780   4.221
17166WAT     H151740   1.525   0.845   4.287
17166WAT     H251741   1.417   0.725   4.265
17167WAT      O51742   0.514   2.343   4.629
17167WAT     H151743   0.599   2.317   4.676
17167WAT     H251744   0.456   2.395   4.692
17168WAT      O51745   2.230   0.437   8.017
17168WAT     H151746   2.273   0.491   8.089
17168WAT     H251747   2.179   0.497   7.956
17169WAT      O51748   9.667   3.658   6.992
17169WAT     H151749   9.666   3.756   7.008
17169WAT     H251750   9.608   3.637   6.913
17170WAT      O51751   3.762   4.738   1.111
17170WAT     H151752   3.853   4.698   1.117
17170WAT     H251753   3.744   4.794   1.192
17171WAT      O51754   7.416   1.567   4.082
17171WAT     H151755   7.481   1.548   4.008
17171WAT     H251756   7.334   1.609   4.043
17172WAT      O51757   2.716   1.791   6.841
17172WAT     H151758   2.725   1.781   6.940
17172WAT     H251759   2.641   1.854   6.821
17173WAT      O51760   0.602   1.889   4.539
17173WAT     H151761   0.633   1.795   4.543
17173WAT     H251762   0.511   1.893   4.496
17174WAT      O51763   5.547   0.059   9.674
17174WAT     H151764   5.570   0.029   9.767
17174WAT     H251765   5.593  -0.000   9.608
17175WAT      O51766   9.238   7.706   7.861
17175WAT     H151767   9.233   7.610   7.833
17175WAT     H251768   9.305   7.715   7.935
17176WAT      O51769   5.482   5.922   7.801
17176WAT     H151770   5.435   5.902   7.716
17176WAT     H251771   5.463   6.017   7.828
17177WAT      O51772   8.174   7.681   6.850
17177WAT     H151773   8.191   7.778   6.838
17177WAT     H251774   8.100   7.651   6.790
17178WAT      O51775   2.558   7.565   2.159
17178WAT     H151776   2.524   7.531   2.072
17178WAT     H251777   2.513   7.651   2.181
17179WAT      O51778   1.689   2.407   5.671
17179WAT     H151779   1.601   2.370   5.701
17179WAT     H251780   1.725   2.467   5.742
17180WAT      O51781   9.572   0.030   4.594
17180WAT     H151782   9.561  -0.051   4.537
17180WAT     H251783   9.493   0.038   4.655
17181WAT      O51784   4.139   6.527   8.549
17181WAT     H151785   4.083   6.446   8.568
17181WAT     H251786   4.109   6.569   8.463
17182WAT      O51787   5.877   3.977   9.333
17182WAT     H151788   5.961   3.943   9.376
17182WAT     H251789   5.899   4.019   9.246
17183WAT      O51790   9.570   7.346   5.406
17183WAT     H151791   9.664   7.327   5.432
17183WAT     H251792   9.540   7.279   5.338
17184WAT      O51793   8.993   1.433   9.820
17184WAT     H151794   9.058   1.449   9.746
17184WAT     H251795   9.023   1.482   9.902
17185WAT      O51796   7.710   4.586   9.277
17185WAT     H151797   7.786   4.532   9.314
17185WAT     H251798   7.634   4.526   9.254
17186WAT      O51799   1.960   3.138   4.498
17186WAT     H151800   1.872   3.128   4.452
17186WAT     H251801   2.019   3.060   4.477
17187WAT      O51802   2.048   1.773   2.266
17187WAT     H151803   2.005   1.856   2.230
17187WAT     H251804   2.129   1.797   2.319
17188WAT      O51805   5.513   2.054   3.827
17188WAT     H151806   5.524   1.980   3.893
17188WAT     H251807   5.439   2.114   3.857
17189WAT      O51808   8.547   2.543   5.232
17189WAT     H151809   8.599   2.486   5.169
17189WAT     H251810   8.505   2.619   5.181
17190WAT      O51811   9.826   0.611   1.861
17190WAT     H151812   9.754   0.565   1.914
17190WAT     H251813   9.884   0.664   1.923
17191WAT      O51814   9.064   8.597   2.559
17191WAT     H151815   9.060   8.588   2.459
17191WAT     H251816   9.141   8.543   2.594
17192WAT      O51817   2.824   1.476   7.387
17192WAT     H151818   2.850   1.379   7.390
17192WAT     H251819   2.846   1.513   7.296
17193WAT      O51820   5.737   4.736   1.164
17193WAT     H151821   5.805   4.804   1.135
17193WAT     H251822   5.753   4.712   1.260
17194WAT      O51823   9.890   2.642   4.041
17194WAT     H151824   9.835   2.692   3.974
17194WAT     H251825   9.831   2.603   4.111
17195WAT      O51826   2.685   0.454   3.053
17195WAT     H151827   2.673   0.534   3.113
17195WAT     H251828   2.692   0.485   2.958
17196WAT      O51829   1.149   2.105   5.501
17196WAT     H151830   1.065   2.087   5.553
17196WAT     H251831   1.225   2.117   5.564
17197WAT      O51832   0.025   3.730   2.809
17197WAT     H151833  -0.050   3.791   2.833
17197WAT     H251834  -0.011   3.641   2.783
17198WAT      O51835   2.445   1.082   1.686
17198WAT     H151836   2.364   1.140   1.681
17198WAT     H251837   2.495   1.087   1.600
17199WAT      O51838   8.069   7.187   5.169
17199WAT     H151839   8.064   7.282   5.137
17199WAT     H251840   8.109   7.185   5.261
17200WAT      O51841   6.778   6.343   6.736
17200WAT     H151842   6.817   6.435   6.735
17200WAT     H251843   6.788   6.304   6.827
17201WAT      O51844   6.032   6.699   0.216
17201WAT     H151845   5.942   6.740   0.230
17201WAT     H251846   6.103   6.766   0.236
17202WAT      O51847   5.757   4.579   5.190
17202WAT     H151848   5.660   4.554   5.199
17202WAT     H251849   5.765   4.663   5.137
17203WAT      O51850   8.800   3.347   3.959
17203WAT     H151851   8.757   3.354   4.049
17203WAT     H251852   8.730   3.339   3.888
17204WAT      O51853   7.177   5.469   4.860
17204WAT     H151854   7.091   5.507   4.827
17204WAT     H251855   7.218   5.532   4.926
17205WAT      O51856   8.034   9.438   1.517
17205WAT     H151857   8.018   9.493   1.436
17205WAT     H251858   7.998   9.486   1.598
17206WAT      O51859   9.310   2.129   4.441
17206WAT     H151860   9.354   2.106   4.528
17206WAT     H251861   9.210   2.123   4.452
17207WAT      O51862   1.745   3.429   7.214
17207WAT     H151863   1.761   3.332   7.235
17207WAT     H251864   1.678   3.436   7.140
17208WAT      O51865   4.788   2.378   2.136
17208WAT     H151866   4.713   2.423   2.183
17208WAT     H251867   4.770   2.280   2.130
17209WAT      O51868   2.812   4.206   4.569
17209WAT     H151869   2.871   4.257   4.507
17209WAT     H251870   2.727   4.258   4.584
17210WAT      O51871   6.492   5.074   9.867
17210WAT     H151872   6.505   5.099   9.771
17210WAT     H251873   6.449   5.151   9.915
17211WAT      O51874   5.338   4.423   3.047
17211WAT     H151875   5.362   4.326   3.048
17211WAT     H251876   5.270   4.440   2.976
17212WAT      O51877   2.535   5.517   5.754
17212WAT     H151878   2.633   5.502   5.763
17212WAT     H251879   2.490   5.501   5.842
17213WAT      O51880   2.714   1.182   6.724
17213WAT     H151881   2.736   1.242   6.801
17213WAT     H251882   2.628   1.211   6.683
17214WAT      O51883   5.760   3.020   5.373
17214WAT     H151884   5.806   3.050   5.289
17214WAT     H251885   5.668   2.987   5.351
17215WAT      O51886   7.403   2.298   0.405
17215WAT     H151887   7.493   2.339   0.419
17215WAT     H251888   7.411   2.199   0.407
17216WAT      O51889   6.400   9.284   5.556
17216WAT     H151890   6.399   9.193   5.597
17216WAT     H251891   6.442   9.279   5.465
17217WAT      O51892   2.200   0.586   3.887
17217WAT     H151893   2.179   0.495   3.851
17217WAT     H251894   2.202   0.652   3.812
17218WAT      O51895   1.847   2.013   4.626
17218WAT     H151896   1.759   1.985   4.587
17218WAT     H251897   1.869   2.105   4.595
17219WAT      O51898   3.262   0.739   1.864
17219WAT     H151899   3.167   0.755   1.889
17219WAT     H251900   3.320   0.752   1.945
17220WAT      O51901   6.422   1.026   7.597
17220WAT     H151902   6.423   1.120   7.563
17220WAT     H251903   6.329   1.002   7.626
17221WAT      O51904   3.793   5.964   5.134
17221WAT     H151905   3.863   6.027   5.167
17221WAT     H251906   3.797   5.958   5.034
17222WAT      O51907   9.105   8.116   5.767
17222WAT     H151908   9.125   8.022   5.792
17222WAT     H251909   9.187   8.159   5.730
17223WAT      O51910   1.926   9.593   5.643
17223WAT     H151911   1.948   9.639   5.557
17223WAT     H251912   1.867   9.514   5.624
17224WAT      O51913   5.879   6.913   9.568
17224WAT     H151914   5.838   7.004   9.570
17224WAT     H251915   5.961   6.914   9.510
17225WAT      O51916   8.946   3.762   4.610
17225WAT     H151917   8.871   3.828   4.607
17225WAT     H251918   9.033   3.811   4.603
17226WAT      O51919   0.351   0.920   1.563
17226WAT     H151920   0.261   0.894   1.528
17226WAT     H251921   0.394   0.986   1.500
17227WAT      O51922   1.032   3.157   1.666
17227WAT     H151923   1.064   3.079   1.720
17227WAT     H251924   0.946   3.190   1.705
17228WAT      O51925   5.289   2.789   6.969
17228WAT     H151926   5.360   2.720   6.952
17228WAT     H251927   5.301   2.828   7.060
17229WAT      O51928   3.560   8.306   5.728
17229WAT     H151929   3.639   8.279   5.673
17229WAT     H251930   3.591   8.345   5.815
17230WAT      O51931   8.463   8.896   5.184
17230WAT     H151932   8.441   8.800   5.166
17230WAT     H251933   8.445   8.917   5.280
17231WAT      O51934   2.634   1.236   3.727
17231WAT     H151935   2.646   1.303   3.801
17231WAT     H251936   2.669   1.147   3.756
17232WAT      O51937   2.113   6.157   8.690
17232WAT     H151938   2.110   6.185   8.786
17232WAT     H251939   2.170   6.075   8.681
17233WAT      O51940   8.740   9.313   0.718
17233WAT     H151941   8.740   9.346   0.812
17233WAT     H251942   8.688   9.377   0.660
17234WAT      O51943   6.115   0.240   1.863
17234WAT     H151944   6.075   0.162   1.815
17234WAT     H251945   6.057   0.320   1.852
17235WAT      O51946   5.403   2.985   5.562
17235WAT     H151947   5.492   3.000   5.604
17235WAT     H251948   5.413   2.927   5.480
17236WAT      O51949   0.137   3.651   0.952
17236WAT     H151950   0.124   3.568   0.898
17236WAT     H251951   0.178   3.722   0.894
17237WAT      O51952   6.470   8.929   0.190
17237WAT     H151953   6.377   8.901   0.215
17237WAT     H251954   6.536   8.882   0.247
17238WAT      O51955   7.278   1.637   0.980
17238WAT     H151956   7.183   1.605   0.991
17238WAT     H251957   7.335   1.595   1.050
17239WAT      O51958   8.032   6.143   4.258
17239WAT     H151959   8.066   6.177   4.346
17239WAT     H251960   7.990   6.218   4.207
17240WAT      O51961   8.890   3.014   7.986
17240WAT     H151962   8.849   2.936   8.034
17240WAT     H251963   8.838   3.096   8.005
17241WAT      O51964   8.828   8.558   8.244
17241WAT     H151965   8.821   8.654   8.270
17241WAT     H251966   8.740   8.527   8.207
17242WAT      O51967   1.963   1.489   4.418
17242WAT     H151968   1.959   1.389   4.422
17242WAT     H251969   1.896   1.527   4.482
17243WAT      O51970   5.157   5.388   4.188
17243WAT     H151971   5.103   5.472   4.182
17243WAT     H251972   5.220   5.383   4.111
17244WAT      O51973   0.752   4.910   3.832
17244WAT     H151974   0.783   4.902   3.738
17244WAT     H251975   0.817   4.966   3.884
17245WAT      O51976   0.833   0.455   6.690
17245WAT     H151977   0.777   0.372   6.690
17245WAT     H251978   0.928   0.431   6.711
17246WAT      O51979   2.458   6.216   1.893
17246WAT     H151980   2.438   6.199   1.990
17246WAT     H251981   2.470   6.128   1.846
17247WAT      O51982   2.146   5.247   2.571
17247WAT     H151983   2.115   5.340   2.548
17247WAT     H251984   2.210   5.252   2.647
17248WAT      O51985   9.354   9.420   7.151
17248WAT     H151986   9.284   9.358   7.114
17248WAT     H251987   9.334   9.439   7.247
17249WAT      O51988   6.711   7.802   2.266
17249WAT     H151989   6.650   7.783   2.190
17249WAT     H251990   6.771   7.879   2.243
17250WAT      O51991   9.541   8.489   3.836
17250WAT     H151992   9.633   8.517   3.863
17250WAT     H251993   9.535   8.389   3.839
17251WAT      O51994   9.141   4.313   9.237
17251WAT     H151995   9.158   4.389   9.174
17251WAT     H251996   9.222   4.298   9.293
17252WAT      O51997   1.988   3.259   6.245
17252WAT     H151998   1.902   3.291   6.285
17252WAT     H251999   1.981   3.258   6.145
17253WAT      O52000   4.361   9.554   5.778
17253WAT     H152001   4.407   9.606   5.705
17253WAT     H252002   4.287   9.500   5.738
17254WAT      O52003   5.381   2.707   2.806
17254WAT     H152004   5.390   2.615   2.768
17254WAT     H252005   5.449   2.721   2.877
17255WAT      O52006   3.812   1.394   2.447
17255WAT     H152007   3.909   1.389   2.469
17255WAT     H252008   3.767   1.309   2.474
17256WAT      O52009   5.205   4.571   5.719
17256WAT     H152010   5.211   4.639   5.646
17256WAT     H252011   5.164   4.487   5.684
17257WAT      O52012   3.119   1.417   2.360
17257WAT     H152013   3.037   1.384   2.407
17257WAT     H252014   3.109   1.514   2.339
17258WAT      O52015   5.337   1.203   8.158
17258WAT     H152016   5.409   1.135   8.141
17258WAT     H252017   5.248   1.160   8.146
17259WAT      O52018   6.509   6.677   1.901
17259WAT     H152019   6.441   6.749   1.917
17259WAT     H252020   6.598   6.719   1.883
17260WAT      O52021   0.079   8.223   7.437
17260WAT     H152022   0.055   8.307   7.390
17260WAT     H252023   0.173   8.228   7.471
17261WAT      O52024   2.386   7.481   4.848
17261WAT     H152025   2.457   7.418   4.879
17261WAT     H252026   2.299   7.459   4.894
17262WAT      O52027   2.248   1.585   8.206
17262WAT     H152028   2.233   1.529   8.125
17262WAT     H252029   2.283   1.528   8.281
17263WAT      O52030   5.273   2.435   3.000
17263WAT     H152031   5.282   2.496   3.079
17263WAT     H252032   5.317   2.348   3.020
17264WAT      O52033   1.255   5.888   5.968
17264WAT     H152034   1.263   5.853   5.875
17264WAT     H252035   1.250   5.811   6.032
17265WAT      O52036   7.889   7.387   9.032
17265WAT     H152037   7.837   7.356   9.111
17265WAT     H252038   7.936   7.310   8.990
17266WAT      O52039   8.952   9.729   2.711
17266WAT     H152040   8.941   9.655   2.645
17266WAT     H252041   9.050   9.745   2.726
17267WAT      O52042   9.063   5.978   9.030
17267WAT     H152043   9.006   6.036   9.088
17267WAT     H252044   9.118   5.917   9.087
17268WAT      O52045   9.598   7.845   4.990
17268WAT     H152046   9.653   7.918   4.949
17268WAT     H252047   9.504   7.853   4.959
17269WAT      O52048   2.510   3.789   5.787
17269WAT     H152049   2.466   3.740   5.862
17269WAT     H252050   2.596   3.743   5.763
17270WAT      O52051   9.143   2.136   9.187
17270WAT     H152052   9.212   2.106   9.253
17270WAT     H252053   9.083   2.203   9.229
17271WAT      O52054   3.884   4.124   6.526
17271WAT     H152055   3.800   4.111   6.473
17271WAT     H252056   3.879   4.070   6.610
17272WAT      O52057   7.978   9.499   9.163
17272WAT     H152058   8.011   9.431   9.229
17272WAT     H252059   7.878   9.500   9.164
17273WAT      O52060   2.665   0.843   9.288
17273WAT     H152061   2.617   0.768   9.334
17273WAT     H252062   2.721   0.893   9.355
17274WAT      O52063   7.485   4.497   6.383
17274WAT     H152064   7.406   4.556   6.401
17274WAT     H252065   7.476   4.413   6.437
17275WAT      O52066   4.213   2.902   6.728
17275WAT     H152067   4.161   2.965   6.670
17275WAT     H252068   4.310   2.927   6.727
17276WAT      O52069   6.334   3.058   5.608
17276WAT     H152070   6.409   3.050   5.542
17276WAT     H252071   6.247   3.064   5.559
17277WAT      O52072   5.673   3.103   9.239
17277WAT     H152073   5.638   3.031   9.179
17277WAT     H252074   5.702   3.062   9.326
17278WAT      O52075   1.099   3.164   0.785
17278WAT     H152076   1.138   3.191   0.873
17278WAT     H252077   1.126   3.070   0.764
17279WAT      O52078   7.768   7.130   1.499
17279WAT     H152079   7.831   7.058   1.470
17279WAT     H252080   7.752   7.192   1.422
17280WAT      O52081   0.192   8.163   8.953
17280WAT     H152082   0.199   8.089   9.020
17280WAT     H252083   0.119   8.142   8.888
17281WAT      O52084   3.766   4.411   1.366
17281WAT     H152085   3.756   4.412   1.266
17281WAT     H252086   3.858   4.440   1.390
17282WAT      O52087   8.432   7.056   0.809
17282WAT     H152088   8.509   6.999   0.836
17282WAT     H252089   8.466   7.139   0.765
17283WAT      O52090   2.180   4.669   3.462
17283WAT     H152091   2.200   4.632   3.552
17283WAT     H252092   2.200   4.600   3.392
17284WAT      O52093   5.148   6.716   0.741
17284WAT     H152094   5.239   6.690   0.710
17284WAT     H252095   5.153   6.800   0.794
17285WAT      O52096   5.518   9.198   9.723
17285WAT     H152097   5.597   9.156   9.769
17285WAT     H252098   5.511   9.160   9.631
17286WAT      O52099   9.841   4.224   1.788
17286WAT     H152100   9.910   4.220   1.716
17286WAT     H252101   9.804   4.132   1.804
17287WAT      O52102   8.626   3.196   1.390
17287WAT     H152103   8.628   3.285   1.434
17287WAT     H252104   8.711   3.181   1.341
17288WAT      O52105   0.262   4.637   9.297
17288WAT     H152106   0.274   4.589   9.211
17288WAT     H252107   0.348   4.680   9.324
17289WAT      O52108   7.524   2.710   8.159
17289WAT     H152109   7.497   2.675   8.069
17289WAT     H252110   7.483   2.655   8.231
17290WAT      O52111   3.978   6.191   5.206
17290WAT     H152112   3.974   6.185   5.106
17290WAT     H252113   3.985   6.287   5.234
17291WAT      O52114   4.774   3.110   5.673
17291WAT     H152115   4.828   3.044   5.725
17291WAT     H252116   4.747   3.070   5.585
17292WAT      O52117   2.635   3.098   0.054
17292WAT     H152118   2.637   3.197   0.063
17292WAT     H252119   2.540   3.066   0.047
17293WAT      O52120   6.507   7.991   6.021
17293WAT     H152121   6.446   8.070   6.024
17293WAT     H252122   6.590   8.011   6.073
17294WAT      O52123   9.096   8.029   6.947
17294WAT     H152124   9.192   8.038   6.976
17294WAT     H252125   9.088   7.957   6.878
17295WAT      O52126   1.189   1.542   0.440
17295WAT     H152127   1.215   1.501   0.353
17295WAT     H252128   1.091   1.529   0.455
17296WAT      O52129   8.888   8.016   3.827
17296WAT     H152130   8.816   8.074   3.865
17296WAT     H252131   8.896   7.932   3.880
17297WAT      O52132   3.353   9.063   4.058
17297WAT     H152133   3.282   9.097   3.997
17297WAT     H252134   3.432   9.032   4.004
17298WAT      O52135   9.425   4.763   7.018
17298WAT     H152136   9.518   4.756   7.055
17298WAT     H252137   9.367   4.814   7.082
17299WAT      O52138   9.685   8.201   6.990
17299WAT     H152139   9.737   8.280   6.957
17299WAT     H252140   9.707   8.121   6.934
17300WAT      O52141   9.797   6.916   2.769
17300WAT     H152142   9.727   6.847   2.753
17300WAT     H252143   9.754   7.006   2.776
17301WAT      O52144   6.720   7.056   7.782
17301WAT     H152145   6.744   7.152   7.772
17301WAT     H252146   6.621   7.046   7.781
17302WAT      O52147   2.614   6.779   6.539
17302WAT     H152148   2.571   6.769   6.449
17302WAT     H252149   2.705   6.739   6.537
17303WAT      O52150   3.803   8.288   5.163
17303WAT     H152151   3.750   8.295   5.079
17303WAT     H252152   3.751   8.329   5.239
17304WAT      O52153   5.882   3.191   5.704
17304WAT     H152154   5.923   3.112   5.750
17304WAT     H252155   5.921   3.199   5.612
17305WAT      O52156   3.331   5.876   0.542
17305WAT     H152157   3.378   5.948   0.491
17305WAT     H252158   3.234   5.877   0.519
17306WAT      O52159   8.779   4.161   2.360
17306WAT     H152160   8.698   4.138   2.414
17306WAT     H252161   8.808   4.255   2.382
17307WAT      O52162   2.361   1.066   7.692
17307WAT     H152163   2.454   1.078   7.658
17307WAT     H252164   2.304   1.026   7.620
17308WAT      O52165   6.917   4.113   8.984
17308WAT     H152166   6.967   4.171   8.921
17308WAT     H252167   6.881   4.033   8.935
17309WAT      O52168   6.215   7.043   6.464
17309WAT     H152169   6.210   7.140   6.440
17309WAT     H252170   6.271   7.032   6.546
17310WAT      O52171   1.217   3.512   0.041
17310WAT     H152172   1.266   3.503   0.127
17310WAT     H252173   1.244   3.596  -0.005
17311WAT      O52174   7.641   2.555   3.188
17311WAT     H152175   7.695   2.564   3.272
17311WAT     H252176   7.633   2.459   3.163
17312WAT      O52177   7.381   3.423   9.710
17312WAT     H152178   7.336   3.363   9.776
17312WAT     H252179   7.387   3.377   9.621
17313WAT      O52180   0.994   2.206   6.008
17313WAT     H152181   0.949   2.117   5.999
17313WAT     H252182   0.929   2.279   5.984
17314WAT      O52183   5.839   6.168   7.327
17314WAT     H152184   5.810   6.246   7.383
17314WAT     H252185   5.804   6.179   7.234
17315WAT      O52186   5.028   5.580   4.030
17315WAT     H152187   4.984   5.502   3.986
17315WAT     H252188   4.968   5.615   4.102
17316WAT      O52189   4.563   9.717   0.033
17316WAT     H152190   4.567   9.808   0.075
17316WAT     H252191   4.637   9.660   0.071
17317WAT      O52192   7.523   1.821   2.699
17317WAT     H152193   7.486   1.799   2.789
17317WAT     H252194   7.618   1.788   2.693
17318WAT      O52195   2.925   8.233   3.463
17318WAT     H152196   2.969   8.155   3.419
17318WAT     H252197   2.842   8.258   3.414
17319WAT      O52198   9.879   4.733   7.943
17319WAT     H152199   9.795   4.760   7.896
17319WAT     H252200   9.896   4.636   7.925
17320WAT      O52201   4.841   4.353   5.304
17320WAT     H152202   4.918   4.295   5.330
17320WAT     H252203   4.759   4.297   5.292
17321WAT      O52204   5.951   9.107   6.014
17321WAT     H152205   6.031   9.081   6.068
17321WAT     H252206   5.974   9.104   5.917
17322WAT      O52207   6.682   7.983   9.564
17322WAT     H152208   6.771   8.027   9.549
17322WAT     H252209   6.687   7.887   9.540
17323WAT      O52210   0.583   8.422   5.360
17323WAT     H152211   0.662   8.473   5.395
17323WAT     H252212   0.503   8.481   5.358
17324WAT      O52213   9.571   6.846   4.670
17324WAT     H152214   9.485   6.892   4.694
17324WAT     H252215   9.629   6.909   4.619
17325WAT      O52216   4.533   8.894   7.321
17325WAT     H152217   4.619   8.845   7.336
17325WAT     H252218   4.494   8.921   7.409
17326WAT      O52219   9.113   0.728   0.603
17326WAT     H152220   9.041   0.661   0.622
17326WAT     H252221   9.117   0.795   0.677
17327WAT      O52222   9.104   8.661   8.590
17327WAT     H152223   9.076   8.685   8.683
17327WAT     H252224   9.083   8.565   8.573
17328WAT      O52225   8.983   8.632   7.744
17328WAT     H152226   9.012   8.703   7.679
17328WAT     H252227   8.999   8.663   7.837
17329WAT      O52228   1.161   0.708   5.667
17329WAT     H152229   1.159   0.690   5.765
17329WAT     H252230   1.068   0.731   5.636
17330WAT      O52231   7.915   3.653   9.867
17330WAT     H152232   7.900   3.713   9.946
17330WAT     H252233   7.940   3.709   9.788
17331WAT      O52234   3.559   5.028   9.286
17331WAT     H152235   3.506   5.017   9.370
17331WAT     H252236   3.539   5.117   9.245
17332WAT      O52237   3.507   5.460   0.527
17332WAT     H152238   3.595   5.419   0.505
17332WAT     H252239   3.522   5.544   0.580
17333WAT      O52240   6.041   0.272   0.060
17333WAT     H152241   6.026   0.295   0.156
17333WAT     H252242   5.954   0.248   0.017
17334WAT      O52243   0.440   1.362   0.902
17334WAT     H152244   0.525   1.348   0.851
17334WAT     H252245   0.390   1.439   0.863
17335WAT      O52246   0.621   8.968   4.196
17335WAT     H152247   0.569   9.017   4.127
17335WAT     H252248   0.706   9.017   4.215
17336WAT      O52249   8.038   5.236   0.344
17336WAT     H152250   8.005   5.166   0.280
17336WAT     H252251   8.095   5.193   0.414
17337WAT      O52252   1.123   7.598   1.806
17337WAT     H152253   1.098   7.526   1.741
17337WAT     H252254   1.089   7.574   1.897
17338WAT      O52255   3.854   0.210   2.301
17338WAT     H152256   3.758   0.182   2.300
17338WAT     H252257   3.912   0.131   2.281
17339WAT      O52258   1.881   0.869   1.825
17339WAT     H152259   1.937   0.806   1.771
17339WAT     H252260   1.826   0.817   1.891
17340WAT      O52261   2.490   8.425   7.954
17340WAT     H152262   2.421   8.459   8.018
17340WAT     H252263   2.579   8.423   7.999
17341WAT      O52264   5.751   0.047   9.348
17341WAT     H152265   5.808   0.129   9.348
17341WAT     H252266   5.661   0.070   9.309
17342WAT      O52267   1.896   8.355   8.666
17342WAT     H152268   1.836   8.407   8.606
17342WAT     H252269   1.842   8.294   8.724
17343WAT      O52270   9.327   0.566   4.024
17343WAT     H152271   9.400   0.626   4.057
17343WAT     H252272   9.364   0.475   4.005
17344WAT      O52273   8.603   9.166   7.760
17344WAT     H152274   8.627   9.069   7.771
17344WAT     H252275   8.684   9.217   7.732
17345WAT      O52276   6.172   1.235   0.454
17345WAT     H152277   6.178   1.153   0.511
17345WAT     H252278   6.124   1.213   0.369
17346WAT      O52279   4.894   6.868   4.162
17346WAT     H152280   4.799   6.885   4.189
17346WAT     H252281   4.913   6.915   4.076
17347WAT      O52282   1.590   3.101   7.298
17347WAT     H152283   1.685   3.130   7.291
17347WAT     H252284   1.583   3.004   7.274
17348WAT      O52285   0.530   3.910   4.328
17348WAT     H152286   0.579   3.938   4.411
17348WAT     H252287   0.574   3.829   4.289
17349WAT      O52288   2.230   0.818   8.372
17349WAT     H152289   2.141   0.864   8.379
17349WAT     H252290   2.297   0.865   8.430
17350WAT      O52291   0.129   1.674   0.161
17350WAT     H152292   0.066   1.721   0.099
17350WAT     H252293   0.216   1.723   0.163
17351WAT      O52294   3.833   6.715   4.838
17351WAT     H152295   3.781   6.630   4.842
17351WAT     H252296   3.927   6.699   4.868
17352WAT      O52297   2.868   3.100   3.139
17352WAT     H152298   2.770   3.078   3.138
17352WAT     H252299   2.907   3.077   3.228
17353WAT      O52300   3.078   9.098   3.117
17353WAT     H152301   3.162   9.150   3.133
17353WAT     H252302   3.087   9.007   3.157
17354WAT      O52303   5.890   9.532   7.594
17354WAT     H152304   5.917   9.532   7.691
17354WAT     H252305   5.792   9.513   7.588
17355WAT      O52306   5.765   6.413   7.479
17355WAT     H152307   5.852   6.463   7.472
17355WAT     H252308   5.738   6.406   7.575
17356WAT      O52309   5.754   4.571   3.827
17356WAT     H152310   5.758   4.524   3.916
17356WAT     H252311   5.762   4.503   3.754
17357WAT      O52312   3.788   2.520   1.107
17357WAT     H152313   3.764   2.549   1.014
17357WAT     H252314   3.822   2.426   1.105
17358WAT      O52315   3.739   1.242   7.643
17358WAT     H152316   3.736   1.269   7.546
17358WAT     H252317   3.805   1.168   7.655
17359WAT      O52318   7.342   5.626   7.159
17359WAT     H152319   7.351   5.722   7.183
17359WAT     H252320   7.419   5.599   7.101
17360WAT      O52321   4.162   4.903   4.216
17360WAT     H152322   4.136   4.960   4.138
17360WAT     H252323   4.140   4.807   4.196
17361WAT      O52324   6.573   2.125   6.550
17361WAT     H152325   6.623   2.164   6.628
17361WAT     H252326   6.517   2.196   6.507
17362WAT      O52327   7.170   0.647   2.066
17362WAT     H152328   7.173   0.550   2.040
17362WAT     H252329   7.250   0.669   2.121
17363WAT      O52330   8.861   8.753   2.289
17363WAT     H152331   8.931   8.701   2.240
17363WAT     H252332   8.809   8.808   2.223
17364WAT      O52333   9.696   3.829   8.188
17364WAT     H152334   9.622   3.894   8.173
17364WAT     H252335   9.659   3.743   8.223
17365WAT      O52336   7.749   0.648   0.821
17365WAT     H152337   7.727   0.681   0.729
17365WAT     H252338   7.824   0.583   0.815
17366WAT      O52339   7.813   7.952   4.793
17366WAT     H152340   7.901   7.904   4.799
17366WAT     H252341   7.826   8.049   4.812
17367WAT      O52342   8.309   8.210   2.007
17367WAT     H152343   8.269   8.269   1.936
17367WAT     H252344   8.238   8.180   2.070
17368WAT      O52345   5.202   5.613   1.622
17368WAT     H152346   5.191   5.520   1.587
17368WAT     H252347   5.180   5.614   1.719
17369WAT      O52348   9.060   7.414   9.766
17369WAT     H152349   9.157   7.436   9.773
17369WAT     H252350   9.006   7.487   9.808
17370WAT      O52351   8.071   2.918   1.076
17370WAT     H152352   8.082   3.014   1.102
17370WAT     H252353   8.002   2.910   1.004
17371WAT      O52354   4.193   3.047   3.410
17371WAT     H152355   4.273   3.104   3.432
17371WAT     H252356   4.113   3.106   3.398
17372WAT      O52357   0.913   4.033   5.277
17372WAT     H152358   0.939   3.941   5.306
17372WAT     H252359   0.989   4.096   5.294
17373WAT      O52360   4.733   9.686   1.240
17373WAT     H152361   4.652   9.639   1.204
17373WAT     H252362   4.815   9.637   1.211
17374WAT      O52363   0.969   4.419   2.391
17374WAT     H152364   0.908   4.423   2.312
17374WAT     H252365   0.925   4.463   2.469
17375WAT      O52366   6.315   1.516   4.269
17375WAT     H152367   6.289   1.445   4.334
17375WAT     H252368   6.233   1.555   4.226
17376WAT      O52369   6.737   4.413   1.661
17376WAT     H152370   6.658   4.473   1.653
17376WAT     H252371   6.710   4.319   1.640
17377WAT      O52372   4.859   8.203   9.157
17377WAT     H152373   4.934   8.150   9.117
17377WAT     H252374   4.892   8.294   9.180
17378WAT      O52375   7.242   8.059   5.035
17378WAT     H152376   7.341   8.048   5.028
17378WAT     H252377   7.211   8.130   4.971
17379WAT      O52378   4.617   4.595   1.312
17379WAT     H152379   4.713   4.603   1.285
17379WAT     H252380   4.594   4.499   1.328
17380WAT      O52381   5.447   2.127   5.132
17380WAT     H152382   5.384   2.058   5.095
17380WAT     H252383   5.399   2.214   5.141
17381WAT      O52384   5.863   2.292   5.255
17381WAT     H152385   5.859   2.239   5.171
17381WAT     H252386   5.805   2.248   5.324
17382WAT      O52387   6.613   9.124   0.083
17382WAT     H152388   6.586   9.034   0.117
17382WAT     H252389   6.574   9.138  -0.007
17383WAT      O52390   5.835   4.733   6.470
17383WAT     H152391   5.813   4.829   6.455
17383WAT     H252392   5.753   4.682   6.494
17384WAT      O52393   3.827   1.259   5.955
17384WAT     H152394   3.827   1.354   5.985
17384WAT     H252395   3.742   1.214   5.984
17385WAT      O52396   8.454   6.776   5.520
17385WAT     H152397   8.505   6.801   5.602
17385WAT     H252398   8.363   6.743   5.546
17386WAT      O52399   5.012   2.216   9.345
17386WAT     H152400   4.944   2.146   9.367
17386WAT     H252401   4.975   2.306   9.367
17387WAT      O52402   9.521   4.213   7.263
17387WAT     H152403   9.588   4.159   7.312
17387WAT     H252404   9.432   4.204   7.307
17388WAT      O52405   1.784   4.350   9.477
17388WAT     H152406   1.699   4.400   9.490
17388WAT     H252407   1.777   4.292   9.395
17389WAT      O52408   9.600   5.606   6.775
17389WAT     H152409   9.539   5.611   6.854
17389WAT     H252410   9.590   5.690   6.721
17390WAT      O52411   9.863   5.365   8.233
17390WAT     H152412   9.818   5.381   8.145
17390WAT     H252413   9.894   5.270   8.237
17391WAT      O52414   9.370   7.893   9.365
17391WAT     H152415   9.372   7.842   9.451
17391WAT     H252416   9.395   7.988   9.382
17392WAT      O52417   4.295   2.136   9.469
17392WAT     H152418   4.395   2.135   9.460
17392WAT     H252419   4.270   2.164   9.561
17393WAT      O52420   4.589   4.350   0.910
17393WAT     H152421   4.592   4.275   0.977
17393WAT     H252422   4.622   4.316   0.821
17394WAT      O52423   2.096   4.484   1.506
17394WAT     H152424   2.076   4.387   1.523
17394WAT     H252425   2.193   4.495   1.484
17395WAT      O52426   6.403   9.632   0.121
17395WAT     H152427   6.354   9.694   0.182
17395WAT     H252428   6.465   9.575   0.176
17396WAT      O52429   8.844   7.729   3.430
17396WAT     H152430   8.809   7.820   3.406
17396WAT     H252431   8.828   7.712   3.528
17397WAT      O52432   6.893   4.834   7.685
17397WAT     H152433   6.866   4.741   7.658
17397WAT     H252434   6.812   4.887   7.708
17398WAT      O52435   3.538   4.313   2.209
17398WAT     H152436   3.446   4.328   2.173
17398WAT     H252437   3.532   4.257   2.292
17399WAT      O52438   5.470   2.321   3.973
17399WAT     H152439   5.419   2.309   4.059
17399WAT     H252440   5.546   2.384   3.988
17400WAT      O52441   9.431   9.605   0.356
17400WAT     H152442   9.500   9.673   0.377
17400WAT     H252443   9.383   9.579   0.439
17401WAT      O52444   5.181   2.096   1.372
17401WAT     H152445   5.204   2.048   1.287
17401WAT     H252446   5.212   2.042   1.450
17402WAT      O52447   1.687   5.456   9.372
17402WAT     H152448   1.696   5.394   9.451
17402WAT     H252449   1.644   5.407   9.297
17403WAT      O52450   2.999   2.411   5.460
17403WAT     H152451   2.913   2.451   5.489
17403WAT     H252452   2.994   2.389   5.362
17404WAT      O52453   3.377   2.595   6.915
17404WAT     H152454   3.334   2.685   6.927
17404WAT     H252455   3.465   2.606   6.869
17405WAT      O52456   7.910   0.050   9.319
17405WAT     H152457   7.836   0.066   9.253
17405WAT     H252458   7.874  -0.002   9.397
17406WAT      O52459   2.569   5.451   5.235
17406WAT     H152460   2.529   5.484   5.320
17406WAT     H252461   2.666   5.478   5.232
17407WAT      O52462   1.967   7.867   6.157
17407WAT     H152463   1.910   7.937   6.113
17407WAT     H252464   2.020   7.820   6.087
17408WAT      O52465   4.411   7.707   6.510
17408WAT     H152466   4.436   7.655   6.429
17408WAT     H252467   4.365   7.791   6.483
17409WAT      O52468   0.430   5.152   3.706
17409WAT     H152469   0.399   5.242   3.736
17409WAT     H252470   0.351   5.099   3.675
17410WAT      O52471   5.525   5.500   5.589
17410WAT     H152472   5.496   5.578   5.533
17410WAT     H252473   5.451   5.475   5.651
17411WAT      O52474   0.536   3.800   3.475
17411WAT     H152475   0.481   3.724   3.509
17411WAT     H252476   0.598   3.831   3.547
17412WAT      O52477   2.238   9.207   7.244
17412WAT     H152478   2.185   9.265   7.182
17412WAT     H252479   2.206   9.221   7.337
17413WAT      O52480   8.519   8.442   2.199
17413WAT     H152481   8.484   8.417   2.289
17413WAT     H252482   8.458   8.508   2.156
17414WAT      O52483   1.091   1.223   1.424
17414WAT     H152484   1.147   1.206   1.506
17414WAT     H252485   1.036   1.142   1.404
17415WAT      O52486   6.508   5.215   4.196
17415WAT     H152487   6.524   5.164   4.112
17415WAT     H252488   6.555   5.170   4.272
17416WAT      O52489   9.678   4.730   7.167
17416WAT     H152490   9.763   4.778   7.184
17416WAT     H252491   9.695   4.632   7.163
17417WAT      O52492   3.389   4.976   5.800
17417WAT     H152493   3.450   5.037   5.750
17417WAT     H252494   3.328   4.929   5.735
17418WAT      O52495   3.632   5.340   6.818
17418WAT     H152496   3.701   5.343   6.890
17418WAT     H252497   3.553   5.395   6.845
17419WAT      O52498   7.061   0.745   7.430
17419WAT     H152499   7.132   0.786   7.373
17419WAT     H252500   6.989   0.706   7.372
17420WAT      O52501   6.950   5.187   5.678
17420WAT     H152502   6.916   5.098   5.649
17420WAT     H252503   7.026   5.214   5.619
17421WAT      O52504   6.503   4.567   2.699
17421WAT     H152505   6.555   4.571   2.614
17421WAT     H252506   6.557   4.521   2.769
17422WAT      O52507   1.598   0.306   2.111
17422WAT     H152508   1.602   0.211   2.143
17422WAT     H252509   1.678   0.324   2.054
17423WAT      O52510   8.480   0.008   8.103
17423WAT     H152511   8.381  -0.001   8.110
17423WAT     H252512   8.503   0.076   8.033
17424WAT      O52513   2.474   0.528   0.098
17424WAT     H152514   2.573   0.532   0.093
17424WAT     H252515   2.438   0.616   0.128
17425WAT      O52516   3.943   2.750   4.527
17425WAT     H152517   3.872   2.710   4.469
17425WAT     H252518   3.900   2.797   4.605
17426WAT      O52519   5.318   0.044   5.670
17426WAT     H152520   5.410   0.074   5.643
17426WAT     H252521   5.297  -0.043   5.627
17427WAT      O52522   5.067   2.633   2.188
17427WAT     H152523   5.114   2.721   2.189
17427WAT     H252524   5.126   2.562   2.227
17428WAT      O52525   0.959   8.901   2.194
17428WAT     H152526   0.874   8.868   2.152
17428WAT     H252527   1.031   8.833   2.182
17429WAT      O52528   8.578   6.213   7.843
17429WAT     H152529   8.574   6.155   7.924
17429WAT     H252530   8.657   6.188   7.787
17430WAT      O52531   3.863   6.401   3.893
17430WAT     H152532   3.836   6.306   3.903
17430WAT     H252533   3.838   6.452   3.975
17431WAT      O52534   8.787   2.326   3.752
17431WAT     H152535   8.740   2.239   3.771
17431WAT     H252536   8.830   2.320   3.662
17432WAT      O52537   9.732   6.957   7.209
17432WAT     H152538   9.759   6.874   7.161
17432WAT     H252539   9.814   7.006   7.239
17433WAT      O52540   8.880   3.685   0.721
17433WAT     H152541   8.790   3.683   0.678
17433WAT     H252542   8.877   3.744   0.801
17434WAT      O52543   3.759   5.600   3.894
17434WAT     H152544   3.748   5.680   3.953
17434WAT     H252545   3.819   5.534   3.939
17435WAT      O52546   9.109   9.374   4.561
17435WAT     H152547   9.011   9.360   4.547
17435WAT     H252548   9.135   9.463   4.523
17436WAT      O52549   9.856   0.618   4.478
17436WAT     H152550   9.776   0.567   4.510
17436WAT     H252551   9.833   0.670   4.396
17437WAT      O52552   0.322   1.103   8.689
17437WAT     H152553   0.394   1.139   8.748
17437WAT     H252554   0.313   1.161   8.608
17438WAT      O52555   0.478   7.880   4.332
17438WAT     H152556   0.431   7.814   4.390
17438WAT     H252557   0.570   7.847   4.311
17439WAT      O52558   6.971   5.760   3.047
17439WAT     H152559   6.964   5.678   2.990
17439WAT     H252560   6.923   5.835   3.003
17440WAT      O52561   0.675   3.493   7.392
17440WAT     H152562   0.596   3.470   7.449
17440WAT     H252563   0.663   3.455   7.300
17441WAT      O52564   3.302   6.780   5.489
17441WAT     H152565   3.285   6.703   5.427
17441WAT     H252566   3.400   6.786   5.509
17442WAT      O52567   9.358   8.859   3.849
17442WAT     H152568   9.338   8.794   3.922
17442WAT     H252569   9.329   8.951   3.876
17443WAT      O52570   3.436   3.167   2.078
17443WAT     H152571   3.426   3.140   1.982
17443WAT     H252572   3.495   3.248   2.083
17444WAT      O52573   9.855   6.339   2.491
17444WAT     H152574   9.951   6.350   2.514
17444WAT     H252575   9.838   6.378   2.400
17445WAT      O52576   3.781   7.146   0.374
17445WAT     H152577   3.735   7.226   0.335
17445WAT     H252578   3.879   7.151   0.353
17446WAT      O52579   4.266   8.775   3.017
17446WAT     H152580   4.227   8.683   3.030
17446WAT     H252581   4.257   8.802   2.921
17447WAT      O52582   6.024   2.309   6.549
17447WAT     H152583   6.072   2.374   6.608
17447WAT     H252584   6.002   2.352   6.462
17448WAT      O52585   3.698   7.373   4.800
17448WAT     H152586   3.634   7.313   4.847
17448WAT     H252587   3.726   7.447   4.862
17449WAT      O52588   5.971   8.055   6.614
17449WAT     H152589   6.012   8.055   6.705
17449WAT     H252590   5.913   8.135   6.603
17450WAT      O52591   5.795   4.628   5.609
17450WAT     H152592   5.717   4.673   5.564
17450WAT     H252593   5.880   4.659   5.567
17451WAT      O52594   4.386   7.322   9.240
17451WAT     H152595   4.460   7.368   9.190
17451WAT     H252596   4.402   7.223   9.238
17452WAT      O52597   2.361   7.372   0.639
17452WAT     H152598   2.453   7.389   0.676
17452WAT     H252599   2.304   7.453   0.654
17453WAT      O52600   2.970   1.797   2.572
17453WAT     H152601   3.013   1.826   2.657
17453WAT     H252602   2.914   1.716   2.588
17454WAT      O52603   5.358   1.261   9.744
17454WAT     H152604   5.337   1.324   9.670
17454WAT     H252605   5.383   1.312   9.827
17455WAT      O52606   2.892   4.031   2.049
17455WAT     H152607   2.928   4.070   2.134
17455WAT     H252608   2.902   3.931   2.051
17456WAT      O52609   0.320   2.020   8.166
17456WAT     H152610   0.365   2.035   8.079
17456WAT     H252611   0.291   2.108   8.204
17457WAT      O52612   6.640   7.953   3.260
17457WAT     H152613   6.633   7.988   3.354
17457WAT     H252614   6.666   7.857   3.262
17458WAT      O52615   0.780   2.947   6.657
17458WAT     H152616   0.816   2.908   6.742
17458WAT     H252617   0.821   2.901   6.579
17459WAT      O52618   3.146   7.407   0.108
17459WAT     H152619   3.204   7.328   0.087
17459WAT     H252620   3.055   7.375   0.136
17460WAT      O52621   0.138   1.093   8.887
17460WAT     H152622   0.200   1.101   8.808
17460WAT     H252623   0.160   1.009   8.937
17461WAT      O52624   3.346   4.737   0.692
17461WAT     H152625   3.299   4.659   0.651
17461WAT     H252626   3.282   4.792   0.744
17462WAT      O52627   4.615   9.721   7.757
17462WAT     H152628   4.595   9.682   7.846
17462WAT     H252629   4.710   9.700   7.732
17463WAT      O52630   1.132   8.368   9.470
17463WAT     H152631   1.124   8.449   9.412
17463WAT     H252632   1.155   8.289   9.414
17464WAT      O52633   6.257   4.934   1.513
17464WAT     H152634   6.320   4.927   1.590
17464WAT     H252635   6.218   4.844   1.494
17465WAT      O52636   1.899   8.474   6.782
17465WAT     H152637   1.860   8.451   6.693
17465WAT     H252638   1.923   8.390   6.830
17466WAT      O52639   2.666   6.439   9.004
17466WAT     H152640   2.595   6.429   9.073
17466WAT     H252641   2.706   6.349   8.984
17467WAT      O52642   1.767   2.445   7.767
17467WAT     H152643   1.795   2.350   7.779
17467WAT     H252644   1.709   2.472   7.844
17468WAT      O52645   6.903   6.600   1.105
17468WAT     H152646   6.934   6.546   1.026
17468WAT     H252647   6.810   6.572   1.130
17469WAT      O52648   3.166   8.960   4.221
17469WAT     H152649   3.251   8.993   4.182
17469WAT     H252650   3.163   8.982   4.319
17470WAT      O52651   9.720   8.583   0.094
17470WAT     H152652   9.692   8.529   0.015
17470WAT     H252653   9.820   8.586   0.099
17471WAT      O52654   8.751   4.587   5.694
17471WAT     H152655   8.842   4.553   5.670
17471WAT     H252656   8.742   4.682   5.665
17472WAT      O52657   8.932   2.734   4.321
17472WAT     H152658   9.018   2.731   4.271
17472WAT     H252659   8.948   2.711   4.417
17473WAT      O52660   6.524   7.164   4.588
17473WAT     H152661   6.543   7.226   4.664
17473WAT     H252662   6.564   7.201   4.504
17474WAT      O52663   7.798   6.237   9.149
17474WAT     H152664   7.756   6.174   9.085
17474WAT     H252665   7.730   6.306   9.177
17475WAT      O52666   4.238   8.230   5.100
17475WAT     H152667   4.166   8.169   5.132
17475WAT     H252668   4.327   8.185   5.108
17476WAT      O52669   8.506   8.186   5.491
17476WAT     H152670   8.596   8.228   5.494
17476WAT     H252671   8.493   8.129   5.572
17477WAT      O52672   8.746   0.516   6.641
17477WAT     H152673   8.724   0.587   6.574
17477WAT     H252674   8.725   0.550   6.733
17478WAT      O52675   0.567   3.405   9.049
17478WAT     H152676   0.663   3.406   9.076
17478WAT     H252677   0.542   3.313   9.018
17479WAT      O52678   5.415   6.374   7.161
17479WAT     H152679   5.477   6.432   7.215
17479WAT     H252680   5.357   6.431   7.104
17480WAT      O52681   3.276   7.359   8.262
17480WAT     H152682   3.178   7.344   8.278
17480WAT     H252683   3.328   7.284   8.304
17481WAT      O52684   1.515   6.672   6.652
17481WAT     H152685   1.450   6.702   6.722
17481WAT     H252686   1.607   6.665   6.693
17482WAT      O52687   9.683   8.816   0.177
17482WAT     H152688   9.618   8.868   0.122
17482WAT     H252689   9.693   8.724   0.139
17483WAT      O52690   0.080   5.139   7.684
17483WAT     H152691   0.173   5.167   7.708
17483WAT     H252692   0.053   5.185   7.599
17484WAT      O52693   2.974   7.081   6.905
17484WAT     H152694   3.007   7.000   6.856
17484WAT     H252695   2.884   7.061   6.944
17485WAT      O52696   2.743   3.394   1.746
17485WAT     H152697   2.817   3.375   1.811
17485WAT     H252698   2.728   3.314   1.688
17486WAT      O52699   5.775   2.302   8.029
17486WAT     H152700   5.702   2.253   7.982
17486WAT     H252701   5.747   2.398   8.042
17487WAT      O52702   6.775   0.144   5.349
17487WAT     H152703   6.716   0.118   5.425
17487WAT     H252704   6.836   0.217   5.378
17488WAT      O52705   9.720   9.200   6.705
17488WAT     H152706   9.811   9.235   6.682
17488WAT     H252707   9.666   9.274   6.746
17489WAT      O52708   9.638   7.364   8.461
17489WAT     H152709   9.553   7.315   8.443
17489WAT     H252710   9.647   7.379   8.560
17490WAT      O52711   6.589   8.691   4.766
17490WAT     H152712   6.623   8.622   4.829
17490WAT     H252713   6.520   8.747   4.812
17491WAT      O52714   6.841   2.988   2.497
17491WAT     H152715   6.917   2.930   2.465
17491WAT     H252716   6.757   2.934   2.501
17492WAT      O52717   2.816   3.343   3.571
17492WAT     H152718   2.804   3.430   3.620
17492WAT     H252719   2.728   3.312   3.535
17493WAT      O52720   2.723   9.452   1.127
17493WAT     H152721   2.654   9.445   1.200
17493WAT     H252722   2.677   9.456   1.038
17494WAT      O52723   5.010   2.279   5.890
17494WAT     H152724   5.063   2.271   5.805
17494WAT     H252725   5.008   2.189   5.935
17495WAT      O52726   5.808   2.034   1.649
17495WAT     H152727   5.731   1.969   1.654
17495WAT     H252728   5.775   2.122   1.614
17496WAT      O52729   3.761   9.128   6.880
17496WAT     H152730   3.684   9.150   6.940
17496WAT     H252731   3.802   9.213   6.846
17497WAT      O52732   7.596   6.231   8.439
17497WAT     H152733   7.676   6.290   8.435
17497WAT     H252734   7.517   6.285   8.470
17498WAT      O52735   2.369   4.291   9.293
17498WAT     H152736   2.314   4.263   9.214
17498WAT     H252737   2.438   4.357   9.263
17499WAT      O52738   8.899   7.510   1.368
17499WAT     H152739   8.878   7.577   1.439
17499WAT     H252740   8.841   7.429   1.381
17500WAT      O52741   4.600   1.796   6.608
17500WAT     H152742   4.538   1.718   6.617
17500WAT     H252743   4.693   1.762   6.593
17501WAT      O52744   6.667   5.795   6.174
17501WAT     H152745   6.652   5.708   6.127
17501WAT     H252746   6.693   5.778   6.269
17502WAT      O52747   7.804   7.668   2.406
17502WAT     H152748   7.716   7.713   2.390
17502WAT     H252749   7.800   7.619   2.493
17503WAT      O52750   4.197   2.381   0.999
17503WAT     H152751   4.203   2.476   0.966
17503WAT     H252752   4.117   2.337   0.957
17504WAT      O52753   8.177   4.363   7.161
17504WAT     H152754   8.207   4.317   7.245
17504WAT     H252755   8.152   4.457   7.182
17505WAT      O52756   3.468   5.867   8.211
17505WAT     H152757   3.456   5.880   8.309
17505WAT     H252758   3.404   5.925   8.161
17506WAT      O52759   4.230   7.434   8.235
17506WAT     H152760   4.271   7.345   8.213
17506WAT     H252761   4.149   7.420   8.292
17507WAT      O52762   3.778   2.582   1.986
17507WAT     H152763   3.706   2.525   1.946
17507WAT     H252764   3.845   2.605   1.915
17508WAT      O52765   7.952   6.030   9.223
17508WAT     H152766   7.897   5.947   9.234
17508WAT     H252767   7.892   6.109   9.213
17509WAT      O52768   5.742   5.644   3.640
17509WAT     H152769   5.646   5.666   3.624
17509WAT     H252770   5.775   5.697   3.718
17510WAT      O52771   4.248   1.018   6.229
17510WAT     H152772   4.267   1.115   6.216
17510WAT     H252773   4.302   0.983   6.305
17511WAT      O52774   9.864   6.270   8.909
17511WAT     H152775   9.797   6.321   8.855
17511WAT     H252776   9.822   6.188   8.947
17512WAT      O52777   8.922   0.327   5.516
17512WAT     H152778   9.006   0.367   5.479
17512WAT     H252779   8.946   0.266   5.592
17513WAT      O52780   3.880   3.380   7.986
17513WAT     H152781   3.882   3.280   7.979
17513WAT     H252782   3.872   3.406   8.082
17514WAT      O52783   4.953   7.018   3.924
17514WAT     H152784   4.930   7.054   3.833
17514WAT     H252785   5.025   7.073   3.965
17515WAT      O52786   8.715   4.932   7.300
17515WAT     H152787   8.774   4.914   7.221
17515WAT     H252788   8.655   5.010   7.280
17516WAT      O52789   1.051   9.301   0.563
17516WAT     H152790   1.001   9.363   0.502
17516WAT     H252791   1.082   9.352   0.644
17517WAT      O52792   9.291   6.130   6.211
17517WAT     H152793   9.194   6.137   6.234
17517WAT     H252794   9.310   6.185   6.130
17518WAT      O52795   5.694   2.204   5.464
17518WAT     H152796   5.636   2.129   5.430
17518WAT     H252797   5.695   2.202   5.564
17519WAT      O52798   8.926   1.499   7.672
17519WAT     H152799   8.872   1.500   7.756
17519WAT     H252800   9.005   1.439   7.684
17520WAT      O52801   8.351   7.238   3.469
17520WAT     H152802   8.257   7.203   3.478
17520WAT     H252803   8.407   7.170   3.422
17521WAT      O52804   0.494   3.938   8.925
17521WAT     H152805   0.488   3.857   8.983
17521WAT     H252806   0.425   3.932   8.852
17522WAT      O52807   3.821   0.411   7.931
17522WAT     H152808   3.865   0.381   7.846
17522WAT     H252809   3.890   0.416   8.004
17523WAT      O52810   7.858   9.774   2.306
17523WAT     H152811   7.858   9.870   2.276
17523WAT     H252812   7.826   9.769   2.400
17524WAT      O52813   0.120   0.658   0.516
17524WAT     H152814   0.091   0.664   0.421
17524WAT     H252815   0.097   0.567   0.551
17525WAT      O52816   3.458   4.535   7.511
17525WAT     H152817   3.525   4.585   7.566
17525WAT     H252818   3.504   4.466   7.456
17526WAT      O52819   0.497   5.498   4.492
17526WAT     H152820   0.512   5.452   4.405
17526WAT     H252821   0.534   5.591   4.488
17527WAT      O52822   2.072   1.028   6.093
17527WAT     H152823   2.020   1.072   6.167
17527WAT     H252824   2.067   0.929   6.104
17528WAT      O52825   3.156   2.995   2.481
17528WAT     H152826   3.078   2.970   2.425
17528WAT     H252827   3.172   2.926   2.551
17529WAT      O52828   2.355   2.900   9.328
17529WAT     H152829   2.339   2.959   9.249
17529WAT     H252830   2.413   2.822   9.300
17530WAT      O52831   6.069   6.048   7.084
17530WAT     H152832   5.976   6.077   7.109
17530WAT     H252833   6.121   6.127   7.052
17531WAT      O52834   7.501   5.913   6.917
17531WAT     H152835   7.571   5.943   6.852
17531WAT     H252836   7.422   5.877   6.867
17532WAT      O52837   4.406   8.973   7.546
17532WAT     H152838   4.393   9.072   7.539
17532WAT     H252839   4.429   8.950   7.641
17533WAT      O52840   7.065   3.164   8.477
17533WAT     H152841   6.992   3.097   8.489
17533WAT     H252842   7.146   3.119   8.440
17534WAT      O52843   5.708   3.829   3.267
17534WAT     H152844   5.650   3.751   3.292
17534WAT     H252845   5.802   3.809   3.295
17535WAT      O52846   0.727   5.102   6.016
17535WAT     H152847   0.743   5.188   6.065
17535WAT     H252848   0.635   5.104   5.977
17536WAT      O52849   5.657   3.747   8.883
17536WAT     H152850   5.752   3.723   8.863
17536WAT     H252851   5.634   3.833   8.838
17537WAT      O52852   4.960   2.987   2.832
17537WAT     H152853   4.997   2.972   2.740
17537WAT     H252854   4.981   3.080   2.861
17538WAT      O52855   5.590   1.618   3.633
17538WAT     H152856   5.626   1.704   3.670
17538WAT     H252857   5.568   1.556   3.708
17539WAT      O52858   7.415   1.096   5.964
17539WAT     H152859   7.446   1.054   5.879
17539WAT     H252860   7.316   1.114   5.959
17540WAT      O52861   8.403   1.308   8.111
17540WAT     H152862   8.304   1.296   8.100
17540WAT     H252863   8.426   1.306   8.208
17541WAT      O52864   3.666   6.308   3.693
17541WAT     H152865   3.738   6.366   3.731
17541WAT     H252866   3.707   6.246   3.625
17542WAT      O52867   8.526   6.866   3.944
17542WAT     H152868   8.612   6.822   3.917
17542WAT     H252869   8.502   6.837   4.037
17543WAT      O52870   2.560   4.192   6.985
17543WAT     H152871   2.621   4.183   6.906
17543WAT     H252872   2.468   4.162   6.960
17544WAT      O52873   8.211   2.152   5.758
17544WAT     H152874   8.294   2.099   5.774
17544WAT     H252875   8.192   2.209   5.839
17545WAT      O52876   8.670   1.034   8.051
17545WAT     H152877   8.703   1.059   7.959
17545WAT     H252878   8.571   1.020   8.048
17546WAT      O52879   4.136   6.567   0.788
17546WAT     H152880   4.081   6.618   0.722
17546WAT     H252881   4.232   6.569   0.760
17547WAT      O52882   7.686   5.665   2.429
17547WAT     H152883   7.653   5.708   2.345
17547WAT     H252884   7.759   5.601   2.408
17548WAT      O52885   5.846   3.073   6.476
17548WAT     H152886   5.816   3.165   6.452
17548WAT     H252887   5.855   3.018   6.393
17549WAT      O52888   9.604   7.209   1.102
17549WAT     H152889   9.603   7.247   1.194
17549WAT     H252890   9.596   7.283   1.035
17550WAT      O52891   0.410   7.059   1.216
17550WAT     H152892   0.397   6.993   1.290
17550WAT     H252893   0.435   7.010   1.132
17551WAT      O52894   3.212   3.410   6.757
17551WAT     H152895   3.269   3.330   6.772
17551WAT     H252896   3.269   3.491   6.747
17552WAT      O52897   5.443   8.806   4.588
17552WAT     H152898   5.436   8.871   4.664
17552WAT     H252899   5.394   8.843   4.509
17553WAT      O52900   9.622   4.811   3.296
17553WAT     H152901   9.570   4.776   3.219
17553WAT     H252902   9.670   4.736   3.341
17554WAT      O52903   2.613   1.749   2.172
17554WAT     H152904   2.518   1.760   2.144
17554WAT     H252905   2.667   1.826   2.140
17555WAT      O52906   1.401   6.034   3.002
17555WAT     H152907   1.419   6.127   2.970
17555WAT     H252908   1.486   5.990   3.030
17556WAT      O52909   4.941   0.513   5.138
17556WAT     H152910   5.008   0.575   5.097
17556WAT     H252911   4.969   0.418   5.121
17557WAT      O52912   7.666   9.245   6.695
17557WAT     H152913   7.677   9.195   6.609
17557WAT     H252914   7.646   9.180   6.768
17558WAT      O52915   6.665   2.973   2.765
17558WAT     H152916   6.662   2.907   2.690
17558WAT     H252917   6.752   2.963   2.815
17559WAT      O52918   7.312   8.848   0.529
17559WAT     H152919   7.296   8.937   0.487
17559WAT     H252920   7.281   8.851   0.624
17560WAT      O52921   3.595   1.794   2.109
17560WAT     H152922   3.576   1.891   2.125
17560WAT     H252923   3.510   1.746   2.086
17561WAT      O52924   1.990   5.450   8.715
17561WAT     H152925   1.913   5.507   8.687
17561WAT     H252926   2.046   5.499   8.781
17562WAT      O52927   3.093   6.074   7.451
17562WAT     H152928   3.099   6.095   7.548
17562WAT     H252929   3.168   6.013   7.425
17563WAT      O52930   3.024   0.780   8.304
17563WAT     H152931   3.056   0.744   8.216
17563WAT     H252932   3.089   0.848   8.338
17564WAT      O52933   8.940   4.851   0.254
17564WAT     H152934   9.031   4.840   0.294
17564WAT     H252935   8.936   4.801   0.167
17565WAT      O52936   0.983   1.714   7.433
17565WAT     H152937   0.927   1.689   7.512
17565WAT     H252938   0.982   1.640   7.366
17566WAT      O52939   7.439   3.498   0.212
17566WAT     H152940   7.537   3.486   0.197
17566WAT     H252941   7.407   3.580   0.164
17567WAT      O52942   2.158   6.762   2.605
17567WAT     H152943   2.103   6.740   2.525
17567WAT     H252944   2.102   6.755   2.688
17568WAT      O52945   8.780   0.555   7.472
17568WAT     H152946   8.725   0.638   7.470
17568WAT     H252947   8.797   0.525   7.378
17569WAT      O52948   2.275   3.744   4.616
17569WAT     H152949   2.364   3.721   4.576
17569WAT     H252950   2.203   3.696   4.566
17570WAT      O52951   0.651   8.394   7.368
17570WAT     H152952   0.731   8.439   7.328
17570WAT     H252953   0.645   8.417   7.466
17571WAT      O52954   5.847   6.969   6.094
17571WAT     H152955   5.941   6.973   6.127
17571WAT     H252956   5.846   6.994   5.997
17572WAT      O52957   2.356   2.637   7.062
17572WAT     H152958   2.301   2.594   7.134
17572WAT     H252959   2.413   2.567   7.018
17573WAT      O52960   1.506   2.727   6.900
17573WAT     H152961   1.550   2.650   6.855
17573WAT     H252962   1.413   2.739   6.864
17574WAT      O52963   6.745   1.158   4.918
17574WAT     H152964   6.783   1.248   4.937
17574WAT     H252965   6.798   1.114   4.846
17575WAT      O52966   8.642   8.536   5.728
17575WAT     H152967   8.694   8.583   5.656
17575WAT     H252968   8.646   8.437   5.712
17576WAT      O52969   2.313   1.340   6.786
17576WAT     H152970   2.281   1.264   6.843
17576WAT     H252971   2.270   1.334   6.696
17577WAT      O52972   0.831   9.812   9.264
17577WAT     H152973   0.922   9.790   9.230
17577WAT     H252974   0.770   9.832   9.187
17578WAT      O52975   9.847   0.839   8.490
17578WAT     H152976   9.915   0.767   8.485
17578WAT     H252977   9.881   0.922   8.445
17579WAT      O52978   0.489   4.187   5.736
17579WAT     H152979   0.518   4.093   5.756
17579WAT     H252980   0.540   4.221   5.657
17580WAT      O52981   6.280   5.673   0.233
17580WAT     H152982   6.333   5.753   0.263
17580WAT     H252983   6.316   5.591   0.276
17581WAT      O52984   2.080   8.128   2.874
17581WAT     H152985   1.995   8.176   2.897
17581WAT     H252986   2.097   8.056   2.941
17582WAT      O52987   2.215   9.157   2.000
17582WAT     H152988   2.188   9.140   1.905
17582WAT     H252989   2.206   9.254   2.021
17583WAT      O52990   7.206   6.290   5.602
17583WAT     H152991   7.165   6.382   5.599
17583WAT     H252992   7.286   6.291   5.662
17584WAT      O52993   5.856   6.384   2.441
17584WAT     H152994   5.781   6.318   2.439
17584WAT     H252995   5.911   6.369   2.524
17585WAT      O52996   7.903   3.361   7.979
17585WAT     H152997   7.844   3.439   7.995
17585WAT     H252998   7.889   3.293   8.051
17586WAT      O52999   6.192   5.435   5.508
17586WAT     H153000   6.095   5.411   5.513
17586WAT     H253001   6.248   5.354   5.522
17587WAT      O53002   1.269   5.320   1.551
17587WAT     H153003   1.180   5.302   1.594
17587WAT     H253004   1.335   5.251   1.581
17588WAT      O53005   7.693   2.293   5.855
17588WAT     H153006   7.791   2.312   5.859
17588WAT     H253007   7.651   2.346   5.782
17589WAT      O53008   1.775   7.918   4.772
17589WAT     H153009   1.740   7.824   4.779
17589WAT     H253010   1.701   7.980   4.747
17590WAT      O53011   0.962   6.156   1.423
17590WAT     H153012   1.035   6.207   1.379
17590WAT     H253013   0.937   6.200   1.509
17591WAT      O53014   4.962   4.600   0.337
17591WAT     H153015   4.976   4.697   0.320
17591WAT     H253016   4.934   4.587   0.432
17592WAT      O53017   9.343   6.679   4.566
17592WAT     H153018   9.284   6.755   4.592
17592WAT     H253019   9.374   6.691   4.472
17593WAT      O53020   3.489   3.897   1.638
17593WAT     H153021   3.491   3.798   1.620
17593WAT     H253022   3.400   3.922   1.676
17594WAT      O53023   7.663   3.636   5.685
17594WAT     H153024   7.762   3.619   5.692
17594WAT     H253025   7.626   3.584   5.608
17595WAT      O53026   7.044   7.918   7.610
17595WAT     H153027   7.086   8.009   7.606
17595WAT     H253028   7.088   7.859   7.543
17596WAT      O53029   5.037   5.814   7.784
17596WAT     H153030   5.042   5.876   7.705
17596WAT     H253031   5.022   5.868   7.867
17597WAT      O53032   4.913   8.585   1.884
17597WAT     H153033   4.859   8.534   1.951
17597WAT     H253034   4.874   8.573   1.793
17598WAT      O53035   9.721   3.217   6.203
17598WAT     H153036   9.669   3.301   6.216
17598WAT     H253037   9.663   3.138   6.223
17599WAT      O53038   2.458   8.729   9.435
17599WAT     H153039   2.536   8.737   9.497
17599WAT     H253040   2.470   8.794   9.359
17600WAT      O53041   3.468   2.553   2.620
17600WAT     H153042   3.390   2.537   2.680
17600WAT     H253043   3.475   2.650   2.599
17601WAT      O53044   2.518   0.133   6.604
17601WAT     H153045   2.613   0.166   6.609
17601WAT     H253046   2.503   0.091   6.515
17602WAT      O53047   5.721   5.773   1.337
17602WAT     H153048   5.747   5.785   1.241
17602WAT     H253049   5.803   5.768   1.394
17603WAT      O53050   2.675   6.683   8.911
17603WAT     H153051   2.691   6.594   8.952
17603WAT     H253052   2.589   6.682   8.860
17604WAT      O53053   3.098   8.367   1.642
17604WAT     H153054   3.098   8.397   1.547
17604WAT     H253055   3.009   8.386   1.683
17605WAT      O53056   3.818   0.174   4.762
17605WAT     H153057   3.913   0.157   4.789
17605WAT     H253058   3.795   0.269   4.779
17606WAT      O53059   5.108   6.566   0.450
17606WAT     H153060   5.120   6.653   0.401
17606WAT     H253061   5.040   6.577   0.521
17607WAT      O53062   6.701   7.553   2.579
17607WAT     H153063   6.625   7.502   2.540
17607WAT     H253064   6.771   7.568   2.509
17608WAT      O53065   3.727   5.854   2.819
17608WAT     H153066   3.723   5.780   2.753
17608WAT     H253067   3.693   5.938   2.778
17609WAT      O53068   6.142   5.019   5.618
17609WAT     H153069   6.048   5.032   5.587
17609WAT     H253070   6.147   5.035   5.717
17610WAT      O53071   8.745   3.261   2.907
17610WAT     H153072   8.821   3.300   2.960
17610WAT     H253073   8.670   3.327   2.902
17611WAT      O53074   4.692   1.464   7.842
17611WAT     H153075   4.721   1.559   7.855
17611WAT     H253076   4.745   1.404   7.902
17612WAT      O53077   0.101   8.161   3.163
17612WAT     H153078   0.179   8.199   3.213
17612WAT     H253079   0.029   8.230   3.156
17613WAT      O53080   8.244   2.560   7.074
17613WAT     H153081   8.254   2.592   7.168
17613WAT     H253082   8.309   2.607   7.015
17614WAT      O53083   2.034   9.708   0.291
17614WAT     H153084   1.939   9.685   0.311
17614WAT     H253085   2.090   9.626   0.302
17615WAT      O53086   3.710   4.893   6.721
17615WAT     H153087   3.772   4.962   6.760
17615WAT     H253088   3.632   4.880   6.782
17616WAT      O53089   3.014   4.254   0.591
17616WAT     H153090   3.075   4.256   0.670
17616WAT     H253091   2.948   4.328   0.598
17617WAT      O53092   7.591   7.544   2.662
17617WAT     H153093   7.499   7.540   2.623
17617WAT     H253094   7.599   7.476   2.735
17618WAT      O53095   1.557   9.787   6.779
17618WAT     H153096   1.649   9.808   6.814
17618WAT     H253097   1.491   9.852   6.817
17619WAT      O53098   4.113   2.803   2.565
17619WAT     H153099   4.144   2.724   2.513
17619WAT     H253100   4.107   2.882   2.505
17620WAT      O53101   8.619   1.840   5.398
17620WAT     H153102   8.682   1.915   5.416
17620WAT     H253103   8.632   1.767   5.465
17621WAT      O53104   0.058   0.411   8.196
17621WAT     H153105   0.102   0.497   8.223
17621WAT     H253106  -0.039   0.415   8.218
17622WAT      O53107   1.598   4.139   8.575
17622WAT     H153108   1.620   4.049   8.540
17622WAT     H253109   1.560   4.196   8.502
17623WAT      O53110   1.065   8.071   3.643
17623WAT     H153111   1.005   8.008   3.593
17623WAT     H253112   1.160   8.051   3.621
17624WAT      O53113   6.096   0.900   5.069
17624WAT     H153114   6.106   0.955   5.152
17624WAT     H253115   6.081   0.804   5.094
17625WAT      O53116   9.521   8.225   3.856
17625WAT     H153117   9.429   8.224   3.817
17625WAT     H253118   9.517   8.202   3.953
17626WAT      O53119   7.247   7.934   1.445
17626WAT     H153120   7.166   7.922   1.502
17626WAT     H253121   7.269   7.847   1.401
17627WAT      O53122   2.978   3.604   6.248
17627WAT     H153123   3.021   3.678   6.197
17627WAT     H253124   2.974   3.628   6.345
17628WAT      O53125   2.722   0.669   0.915
17628WAT     H153126   2.790   0.732   0.952
17628WAT     H253127   2.705   0.596   0.982
17629WAT      O53128   3.391   3.954   7.623
17629WAT     H153129   3.485   3.987   7.630
17629WAT     H253130   3.376   3.879   7.688
17630WAT      O53131   4.020   4.479   1.445
17630WAT     H153132   4.065   4.457   1.532
17630WAT     H253133   4.047   4.572   1.417
17631WAT      O53134   5.798   4.998   7.166
17631WAT     H153135   5.732   4.966   7.098
17631WAT     H253136   5.839   5.084   7.136
17632WAT      O53137   7.168   8.127   3.381
17632WAT     H153138   7.090   8.080   3.340
17632WAT     H253139   7.183   8.214   3.334
17633WAT      O53140   1.243   4.466   7.418
17633WAT     H153141   1.340   4.452   7.436
17633WAT     H253142   1.216   4.558   7.447
17634WAT      O53143   9.375   3.865   2.847
17634WAT     H153144   9.409   3.788   2.900
17634WAT     H253145   9.342   3.936   2.909
17635WAT      O53146   7.146   8.793   3.127
17635WAT     H153147   7.167   8.863   3.195
17635WAT     H253148   7.093   8.720   3.170
17636WAT      O53149   4.998   4.339   9.841
17636WAT     H153150   4.954   4.422   9.875
17636WAT     H253151   4.935   4.262   9.850
17637WAT      O53152   1.974   3.300   6.780
17637WAT     H153153   2.000   3.224   6.720
17637WAT     H253154   2.003   3.386   6.737
17638WAT      O53155   1.649   1.906   3.037
17638WAT     H153156   1.717   1.885   3.107
17638WAT     H253157   1.676   1.989   2.987
17639WAT      O53158   9.184   5.074   0.132
17639WAT     H153159   9.257   5.136   0.103
17639WAT     H253160   9.109   5.078   0.066
17640WAT      O53161   3.571   8.978   3.907
17640WAT     H153162   3.651   8.919   3.924
17640WAT     H253163   3.594   9.045   3.837
17641WAT      O53164   8.785   1.779   6.502
17641WAT     H153165   8.688   1.758   6.504
17641WAT     H253166   8.812   1.804   6.409
17642WAT      O53167   9.558   4.869   6.814
17642WAT     H153168   9.489   4.846   6.883
17642WAT     H253169   9.631   4.923   6.855
17643WAT      O53170   0.588   5.223   6.339
17643WAT     H153171   0.491   5.209   6.320
17643WAT     H253172   0.624   5.292   6.276
17644WAT      O53173   3.942   0.513   5.817
17644WAT     H153174   4.026   0.563   5.794
17644WAT     H253175   3.879   0.516   5.739
17645WAT      O53176   6.893   1.863   8.338
17645WAT     H153177   6.896   1.778   8.390
17645WAT     H253178   6.924   1.845   8.244
17646WAT      O53179   7.336   5.923   4.694
17646WAT     H153180   7.355   5.923   4.596
17646WAT     H253181   7.319   5.830   4.726
17647WAT      O53182   7.807   7.933   8.727
17647WAT     H153183   7.737   7.866   8.701
17647WAT     H253184   7.862   7.896   8.802
17648WAT      O53185   7.961   9.251   3.632
17648WAT     H153186   7.962   9.310   3.551
17648WAT     H253187   7.928   9.303   3.711
17649WAT      O53188   3.885   8.824   7.887
17649WAT     H153189   3.869   8.889   7.812
17649WAT     H253190   3.890   8.731   7.850
17650WAT      O53191   1.569   2.561   0.804
17650WAT     H153192   1.553   2.571   0.706
17650WAT     H253193   1.486   2.584   0.854
17651WAT      O53194   1.287   4.271   0.222
17651WAT     H153195   1.262   4.364   0.251
17651WAT     H253196   1.207   4.227   0.180
17652WAT      O53197   0.612   0.715   6.274
17652WAT     H153198   0.679   0.694   6.204
17652WAT     H253199   0.544   0.642   6.278
17653WAT      O53200   3.490   7.934   7.074
17653WAT     H153201   3.415   7.950   7.010
17653WAT     H253202   3.453   7.918   7.166
17654WAT      O53203   4.484   1.133   4.243
17654WAT     H153204   4.510   1.224   4.210
17654WAT     H253205   4.394   1.109   4.205
17655WAT      O53206   8.421   9.348   9.850
17655WAT     H153207   8.380   9.438   9.859
17655WAT     H253208   8.359   9.279   9.888
17656WAT      O53209   5.291   0.405   0.224
17656WAT     H153210   5.322   0.345   0.151
17656WAT     H253211   5.369   0.434   0.280
17657WAT      O53212   2.503   8.628   3.852
17657WAT     H153213   2.506   8.560   3.926
17657WAT     H253214   2.408   8.640   3.823
17658WAT      O53215   6.408   3.013   5.849
17658WAT     H153216   6.365   3.036   5.762
17658WAT     H253217   6.492   2.962   5.832
17659WAT      O53218   1.256   8.160   7.225
17659WAT     H153219   1.156   8.153   7.229
17659WAT     H253220   1.292   8.164   7.318
17660WAT      O53221   5.622   2.981   1.532
17660WAT     H153222   5.643   2.884   1.544
17660WAT     H253223   5.680   3.035   1.593
17661WAT      O53224   6.917   2.852   4.665
17661WAT     H153225   6.947   2.935   4.617
17661WAT     H253226   6.934   2.862   4.763
17662WAT      O53227   5.689   2.056   5.697
17662WAT     H153228   5.639   2.010   5.771
17662WAT     H253229   5.780   2.017   5.690
17663WAT      O53230   9.318   1.442   1.378
17663WAT     H153231   9.346   1.484   1.464
17663WAT     H253232   9.387   1.375   1.350
17664WAT      O53233   0.218   1.193   9.624
17664WAT     H153234   0.122   1.191   9.653
17664WAT     H253235   0.278   1.190   9.704
17665WAT      O53236   4.295   3.304   2.687
17665WAT     H153237   4.377   3.361   2.681
17665WAT     H253238   4.300   3.230   2.620
17666WAT      O53239   6.814   4.126   1.908
17666WAT     H153240   6.791   4.164   1.819
17666WAT     H253241   6.763   4.175   1.979
17667WAT      O53242   7.120   1.089   8.201
17667WAT     H153243   7.193   1.074   8.134
17667WAT     H253244   7.153   1.147   8.275
17668WAT      O53245   8.492   6.318   4.802
17668WAT     H153246   8.410   6.356   4.845
17668WAT     H253247   8.554   6.285   4.872
17669WAT      O53248   0.874   0.839   4.312
17669WAT     H153249   0.891   0.860   4.216
17669WAT     H253250   0.951   0.869   4.367
17670WAT      O53251   5.117   1.537   7.399
17670WAT     H153252   5.132   1.459   7.338
17670WAT     H253253   5.125   1.507   7.494
17671WAT      O53254   2.135   2.150   9.610
17671WAT     H153255   2.143   2.200   9.524
17671WAT     H253256   2.138   2.215   9.686
17672WAT      O53257   1.607   6.695   8.637
17672WAT     H153258   1.621   6.623   8.569
17672WAT     H253259   1.670   6.681   8.713
17673WAT      O53260   1.220   1.430   0.201
17673WAT     H153261   1.163   1.440   0.120
17673WAT     H253262   1.314   1.409   0.173
17674WAT      O53263   1.954   3.083   9.826
17674WAT     H153264   1.933   3.025   9.747
17674WAT     H253265   2.012   3.032   9.890
17675WAT      O53266   0.954   8.902   4.282
17675WAT     H153267   0.909   8.894   4.371
17675WAT     H253268   1.042   8.854   4.285
17676WAT      O53269   4.825   8.568   4.282
17676WAT     H153270   4.841   8.666   4.268
17676WAT     H253271   4.879   8.537   4.361
17677WAT      O53272   8.147   0.044   3.643
17677WAT     H153273   8.128   0.128   3.592
17677WAT     H253274   8.139  -0.035   3.581
17678WAT      O53275   6.464   8.449   8.870
17678WAT     H153276   6.514   8.530   8.841
17678WAT     H253277   6.480   8.433   8.967
17679WAT      O53278   2.337   5.552   2.726
17679WAT     H153279   2.424   5.600   2.730
17679WAT     H253280   2.349   5.459   2.761
17680WAT      O53281   7.203   4.539   7.453
17680WAT     H153282   7.127   4.515   7.514
17680WAT     H253283   7.288   4.542   7.505
17681WAT      O53284   9.342   2.632   0.461
17681WAT     H153285   9.340   2.639   0.361
17681WAT     H253286   9.392   2.710   0.498
17682WAT      O53287   1.105   0.417   6.008
17682WAT     H153288   1.097   0.319   6.026
17682WAT     H253289   1.031   0.446   5.947
17683WAT      O53290   5.393   2.436   7.464
17683WAT     H153291   5.401   2.343   7.499
17683WAT     H253292   5.344   2.434   7.377
17684WAT      O53293   4.752   7.207   8.711
17684WAT     H153294   4.844   7.245   8.720
17684WAT     H253295   4.746   7.122   8.763
17685WAT      O53296   1.618   7.845   8.490
17685WAT     H153297   1.575   7.827   8.402
17685WAT     H253298   1.643   7.941   8.497
17686WAT      O53299   7.557   1.847   7.844
17686WAT     H153300   7.598   1.934   7.871
17686WAT     H253301   7.533   1.850   7.747
17687WAT      O53302   2.451   7.855   6.228
17687WAT     H153303   2.490   7.783   6.286
17687WAT     H253304   2.355   7.867   6.251
17688WAT      O53305   3.601   1.405   7.087
17688WAT     H153306   3.686   1.372   7.046
17688WAT     H253307   3.620   1.481   7.148
17689WAT      O53308   1.960   5.881   4.190
17689WAT     H153309   1.984   5.953   4.125
17689WAT     H253310   2.044   5.833   4.219
17690WAT      O53311   8.048   9.326   2.812
17690WAT     H153312   8.094   9.347   2.899
17690WAT     H253313   7.950   9.318   2.828
17691WAT      O53314   5.376   8.441   6.166
17691WAT     H153315   5.467   8.475   6.190
17691WAT     H253316   5.331   8.506   6.105
17692WAT      O53317   1.844   3.168   7.281
17692WAT     H153318   1.919   3.195   7.221
17692WAT     H253319   1.878   3.102   7.349
17693WAT      O53320   2.631   0.197   9.251
17693WAT     H153321   2.554   0.145   9.289
17693WAT     H253322   2.717   0.152   9.276
17694WAT      O53323   1.738   9.180   4.324
17694WAT     H153324   1.836   9.161   4.325
17694WAT     H253325   1.694   9.129   4.250
17695WAT      O53326   8.994   3.943   6.004
17695WAT     H153327   8.911   3.896   6.035
17695WAT     H253328   8.984   4.042   6.018
17696WAT      O53329   3.396   5.380   4.042
17696WAT     H153330   3.324   5.374   4.111
17696WAT     H253331   3.357   5.364   3.951
17697WAT      O53332   9.054   1.105   2.851
17697WAT     H153333   8.966   1.084   2.809
17697WAT     H253334   9.040   1.122   2.949
17698WAT      O53335   6.395   6.826   5.486
17698WAT     H153336   6.429   6.834   5.580
17698WAT     H253337   6.440   6.894   5.428
17699WAT      O53338   8.337   2.723   3.335
17699WAT     H153339   8.318   2.750   3.241
17699WAT     H253340   8.425   2.761   3.363
17700WAT      O53341   4.255   1.450   5.168
17700WAT     H153342   4.324   1.377   5.172
17700WAT     H253343   4.234   1.481   5.261
17701WAT      O53344   3.437   8.289   9.449
17701WAT     H153345   3.510   8.358   9.458
17701WAT     H253346   3.349   8.335   9.442
17702WAT      O53347   7.024   2.063   8.448
17702WAT     H153348   6.984   1.989   8.395
17702WAT     H253349   6.972   2.147   8.433
17703WAT      O53350   3.070   0.646   8.744
17703WAT     H153351   3.035   0.720   8.801
17703WAT     H253352   3.082   0.564   8.800
17704WAT      O53353   0.375   0.312   1.290
17704WAT     H153354   0.303   0.317   1.359
17704WAT     H253355   0.362   0.230   1.234
17705WAT      O53356   7.256   2.794   3.842
17705WAT     H153357   7.253   2.708   3.791
17705WAT     H253358   7.351   2.817   3.863
17706WAT      O53359   5.885   0.778   8.059
17706WAT     H153360   5.882   0.877   8.070
17706WAT     H253361   5.802   0.737   8.097
17707WAT      O53362   1.832   5.572   9.726
17707WAT     H153363   1.798   5.613   9.641
17707WAT     H253364   1.863   5.479   9.708
17708WAT      O53365   0.434   4.436   8.310
17708WAT     H153366   0.370   4.424   8.386
17708WAT     H253367   0.385   4.430   8.223
17709WAT      O53368   7.433   9.405   2.008
17709WAT     H153369   7.496   9.469   1.963
17709WAT     H253370   7.339   9.439   1.998
17710WAT      O53371   3.789   9.564   2.852
17710WAT     H153372   3.715   9.630   2.852
17710WAT     H253373   3.786   9.511   2.767
17711WAT      O53374   1.528   1.114   8.487
17711WAT     H153375   1.581   1.198   8.476
17711WAT     H253376   1.586   1.043   8.527
17712WAT      O53377   2.089   7.203   1.478
17712WAT     H153378   2.008   7.145   1.472
17712WAT     H253379   2.169   7.147   1.502
17713WAT      O53380   2.476   6.673   8.473
17713WAT     H153381   2.426   6.621   8.541
17713WAT     H253382   2.574   6.669   8.493
17714WAT      O53383   5.137   9.812   5.410
17714WAT     H153384   5.159   9.768   5.323
17714WAT     H253385   5.141   9.912   5.399
17715WAT      O53386   3.332   8.236   7.833
17715WAT     H153387   3.406   8.247   7.767
17715WAT     H253388   3.312   8.139   7.845
17716WAT      O53389   7.231   0.843   7.985
17716WAT     H153390   7.132   0.846   8.003
17716WAT     H253391   7.266   0.936   7.977
17717WAT      O53392   1.345   3.179   0.106
17717WAT     H153393   1.388   3.174   0.015
17717WAT     H253394   1.283   3.102   0.117
17718WAT      O53395   4.012   8.968   8.098
17718WAT     H153396   4.036   9.051   8.047
17718WAT     H253397   3.974   8.901   8.035
17719WAT      O53398   1.864   4.175   5.976
17719WAT     H153399   1.791   4.230   5.935
17719WAT     H253400   1.951   4.202   5.937
17720WAT      O53401   3.153   4.225   3.040
17720WAT     H153402   3.201   4.295   3.091
17720WAT     H253403   3.213   4.187   2.969
17721WAT      O53404   8.184   6.038   9.358
17721WAT     H153405   8.236   5.953   9.355
17721WAT     H253406   8.093   6.023   9.320
17722WAT      O53407   7.870   2.973   4.539
17722WAT     H153408   7.830   3.042   4.600
17722WAT     H253409   7.871   3.007   4.445
17723WAT      O53410   0.818   0.247   3.840
17723WAT     H153411   0.820   0.310   3.918
17723WAT     H253412   0.757   0.170   3.862
17724WAT      O53413   5.370   9.539   1.737
17724WAT     H153414   5.406   9.632   1.746
17724WAT     H253415   5.351   9.519   1.641
17725WAT      O53416   4.995   9.327   0.376
17725WAT     H153417   5.024   9.403   0.433
17725WAT     H253418   5.027   9.240   0.415
17726WAT      O53419   7.122   8.760   4.381
17726WAT     H153420   7.089   8.680   4.331
17726WAT     H253421   7.087   8.759   4.474
17727WAT      O53422   0.259   1.920   1.765
17727WAT     H153423   0.222   2.009   1.791
17727WAT     H253424   0.318   1.885   1.837
17728WAT      O53425   1.258   0.219   8.464
17728WAT     H153426   1.214   0.210   8.553
17728WAT     H253427   1.308   0.306   8.460
17729WAT      O53428   1.014   6.328   4.100
17729WAT     H153429   1.092   6.271   4.071
17729WAT     H253430   1.048   6.407   4.152
17730WAT      O53431   0.620   1.030   2.491
17730WAT     H153432   0.701   0.986   2.451
17730WAT     H253433   0.641   1.062   2.583
17731WAT      O53434   4.202   2.618   0.874
17731WAT     H153435   4.294   2.614   0.836
17731WAT     H253436   4.135   2.626   0.801
17732WAT      O53437   7.818   2.254   3.386
17732WAT     H153438   7.854   2.344   3.412
17732WAT     H253439   7.718   2.256   3.387
17733WAT      O53440   7.782   7.345   1.695
17733WAT     H153441   7.785   7.265   1.636
17733WAT     H253442   7.775   7.317   1.791
17734WAT      O53443   8.722   2.616   1.679
17734WAT     H153444   8.661   2.643   1.754
17734WAT     H253445   8.713   2.681   1.604
17735WAT      O53446   2.552   8.061   0.691
17735WAT     H153447   2.455   8.052   0.666
17735WAT     H253448   2.582   8.154   0.672
17736WAT      O53449   0.178   6.845   8.826
17736WAT     H153450   0.102   6.903   8.856
17736WAT     H253451   0.248   6.901   8.783
17737WAT      O53452   8.854   5.570   4.259
17737WAT     H153453   8.924   5.542   4.193
17737WAT     H253454   8.772   5.513   4.246
17738WAT      O53455   7.761   9.570   1.901
17738WAT     H153456   7.768   9.491   1.840
17738WAT     H253457   7.758   9.539   1.996
17739WAT      O53458   2.196   0.005   8.193
17739WAT     H153459   2.162  -0.074   8.244
17739WAT     H253460   2.291   0.022   8.219
17740WAT      O53461   2.278   4.622   7.939
17740WAT     H153462   2.231   4.639   7.853
17740WAT     H253463   2.212   4.628   8.015
17741WAT      O53464   2.576   7.643   8.841
17741WAT     H153465   2.614   7.724   8.797
17741WAT     H253466   2.629   7.623   8.923
17742WAT      O53467   6.466   7.487   8.225
17742WAT     H153468   6.425   7.561   8.171
17742WAT     H253469   6.505   7.525   8.309
17743WAT      O53470   7.637   4.547   5.917
17743WAT     H153471   7.554   4.548   5.861
17743WAT     H253472   7.707   4.603   5.872
17744WAT      O53473   5.495   0.033   4.326
17744WAT     H153474   5.576   0.072   4.369
17744WAT     H253475   5.455   0.100   4.264
17745WAT      O53476   6.218   7.304   6.344
17745WAT     H153477   6.217   7.390   6.396
17745WAT     H253478   6.129   7.290   6.301
17746WAT      O53479   4.895   3.084   3.267
17746WAT     H153480   4.932   3.026   3.194
17746WAT     H253481   4.906   3.180   3.242
17747WAT      O53482   2.235   5.726   3.755
17747WAT     H153483   2.228   5.822   3.781
17747WAT     H253484   2.315   5.685   3.798
17748WAT      O53485   6.482   7.107   4.152
17748WAT     H153486   6.429   7.101   4.068
17748WAT     H253487   6.437   7.169   4.216
17749WAT      O53488   6.627   1.676   3.688
17749WAT     H153489   6.586   1.673   3.780
17749WAT     H253490   6.726   1.683   3.696
17750WAT      O53491   3.875   7.146   0.633
17750WAT     H153492   3.846   7.241   0.634
17750WAT     H253493   3.822   7.096   0.564
17751WAT      O53494   7.930   7.162   3.936
17751WAT     H153495   7.977   7.098   3.997
17751WAT     H253496   7.993   7.191   3.864
17752WAT      O53497   2.288   6.318   5.374
17752WAT     H153498   2.210   6.286   5.429
17752WAT     H253499   2.255   6.368   5.294
17753WAT      O53500   4.831   9.727   2.444
17753WAT     H153501   4.877   9.704   2.358
17753WAT     H253502   4.786   9.815   2.436
17754WAT      O53503   1.286   2.962   4.480
17754WAT     H153504   1.238   3.048   4.497
17754WAT     H253505   1.240   2.911   4.408
17755WAT      O53506   2.861   3.581   0.783
17755WAT     H153507   2.919   3.528   0.723
17755WAT     H253508   2.797   3.520   0.831
17756WAT      O53509   3.977   0.030   5.072
17756WAT     H153510   3.994   0.101   5.004
17756WAT     H253511   3.924  -0.044   5.029
17757WAT      O53512   2.669   2.639   1.706
17757WAT     H153513   2.667   2.734   1.737
17757WAT     H253514   2.674   2.579   1.786
17758WAT      O53515   6.932   1.678   4.458
17758WAT     H153516   6.922   1.768   4.414
17758WAT     H253517   6.847   1.654   4.505
17759WAT      O53518   6.506   3.596   5.276
17759WAT     H153519   6.509   3.497   5.294
17759WAT     H253520   6.539   3.615   5.184
17760WAT      O53521   0.970   3.734   9.594
17760WAT     H153522   0.929   3.654   9.638
17760WAT     H253523   1.060   3.709   9.558
17761WAT      O53524   6.291   8.920   3.234
17761WAT     H153525   6.361   8.990   3.223
17761WAT     H253526   6.334   8.834   3.264
17762WAT      O53527   7.881   1.997   2.520
17762WAT     H153528   7.954   2.052   2.562
17762WAT     H253529   7.838   2.050   2.447
17763WAT      O53530   1.098   4.960   0.413
17763WAT     H153531   1.082   4.974   0.315
17763WAT     H253532   1.195   4.941   0.428
17764WAT      O53533   0.138   6.598   2.271
17764WAT     H153534   0.040   6.600   2.252
17764WAT     H253535   0.176   6.510   2.242
17765WAT      O53536   3.206   0.249   8.593
17765WAT     H153537   3.260   0.306   8.530
17765WAT     H253538   3.237   0.154   8.586
17766WAT      O53539   3.224   6.917   6.326
17766WAT     H153540   3.189   7.007   6.300
17766WAT     H253541   3.252   6.919   6.422
17767WAT      O53542   7.819   3.437   1.393
17767WAT     H153543   7.720   3.450   1.389
17767WAT     H253544   7.850   3.436   1.488
17768WAT      O53545   7.062   3.508   5.616
17768WAT     H153546   7.075   3.530   5.713
17768WAT     H253547   7.059   3.593   5.563
17769WAT      O53548   6.410   8.586   1.720
17769WAT     H153549   6.315   8.563   1.699
17769WAT     H253550   6.415   8.680   1.752
17770WAT      O53551   2.258   9.692   6.256
17770WAT     H153552   2.180   9.665   6.311
17770WAT     H253553   2.342   9.661   6.300
17771WAT      O53554   3.432   9.818   3.714
17771WAT     H153555   3.494   9.874   3.768
17771WAT     H253556   3.483   9.745   3.668
17772WAT      O53557   6.878   2.713   6.720
17772WAT     H153558   6.914   2.804   6.698
17772WAT     H253559   6.901   2.690   6.814
17773WAT      O53560   4.674   1.886   5.859
17773WAT     H153561   4.640   1.970   5.902
17773WAT     H253562   4.694   1.903   5.763
17774WAT      O53563   0.011   5.935   3.473
17774WAT     H153564  -0.046   5.899   3.399
17774WAT     H253565   0.088   5.985   3.434
17775WAT      O53566   8.708   4.649   1.252
17775WAT     H153567   8.647   4.627   1.329
17775WAT     H253568   8.724   4.748   1.249
17776WAT      O53569   9.403   6.371   3.702
17776WAT     H153570   9.441   6.283   3.673
17776WAT     H253571   9.387   6.429   3.623
17777WAT      O53572   1.967   4.503   2.162
17777WAT     H153573   2.052   4.539   2.123
17777WAT     H253574   1.944   4.552   2.246
17778WAT      O53575   0.213   4.168   2.869
17778WAT     H153576   0.282   4.235   2.896
17778WAT     H253577   0.239   4.127   2.781
17779WAT      O53578   6.305   8.819   1.859
17779WAT     H153579   6.357   8.889   1.810
17779WAT     H253580   6.269   8.859   1.944
17780WAT      O53581   6.020   8.193   7.756
17780WAT     H153582   6.043   8.130   7.830
17780WAT     H253583   6.040   8.151   7.668
17781WAT      O53584   9.089   5.771   2.499
17781WAT     H153585   9.068   5.859   2.456
17781WAT     H253586   9.013   5.744   2.558
17782WAT      O53587   9.399   2.105   7.733
17782WAT     H153588   9.497   2.090   7.721
17782WAT     H253589   9.350   2.018   7.719
17783WAT      O53590   1.282   2.305   9.505
17783WAT     H153591   1.338   2.385   9.530
17783WAT     H253592   1.306   2.228   9.565
17784WAT      O53593   4.393   0.262   7.085
17784WAT     H153594   4.414   0.178   7.035
17784WAT     H253595   4.320   0.244   7.150
17785WAT      O53596   8.717   8.272   5.684
17785WAT     H153597   8.796   8.243   5.630
17785WAT     H253598   8.736   8.257   5.781
17786WAT      O53599   1.012   2.287   4.636
17786WAT     H153600   0.986   2.227   4.560
17786WAT     H253601   1.095   2.338   4.612
17787WAT      O53602   2.413   3.261   9.250
17787WAT     H153603   2.455   3.246   9.339
17787WAT     H253604   2.367   3.350   9.249
17788WAT      O53605   6.102   5.431   6.216
17788WAT     H153606   6.005   5.409   6.205
17788WAT     H253607   6.144   5.443   6.126
17789WAT      O53608   4.802   9.559   8.301
17789WAT     H153609   4.702   9.562   8.307
17789WAT     H253610   4.834   9.465   8.312
17790WAT      O53611   1.338   7.511   2.035
17790WAT     H153612   1.246   7.489   2.065
17790WAT     H253613   1.360   7.460   1.952
17791WAT      O53614   3.701   6.830   4.492
17791WAT     H153615   3.663   6.901   4.433
17791WAT     H253616   3.627   6.771   4.525
17792WAT      O53617   1.255   5.771   6.235
17792WAT     H153618   1.245   5.863   6.274
17792WAT     H253619   1.351   5.747   6.230
17793WAT      O53620   1.896   6.431   2.209
17793WAT     H153621   1.996   6.433   2.201
17793WAT     H253622   1.855   6.456   2.121
17794WAT      O53623   8.241   7.945   5.609
17794WAT     H153624   8.216   7.984   5.521
17794WAT     H253625   8.332   7.978   5.636
17795WAT      O53626   6.645   7.055   6.864
17795WAT     H153627   6.690   7.144   6.871
17795WAT     H253628   6.658   7.018   6.772
17796WAT      O53629   6.520   2.546   2.649
17796WAT     H153630   6.576   2.474   2.690
17796WAT     H253631   6.525   2.539   2.549
17797WAT      O53632   1.733   1.606   9.803
17797WAT     H153633   1.789   1.689   9.806
17797WAT     H253634   1.683   1.603   9.717
17798WAT      O53635   8.146   8.856   5.236
17798WAT     H153636   8.100   8.926   5.290
17798WAT     H253637   8.214   8.809   5.294
17799WAT      O53638   1.901   8.861   7.677
17799WAT     H153639   1.897   8.833   7.581
17799WAT     H253640   1.829   8.813   7.728
17800WAT      O53641   5.924   3.504   2.995
17800WAT     H153642   5.932   3.417   3.043
17800WAT     H253643   5.835   3.545   3.013
17801WAT      O53644   3.680   8.856   0.277
17801WAT     H153645   3.702   8.950   0.252
17801WAT     H253646   3.609   8.855   0.348
17802WAT      O53647   8.904   9.608   0.583
17802WAT     H153648   8.888   9.674   0.657
17802WAT     H253649   8.834   9.619   0.513
17803WAT      O53650   0.550   7.096   8.006
17803WAT     H153651   0.495   7.169   8.046
17803WAT     H253652   0.551   7.107   7.906
17804WAT      O53653   5.224   7.004   8.629
17804WAT     H153654   5.150   6.952   8.587
17804WAT     H253655   5.237   6.974   8.723
17805WAT      O53656   7.059   0.024   1.382
17805WAT     H153657   6.979   0.083   1.370
17805WAT     H253658   7.051  -0.026   1.468
17806WAT      O53659   1.383   8.439   5.612
17806WAT     H153660   1.317   8.470   5.680
17806WAT     H253661   1.462   8.500   5.612
17807WAT      O53662   1.454   1.287   9.036
17807WAT     H153663   1.492   1.290   8.943
17807WAT     H253664   1.477   1.199   9.078
17808WAT      O53665   7.977   4.959   6.458
17808WAT     H153666   7.902   5.017   6.488
17808WAT     H253667   8.039   4.942   6.535
17809WAT      O53668   1.655   5.815   7.023
17809WAT     H153669   1.672   5.717   7.009
17809WAT     H253670   1.616   5.829   7.114
17810WAT      O53671   8.913   5.365   0.625
17810WAT     H153672   8.890   5.361   0.722
17810WAT     H253673   8.984   5.298   0.604
17811WAT      O53674   0.281   8.752   2.338
17811WAT     H153675   0.292   8.694   2.258
17811WAT     H253676   0.371   8.778   2.373
17812WAT      O53677   5.674   2.549   3.203
17812WAT     H153678   5.725   2.479   3.152
17812WAT     H253679   5.622   2.504   3.276
17813WAT      O53680   3.511   8.450   6.859
17813WAT     H153681   3.448   8.376   6.836
17813WAT     H253682   3.480   8.535   6.817
17814WAT      O53683   4.163   6.959   3.157
17814WAT     H153684   4.098   6.901   3.206
17814WAT     H253685   4.116   7.043   3.129
17815WAT      O53686   7.829   2.863   3.262
17815WAT     H153687   7.771   2.942   3.244
17815WAT     H253688   7.777   2.779   3.245
17816WAT      O53689   5.993   6.579   1.511
17816WAT     H153690   5.996   6.556   1.414
17816WAT     H253691   6.083   6.564   1.551
17817WAT      O53692   5.587   3.785   6.755
17817WAT     H153693   5.672   3.785   6.808
17817WAT     H253694   5.609   3.776   6.658
17818WAT      O53695   3.280   3.540   5.907
17818WAT     H153696   3.291   3.444   5.879
17818WAT     H253697   3.184   3.565   5.901
17819WAT      O53698   0.116   6.803   3.904
17819WAT     H153699   0.164   6.817   3.991
17819WAT     H253700   0.045   6.873   3.894
17820WAT      O53701   3.105   6.710   9.394
17820WAT     H153702   3.178   6.773   9.418
17820WAT     H253703   3.120   6.622   9.438
17821WAT      O53704   3.630   0.476   2.299
17821WAT     H153705   3.574   0.405   2.343
17821WAT     H253706   3.716   0.487   2.349
17822WAT      O53707   0.251   3.907   1.430
17822WAT     H153708   0.243   3.807   1.434
17822WAT     H253709   0.314   3.937   1.501
17823WAT      O53710   8.623   8.281   8.444
17823WAT     H153711   8.692   8.347   8.474
17823WAT     H253712   8.533   8.323   8.450
17824WAT      O53713   0.045   3.983   8.400
17824WAT     H153714   0.014   3.888   8.404
17824WAT     H253715   0.013   4.031   8.482
17825WAT      O53716   2.682   9.528   4.249
17825WAT     H153717   2.779   9.553   4.252
17825WAT     H253718   2.672   9.430   4.260
17826WAT      O53719   4.882   6.204   2.492
17826WAT     H153720   4.879   6.201   2.592
17826WAT     H253721   4.794   6.236   2.457
17827WAT      O53722   0.227   4.712   4.744
17827WAT     H153723   0.266   4.749   4.660
17827WAT     H253724   0.153   4.771   4.776
17828WAT      O53725   7.085   9.160   7.799
17828WAT     H153726   7.175   9.197   7.823
17828WAT     H253727   7.061   9.189   7.706
17829WAT      O53728   6.124   4.563   7.689
17829WAT     H153729   6.097   4.476   7.730
17829WAT     H253730   6.168   4.545   7.601
17830WAT      O53731   6.582   5.978   4.001
17830WAT     H153732   6.610   6.021   3.915
17830WAT     H253733   6.634   5.894   4.015
17831WAT      O53734   3.061   5.196   8.594
17831WAT     H153735   3.107   5.221   8.679
17831WAT     H253736   3.117   5.222   8.516
17832WAT      O53737   1.043   8.955   9.187
17832WAT     H153738   1.044   8.947   9.287
17832WAT     H253739   0.973   9.021   9.160
17833WAT      O53740   8.855   9.589   7.412
17833WAT     H153741   8.775   9.626   7.459
17833WAT     H253742   8.900   9.661   7.360
17834WAT      O53743   5.649   4.534   6.023
17834WAT     H153744   5.710   4.552   5.946
17834WAT     H253745   5.698   4.480   6.092
17835WAT      O53746   4.774   5.456   2.142
17835WAT     H153747   4.674   5.450   2.154
17835WAT     H253748   4.795   5.462   2.044
17836WAT      O53749   6.636   6.977   9.838
17836WAT     H153750   6.636   7.043   9.913
17836WAT     H253751   6.676   6.891   9.869
17837WAT      O53752   5.437   8.107   1.502
17837WAT     H153753   5.491   8.084   1.422
17837WAT     H253754   5.401   8.200   1.493
17838WAT      O53755   2.012   1.342   1.070
17838WAT     H153756   2.014   1.360   0.972
17838WAT     H253757   1.925   1.298   1.094
17839WAT      O53758   1.503   8.089   7.158
17839WAT     H153759   1.508   7.993   7.132
17839WAT     H253760   1.409   8.114   7.179
17840WAT      O53761   1.583   9.553   4.379
17840WAT     H153762   1.547   9.468   4.419
17840WAT     H253763   1.513   9.596   4.322
17841WAT      O53764   5.095   9.371   5.053
17841WAT     H153765   5.118   9.283   5.094
17841WAT     H253766   5.122   9.371   4.956
17842WAT      O53767   6.804   6.198   1.609
17842WAT     H153768   6.730   6.145   1.566
17842WAT     H253769   6.885   6.141   1.618
17843WAT      O53770   4.226   2.509   6.361
17843WAT     H153771   4.166   2.483   6.437
17843WAT     H253772   4.241   2.608   6.362
17844WAT      O53773   3.151   0.865   6.293
17844WAT     H153774   3.055   0.838   6.305
17844WAT     H253775   3.173   0.938   6.358
17845WAT      O53776   6.711   9.600   9.689
17845WAT     H153777   6.653   9.665   9.738
17845WAT     H253778   6.750   9.535   9.753
17846WAT      O53779   3.547   7.214   0.601
17846WAT     H153780   3.577   7.123   0.572
17846WAT     H253781   3.569   7.281   0.530
17847WAT      O53782   8.025   4.141   7.039
17847WAT     H153783   7.964   4.093   7.102
17847WAT     H253784   8.097   4.188   7.090
17848WAT      O53785   5.974   7.440   7.203
17848WAT     H153786   5.916   7.520   7.216
17848WAT     H253787   6.025   7.449   7.117
17849WAT      O53788   0.202   0.406   9.763
17849WAT     H153789   0.223   0.444   9.673
17849WAT     H253790   0.192   0.307   9.756
17850WAT      O53791   3.352   5.778   5.485
17850WAT     H153792   3.423   5.837   5.523
17850WAT     H253793   3.314   5.821   5.403
17851WAT      O53794   2.250   6.325   9.515
17851WAT     H153795   2.271   6.359   9.423
17851WAT     H253796   2.161   6.280   9.514
17852WAT      O53797   7.378   6.534   3.348
17852WAT     H153798   7.324   6.601   3.398
17852WAT     H253799   7.318   6.472   3.298
17853WAT      O53800   7.009   2.653   6.141
17853WAT     H153801   7.008   2.724   6.070
17853WAT     H253802   6.950   2.680   6.216
17854WAT      O53803   1.995   8.461   6.315
17854WAT     H153804   2.030   8.371   6.290
17854WAT     H253805   2.072   8.522   6.335
17855WAT      O53806   4.002   6.171   6.081
17855WAT     H153807   4.055   6.134   6.157
17855WAT     H253808   3.918   6.212   6.116
17856WAT      O53809   7.442   1.687   8.613
17856WAT     H153810   7.386   1.770   8.614
17856WAT     H253811   7.472   1.670   8.519
17857WAT      O53812   6.848   8.249   3.965
17857WAT     H153813   6.764   8.222   3.918
17857WAT     H253814   6.895   8.168   3.998
17858WAT      O53815   6.962   7.799   1.894
17858WAT     H153816   6.924   7.771   1.982
17858WAT     H253817   6.925   7.889   1.869
17859WAT      O53818   5.293   1.703   6.198
17859WAT     H153819   5.305   1.744   6.289
17859WAT     H253820   5.304   1.774   6.128
17860WAT      O53821   1.310   0.903   6.936
17860WAT     H153822   1.356   0.861   7.014
17860WAT     H253823   1.350   0.870   6.851
17861WAT      O53824   3.285   2.623   0.384
17861WAT     H153825   3.250   2.625   0.290
17861WAT     H253826   3.291   2.717   0.419
17862WAT      O53827   4.043   7.508   9.422
17862WAT     H153828   4.071   7.536   9.330
17862WAT     H253829   3.964   7.563   9.451
17863WAT      O53830   0.227   5.086   6.991
17863WAT     H153831   0.309   5.096   6.935
17863WAT     H253832   0.195   5.177   7.019
17864WAT      O53833   4.661   5.262   4.553
17864WAT     H153834   4.635   5.243   4.647
17864WAT     H253835   4.760   5.275   4.548
17865WAT      O53836   9.146   6.551   0.459
17865WAT     H153837   9.141   6.527   0.362
17865WAT     H253838   9.177   6.646   0.468
17866WAT      O53839   3.441   3.045   4.270
17866WAT     H153840   3.379   3.122   4.254
17866WAT     H253841   3.534   3.079   4.284
17867WAT      O53842   3.494   3.628   7.886
17867WAT     H153843   3.593   3.617   7.900
17867WAT     H253844   3.445   3.563   7.944
17868WAT      O53845   1.498   8.893   7.070
17868WAT     H153846   1.567   8.877   7.139
17868WAT     H253847   1.536   8.874   6.979
17869WAT      O53848   8.699   4.651   6.000
17869WAT     H153849   8.790   4.611   6.012
17869WAT     H253850   8.679   4.658   5.902
17870WAT      O53851   1.982   5.845   7.204
17870WAT     H153852   1.997   5.750   7.178
17870WAT     H253853   2.065   5.898   7.190
17871WAT      O53854   0.363   8.335   4.212
17871WAT     H153855   0.341   8.239   4.198
17871WAT     H253856   0.429   8.365   4.143
17872WAT      O53857   8.290   2.706   8.105
17872WAT     H153858   8.370   2.700   8.045
17872WAT     H253859   8.207   2.709   8.049
17873WAT      O53860   4.252   7.808   5.754
17873WAT     H153861   4.260   7.906   5.769
17873WAT     H253862   4.336   7.773   5.712
17874WAT      O53863   6.952   2.974   1.898
17874WAT     H153864   6.879   3.012   1.955
17874WAT     H253865   6.940   3.006   1.804
17875WAT      O53866   5.889   3.900   1.213
17875WAT     H153867   5.919   3.805   1.209
17875WAT     H253868   5.895   3.940   1.121
17876WAT      O53869   8.128   7.211   4.337
17876WAT     H153870   8.106   7.119   4.371
17876WAT     H253871   8.051   7.272   4.354
17877WAT      O53872   3.345   2.606   3.310
17877WAT     H153873   3.424   2.660   3.283
17877WAT     H253874   3.367   2.554   3.393
17878WAT      O53875   5.314   3.318   2.429
17878WAT     H153876   5.367   3.253   2.483
17878WAT     H253877   5.227   3.275   2.403
17879WAT      O53878   7.661   9.772   8.015
17879WAT     H153879   7.707   9.811   7.935
17879WAT     H253880   7.702   9.810   8.098
17880WAT      O53881   7.749   4.793   5.141
17880WAT     H153882   7.788   4.877   5.178
17880WAT     H253883   7.661   4.813   5.098
17881WAT      O53884   6.780   8.923   3.957
17881WAT     H153885   6.703   8.976   3.920
17881WAT     H253886   6.755   8.883   4.045
17882WAT      O53887   5.018   8.285   3.511
17882WAT     H153888   5.110   8.258   3.482
17882WAT     H253889   5.023   8.375   3.554
17883WAT      O53890   8.306   3.040   5.939
17883WAT     H153891   8.220   3.081   5.909
17883WAT     H253892   8.321   2.953   5.890
17884WAT      O53893   3.960   5.673   1.601
17884WAT     H153894   3.879   5.623   1.628
17884WAT     H253895   3.945   5.716   1.511
17885WAT      O53896   6.519   9.005   6.201
17885WAT     H153897   6.440   8.947   6.219
17885WAT     H253898   6.579   8.960   6.135
17886WAT      O53899   4.092   2.073   5.995
17886WAT     H153900   4.028   2.001   6.023
17886WAT     H253901   4.062   2.161   6.032
17887WAT      O53902   2.848   8.821   8.979
17887WAT     H153903   2.755   8.809   8.944
17887WAT     H253904   2.906   8.857   8.907
17888WAT      O53905   7.147   3.294   2.421
17888WAT     H153906   7.083   3.285   2.498
17888WAT     H253907   7.134   3.383   2.378
17889WAT      O53908   2.281   3.663   1.951
17889WAT     H153909   2.306   3.675   2.047
17889WAT     H253910   2.254   3.568   1.936
17890WAT      O53911   4.932   3.193   7.064
17890WAT     H153912   4.982   3.139   7.131
17890WAT     H253913   4.970   3.176   6.973
17891WAT      O53914   0.881   9.478   2.667
17891WAT     H153915   0.835   9.533   2.736
17891WAT     H253916   0.963   9.436   2.707
17892WAT      O53917   7.231   1.447   9.439
17892WAT     H153918   7.220   1.427   9.342
17892WAT     H253919   7.263   1.365   9.487
17893WAT      O53920   3.166   7.193   1.164
17893WAT     H153921   3.236   7.214   1.095
17893WAT     H253922   3.148   7.275   1.218
17894WAT      O53923   5.788   3.620   7.624
17894WAT     H153924   5.883   3.649   7.622
17894WAT     H253925   5.749   3.627   7.533
17895WAT      O53926   5.973   5.922   9.494
17895WAT     H153927   5.922   5.957   9.416
17895WAT     H253928   6.046   5.987   9.517
17896WAT      O53929   3.434   1.033   4.724
17896WAT     H153930   3.433   0.939   4.692
17896WAT     H253931   3.341   1.062   4.748
17897WAT      O53932   7.163   1.333   1.661
17897WAT     H153933   7.238   1.382   1.616
17897WAT     H253934   7.112   1.281   1.592
17898WAT      O53935   1.503   3.923   0.702
17898WAT     H153936   1.569   3.924   0.626
17898WAT     H253937   1.458   4.012   0.708
17899WAT      O53938   7.354   1.032   8.867
17899WAT     H153939   7.283   0.962   8.864
17899WAT     H253940   7.425   1.004   8.932
17900WAT      O53941   4.803   4.140   9.850
17900WAT     H153942   4.731   4.131   9.918
17900WAT     H253943   4.819   4.051   9.807
17901WAT      O53944   4.690   1.635   4.694
17901WAT     H153945   4.644   1.718   4.662
17901WAT     H253946   4.726   1.650   4.786
17902WAT      O53947   8.558   8.376   7.704
17902WAT     H153948   8.576   8.311   7.777
17902WAT     H253949   8.484   8.438   7.731
17903WAT      O53950   2.281   4.409   8.242
17903WAT     H153951   2.233   4.381   8.325
17903WAT     H253952   2.352   4.476   8.266
17904WAT      O53953   8.681   6.542   4.128
17904WAT     H153954   8.680   6.488   4.212
17904WAT     H253955   8.618   6.501   4.062
17905WAT      O53956   3.234   2.956   6.206
17905WAT     H153957   3.152   2.970   6.150
17905WAT     H253958   3.315   2.975   6.151
17906WAT      O53959   3.125   7.852   5.161
17906WAT     H153960   3.169   7.914   5.096
17906WAT     H253961   3.082   7.905   5.234
17907WAT      O53962   2.811   3.656   7.263
17907WAT     H153963   2.847   3.718   7.193
17907WAT     H253964   2.814   3.701   7.352
17908WAT      O53965   9.474   4.201   8.914
17908WAT     H153966   9.516   4.280   8.960
17908WAT     H253967   9.437   4.139   8.983
17909WAT      O53968   9.261   8.688   3.200
17909WAT     H153969   9.357   8.671   3.180
17909WAT     H253970   9.217   8.603   3.227
17910WAT      O53971   8.182   8.607   7.967
17910WAT     H153972   8.164   8.525   7.913
17910WAT     H253973   8.107   8.623   8.031
17911WAT      O53974   8.388   8.452   2.889
17911WAT     H153975   8.355   8.477   2.980
17911WAT     H253976   8.486   8.431   2.894
17912WAT      O53977   0.259   8.664   8.705
17912WAT     H153978   0.185   8.645   8.642
17912WAT     H253979   0.346   8.640   8.663
17913WAT      O53980   0.985   9.305   9.239
17913WAT     H153981   1.030   9.224   9.276
17913WAT     H253982   1.053   9.364   9.195
17914WAT      O53983   1.146   9.303   7.660
17914WAT     H153984   1.056   9.310   7.615
17914WAT     H253985   1.217   9.334   7.597
17915WAT      O53986   8.528   9.658   5.039
17915WAT     H153987   8.616   9.705   5.046
17915WAT     H253988   8.461   9.720   4.999
17916WAT      O53989   3.215   4.798   0.386
17916WAT     H153990   3.171   4.869   0.441
17916WAT     H253991   3.315   4.807   0.392
17917WAT      O53992   3.051   7.292   9.348
17917WAT     H153993   3.032   7.292   9.446
17917WAT     H253994   3.130   7.234   9.330
17918WAT      O53995   8.278   4.121   6.854
17918WAT     H153996   8.284   4.221   6.861
17918WAT     H253997   8.197   4.096   6.803
17919WAT      O53998   3.013   8.840   6.256
17919WAT     H153999   3.043   8.928   6.221
17919WAT     H254000   3.090   8.775   6.251
17920WAT      O54001   2.193   9.685   3.518
17920WAT     H154002   2.254   9.614   3.554
17920WAT     H254003   2.129   9.645   3.453
17921WAT      O54004   5.588   2.175   3.083
17921WAT     H154005   5.591   2.163   3.182
17921WAT     H254006   5.672   2.220   3.052
17922WAT      O54007   7.452   9.002   3.255
17922WAT     H154008   7.399   9.080   3.289
17922WAT     H254009   7.484   9.022   3.162
17923WAT      O54010   8.166   3.690   2.228
17923WAT     H154011   8.091   3.690   2.294
17923WAT     H254012   8.134   3.731   2.142
17924WAT      O54013   9.826   5.004   3.618
17924WAT     H154014   9.811   5.063   3.698
17924WAT     H254015   9.746   4.945   3.605
17925WAT      O54016   9.416   8.366   6.399
17925WAT     H154017   9.416   8.322   6.489
17925WAT     H254018   9.416   8.466   6.411
17926WAT      O54019   7.693   8.327   2.459
17926WAT     H154020   7.693   8.421   2.426
17926WAT     H254021   7.610   8.281   2.429
17927WAT      O54022   8.553   6.930   6.348
17927WAT     H154023   8.521   6.896   6.259
17927WAT     H254024   8.509   6.879   6.421
17928WAT      O54025   2.679   6.899   2.751
17928WAT     H154026   2.649   6.923   2.844
17928WAT     H254027   2.740   6.971   2.717
17929WAT      O54028   3.253   3.879   3.932
17929WAT     H154029   3.154   3.894   3.925
17929WAT     H254030   3.271   3.806   3.998
17930WAT      O54031   2.099   2.467   3.497
17930WAT     H154032   2.097   2.448   3.399
17930WAT     H254033   2.144   2.554   3.513
17931WAT      O54034   8.933   9.817   2.125
17931WAT     H154035   8.969   9.893   2.178
17931WAT     H254036   8.847   9.786   2.164
17932WAT      O54037   2.474   4.127   2.553
17932WAT     H154038   2.425   4.058   2.500
17932WAT     H254039   2.528   4.082   2.625
17933WAT      O54040   9.365   8.844   2.116
17933WAT     H154041   9.390   8.770   2.179
17933WAT     H254042   9.295   8.811   2.053
17934WAT      O54043   4.886   7.306   8.338
17934WAT     H154044   4.850   7.273   8.251
17934WAT     H254045   4.890   7.230   8.403
17935WAT      O54046   7.293   2.800   7.566
17935WAT     H154047   7.339   2.711   7.563
17935WAT     H254048   7.324   2.856   7.490
17936WAT      O54049   9.013   1.030   8.106
17936WAT     H154050   9.113   1.019   8.112
17936WAT     H254051   8.989   1.062   8.015
17937WAT      O54052   0.518   0.216   8.079
17937WAT     H154053   0.557   0.170   7.999
17937WAT     H254054   0.577   0.199   8.158
17938WAT      O54055   6.703   0.942   7.564
17938WAT     H154056   6.728   0.901   7.652
17938WAT     H254057   6.604   0.954   7.561
17939WAT      O54058   8.208   3.704   1.231
17939WAT     H154059   8.173   3.708   1.325
17939WAT     H254060   8.146   3.648   1.175
17940WAT      O54061   5.507   1.662   9.414
17940WAT     H154062   5.478   1.745   9.462
17940WAT     H254063   5.606   1.653   9.421
17941WAT      O54064   9.125   5.683   8.835
17941WAT     H154065   9.111   5.678   8.736
17941WAT     H254066   9.097   5.772   8.869
17942WAT      O54067   8.431   5.523   5.152
17942WAT     H154068   8.343   5.525   5.104
17942WAT     H254069   8.419   5.482   5.242
17943WAT      O54070   2.932   7.091   4.977
17943WAT     H154071   2.950   7.165   4.913
17943WAT     H254072   2.864   7.029   4.939
17944WAT      O54073   1.318   0.000   3.955
17944WAT     H154074   1.385   0.047   4.013
17944WAT     H254075   1.242   0.062   3.936
17945WAT      O54076   0.141   1.643   4.647
17945WAT     H154077   0.089   1.688   4.720
17945WAT     H254078   0.225   1.605   4.685
17946WAT      O54079   6.471   4.220   2.064
17946WAT     H154080   6.452   4.237   1.967
17946WAT     H254081   6.558   4.262   2.089
17947WAT      O54082   6.603   4.389   8.111
17947WAT     H154083   6.672   4.426   8.049
17947WAT     H254084   6.643   4.377   8.202
17948WAT      O54085   5.592   0.307   8.887
17948WAT     H154086   5.605   0.369   8.964
17948WAT     H254087   5.593   0.358   8.801
17949WAT      O54088   7.410   6.893   8.982
17949WAT     H154089   7.401   6.795   8.997
17949WAT     H254090   7.450   6.910   8.892
17950WAT      O54091   2.180   6.319   7.319
17950WAT     H154092   2.151   6.380   7.393
17950WAT     H254093   2.115   6.327   7.243
17951WAT      O54094   6.012   0.084   4.382
17951WAT     H154095   6.082   0.031   4.334
17951WAT     H254096   5.949   0.022   4.428
17952WAT      O54097   6.330   5.521   8.502
17952WAT     H154098   6.338   5.489   8.408
17952WAT     H254099   6.281   5.453   8.557
17953WAT      O54100   2.120   3.775   5.044
17953WAT     H154101   2.171   3.710   4.988
17953WAT     H254102   2.130   3.866   5.006
17954WAT      O54103   1.538   5.348   2.166
17954WAT     H154104   1.464   5.301   2.215
17954WAT     H254105   1.553   5.438   2.207
17955WAT      O54106   9.369   6.340   2.614
17955WAT     H154107   9.340   6.311   2.705
17955WAT     H254108   9.460   6.304   2.595
17956WAT      O54109   4.347   5.855   3.866
17956WAT     H154110   4.343   5.944   3.822
17956WAT     H254111   4.443   5.829   3.880
17957WAT      O54112   8.779   0.107   9.510
17957WAT     H154113   8.761   0.148   9.421
17957WAT     H254114   8.692   0.084   9.554
17958WAT      O54115   7.734   1.706   5.229
17958WAT     H154116   7.822   1.670   5.196
17958WAT     H254117   7.751   1.772   5.302
17959WAT      O54118   6.008   0.647   0.414
17959WAT     H154119   6.035   0.592   0.493
17959WAT     H254120   6.085   0.700   0.381
17960WAT      O54121   6.904   7.738   4.273
17960WAT     H154122   6.960   7.815   4.304
17960WAT     H254123   6.950   7.692   4.197
17961WAT      O54124   6.418   3.918   9.171
17961WAT     H154125   6.374   3.898   9.084
17961WAT     H254126   6.503   3.865   9.178
17962WAT      O54127   1.512   3.266   8.593
17962WAT     H154128   1.531   3.296   8.499
17962WAT     H254129   1.457   3.334   8.640
17963WAT      O54130   9.257   0.104   0.853
17963WAT     H154131   9.344   0.117   0.805
17963WAT     H254132   9.181   0.119   0.789
17964WAT      O54133   9.329   7.048   7.371
17964WAT     H154134   9.238   7.037   7.330
17964WAT     H254135   9.392   7.081   7.302
17965WAT      O54136   1.873   5.546   2.303
17965WAT     H154137   1.868   5.645   2.318
17965WAT     H254138   1.809   5.500   2.365
17966WAT      O54139   1.836   1.773   2.470
17966WAT     H154140   1.876   1.856   2.431
17966WAT     H254141   1.907   1.717   2.511
17967WAT      O54142   9.741   7.444   9.741
17967WAT     H154143   9.769   7.354   9.706
17967WAT     H254144   9.814   7.510   9.726
17968WAT      O54145   6.888   7.194   6.671
17968WAT     H154146   6.868   7.099   6.646
17968WAT     H254147   6.868   7.253   6.593
17969WAT      O54148   7.479   2.097   5.255
17969WAT     H154149   7.437   2.006   5.254
17969WAT     H254150   7.566   2.093   5.206
17970WAT      O54151   3.857   2.268   1.067
17970WAT     H154152   3.776   2.229   1.023
17970WAT     H254153   3.899   2.199   1.126
17971WAT      O54154   3.367   5.804   2.594
17971WAT     H154155   3.349   5.817   2.692
17971WAT     H254156   3.349   5.709   2.569
17972WAT      O54157   2.432   1.374   2.478
17972WAT     H154158   2.418   1.420   2.390
17972WAT     H254159   2.357   1.398   2.540
17973WAT      O54160   7.007   8.304   5.997
17973WAT     H154161   6.916   8.316   6.036
17973WAT     H254162   7.011   8.349   5.908
17974WAT      O54163   6.185   1.158   8.757
17974WAT     H154164   6.090   1.191   8.754
17974WAT     H254165   6.210   1.121   8.667
17975WAT      O54166   8.359   2.072   3.516
17975WAT     H154167   8.417   2.099   3.439
17975WAT     H254168   8.358   1.972   3.523
17976WAT      O54169   2.150   9.354   3.002
17976WAT     H154170   2.110   9.439   2.969
17976WAT     H254171   2.138   9.283   2.933
17977WAT      O54172   6.855   9.038   6.789
17977WAT     H154173   6.807   8.968   6.842
17977WAT     H254174   6.789   9.100   6.747
17978WAT      O54175   9.105   1.555   5.710
17978WAT     H154176   9.122   1.523   5.617
17978WAT     H254177   9.192   1.569   5.757
17979WAT      O54178   9.558   9.174   7.462
17979WAT     H154179   9.570   9.183   7.363
17979WAT     H254180   9.640   9.131   7.501
17980WAT      O54181   5.008   3.143   6.814
17980WAT     H154182   5.021   3.229   6.765
17980WAT     H254183   5.092   3.089   6.809
17981WAT      O54184   8.650   0.565   0.791
17981WAT     H154185   8.660   0.650   0.740
17981WAT     H254186   8.574   0.512   0.754
17982WAT      O54187   5.768   7.737   9.129
17982WAT     H154188   5.679   7.694   9.115
17982WAT     H254189   5.819   7.736   9.043
17983WAT      O54190   8.833   7.240   5.456
17983WAT     H154191   8.922   7.271   5.423
17983WAT     H254192   8.783   7.197   5.380
17984WAT      O54193   0.201   0.311   8.451
17984WAT     H154194   0.162   0.327   8.360
17984WAT     H254195   0.280   0.370   8.465
17985WAT      O54196   4.437   0.294   6.044
17985WAT     H154197   4.453   0.253   6.134
17985WAT     H254198   4.480   0.384   6.041
17986WAT      O54199   5.778   1.523   5.817
17986WAT     H154200   5.779   1.487   5.911
17986WAT     H254201   5.865   1.501   5.772
17987WAT      O54202   2.747   6.913   4.877
17987WAT     H154203   2.658   6.886   4.913
17987WAT     H254204   2.759   6.874   4.786
17988WAT      O54205   5.128   6.404   7.974
17988WAT     H154206   5.094   6.313   7.952
17988WAT     H254207   5.138   6.457   7.889
17989WAT      O54208   1.352   3.780   6.192
17989WAT     H154209   1.321   3.847   6.123
17989WAT     H254210   1.281   3.769   6.261
17990WAT      O54211   9.834   7.461   0.589
17990WAT     H154212   9.772   7.391   0.624
17990WAT     H254213   9.916   7.418   0.553
17991WAT      O54214   7.976   4.611   6.601
17991WAT     H154215   7.914   4.565   6.538
17991WAT     H254216   7.928   4.689   6.643
17992WAT      O54217   0.968   1.604   2.376
17992WAT     H154218   0.983   1.512   2.340
17992WAT     H254219   0.977   1.671   2.302
17993WAT      O54220   1.693   7.652   3.072
17993WAT     H154221   1.771   7.681   3.017
17993WAT     H254222   1.635   7.731   3.093
17994WAT      O54223   6.594   6.407   6.545
17994WAT     H154224   6.652   6.376   6.620
17994WAT     H254225   6.503   6.427   6.580
17995WAT      O54226   1.185   8.511   5.831
17995WAT     H154227   1.214   8.498   5.925
17995WAT     H254228   1.128   8.593   5.824
17996WAT      O54229   3.409   4.090   3.583
17996WAT     H154230   3.316   4.125   3.594
17996WAT     H254231   3.407   3.990   3.581
17997WAT      O54232   1.597   4.583   6.005
17997WAT     H154233   1.503   4.617   6.001
17997WAT     H254234   1.637   4.583   5.913
17998WAT      O54235   6.954   9.088   7.538
17998WAT     H154236   6.957   9.030   7.457
17998WAT     H254237   6.920   9.035   7.616
17999WAT      O54238   2.355   2.738   9.754
17999WAT     H154239   2.437   2.717   9.807
17999WAT     H254240   2.347   2.675   9.678
18000WAT      O54241   5.188   3.387   0.716
18000WAT     H154242   5.128   3.390   0.637
18000WAT     H254243   5.210   3.291   0.737
18001WAT      O54244   0.306   3.193   8.527
18001WAT     H154245   0.259   3.116   8.571
18001WAT     H254246   0.273   3.279   8.566
18002WAT      O54247   4.184   3.719   1.846
18002WAT     H154248   4.103   3.755   1.799
18002WAT     H254249   4.251   3.791   1.856
18003WAT      O54250   7.917   5.656   0.402
18003WAT     H154251   7.852   5.731   0.397
18003WAT     H254252   7.993   5.681   0.462
18004WAT      O54253   7.225   3.754   8.355
18004WAT     H154254   7.158   3.776   8.283
18004WAT     H254255   7.289   3.686   8.320
18005WAT      O54256   6.577   7.470   1.876
18005WAT     H154257   6.634   7.391   1.857
18005WAT     H254258   6.570   7.484   1.975
18006WAT      O54259   5.257   3.203   1.536
18006WAT     H154260   5.304   3.204   1.624
18006WAT     H254261   5.181   3.268   1.538
18007WAT      O54262   6.856   9.701   1.013
18007WAT     H154263   6.828   9.797   1.006
18007WAT     H254264   6.945   9.695   1.060
18008WAT      O54265   9.410   6.191   2.245
18008WAT     H154266   9.417   6.160   2.150
18008WAT     H254267   9.322   6.163   2.282
18009WAT      O54268   1.183   0.128   2.393
18009WAT     H154269   1.234   0.066   2.334
18009WAT     H254270   1.087   0.102   2.393
18010WAT      O54271   2.758   6.948   6.187
18010WAT     H154272   2.744   7.010   6.264
18010WAT     H254273   2.687   6.878   6.187
18011WAT      O54274   7.036   4.509   6.625
18011WAT     H154275   7.020   4.496   6.723
18011WAT     H254276   6.982   4.586   6.592
18012WAT      O54277   1.876   4.183   3.887
18012WAT     H154278   1.961   4.224   3.920
18012WAT     H254279   1.887   4.084   3.881
18013WAT      O54280   1.358   3.387   5.612
18013WAT     H154281   1.432   3.429   5.558
18013WAT     H254282   1.274   3.440   5.600
18014WAT      O54283   5.327   6.643   4.145
18014WAT     H154284   5.406   6.705   4.145
18014WAT     H254285   5.254   6.683   4.200
18015WAT      O54286   7.157   4.806   4.631
18015WAT     H154287   7.071   4.759   4.611
18015WAT     H254288   7.153   4.899   4.595
18016WAT      O54289   6.141   9.189   7.481
18016WAT     H154290   6.112   9.235   7.565
18016WAT     H254291   6.090   9.225   7.403
18017WAT      O54292   4.231   7.956   6.732
18017WAT     H154293   4.248   7.921   6.640
18017WAT     H254294   4.133   7.954   6.751
18018WAT      O54295   8.001   1.241   9.136
18018WAT     H154296   7.907   1.220   9.111
18018WAT     H254297   8.029   1.186   9.215
18019WAT      O54298   4.231   4.452   3.060
18019WAT     H154299   4.140   4.410   3.066
18019WAT     H254300   4.241   4.497   2.972
18020WAT      O54301   1.301   0.894   7.926
18020WAT     H154302   1.318   0.987   7.894
18020WAT     H254303   1.236   0.896   8.002
18021WAT      O54304   7.835   8.322   3.288
18021WAT     H154305   7.870   8.404   3.243
18021WAT     H254306   7.735   8.318   3.276
18022WAT      O54307   6.130   1.461   1.325
18022WAT     H154308   6.214   1.508   1.349
18022WAT     H254309   6.152   1.374   1.281
18023WAT      O54310   9.261   6.397   9.354
18023WAT     H154311   9.266   6.303   9.387
18023WAT     H254312   9.167   6.429   9.357
18024WAT      O54313   5.755   1.271   8.020
18024WAT     H154314   5.677   1.310   8.069
18024WAT     H254315   5.734   1.266   7.922
18025WAT      O54316   1.639   7.623   1.791
18025WAT     H154317   1.707   7.550   1.800
18025WAT     H254318   1.559   7.588   1.742
18026WAT      O54319   2.302   7.171   0.799
18026WAT     H154320   2.219   7.122   0.772
18026WAT     H254321   2.307   7.258   0.749
18027WAT      O54322   5.830   3.388   5.192
18027WAT     H154323   5.819   3.289   5.182
18027WAT     H254324   5.764   3.422   5.259
18028WAT      O54325   7.727   8.512   1.516
18028WAT     H154326   7.721   8.584   1.446
18028WAT     H254327   7.695   8.426   1.478
18029WAT      O54328   0.334   0.844   8.653
18029WAT     H154329   0.309   0.938   8.676
18029WAT     H254330   0.378   0.801   8.732
18030WAT      O54331   4.407   2.665   1.784
18030WAT     H154332   4.428   2.659   1.882
18030WAT     H254333   4.433   2.579   1.740
18031WAT      O54334   4.314   8.027   8.066
18031WAT     H154335   4.308   7.966   7.987
18031WAT     H254336   4.319   7.973   8.150
18032WAT      O54337   8.770   7.059   6.203
18032WAT     H154338   8.827   7.095   6.276
18032WAT     H254339   8.681   7.033   6.240
18033WAT      O54340   6.205   0.125   2.401
18033WAT     H154341   6.187   0.137   2.303
18033WAT     H254342   6.202   0.028   2.424
18034WAT      O54343   0.628   4.715   8.765
18034WAT     H154344   0.625   4.626   8.809
18034WAT     H254345   0.570   4.780   8.815
18035WAT      O54346   1.217   2.833   3.822
18035WAT     H154347   1.251   2.769   3.891
18035WAT     H254348   1.198   2.921   3.865
18036WAT      O54349   1.222   6.295   0.594
18036WAT     H154350   1.225   6.232   0.672
18036WAT     H254351   1.291   6.269   0.527
18037WAT      O54352   2.216   6.366   4.969
18037WAT     H154353   2.199   6.271   4.944
18037WAT     H254354   2.307   6.375   5.008
18038WAT      O54355   0.976   7.908   4.666
18038WAT     H154356   0.878   7.915   4.651
18038WAT     H254357   0.998   7.934   4.761
18039WAT      O54358   6.310   9.026   7.737
18039WAT     H154359   6.370   9.098   7.774
18039WAT     H254360   6.307   9.034   7.638
18040WAT      O54361   3.871   1.109   1.260
18040WAT     H154362   3.794   1.168   1.287
18040WAT     H254363   3.882   1.036   1.327
18041WAT      O54364   8.101   1.949   9.764
18041WAT     H154365   8.137   2.021   9.705
18041WAT     H254366   8.057   1.990   9.844
18042WAT      O54367   4.464   6.165   0.622
18042WAT     H154368   4.403   6.244   0.632
18042WAT     H254369   4.479   6.147   0.525
18043WAT      O54370   3.189   5.063   4.241
18043WAT     H154371   3.279   5.021   4.256
18043WAT     H254372   3.199   5.162   4.240
18044WAT      O54373   7.185   4.707   5.467
18044WAT     H154374   7.175   4.728   5.565
18044WAT     H254375   7.220   4.613   5.458
18045WAT      O54376   4.708   5.109   8.943
18045WAT     H154377   4.739   5.202   8.923
18045WAT     H254378   4.746   5.046   8.874
18046WAT      O54379   2.247   8.642   0.219
18046WAT     H154380   2.183   8.689   0.157
18046WAT     H254381   2.198   8.613   0.301
18047WAT      O54382   3.499   8.922   6.926
18047WAT     H154383   3.518   9.009   6.971
18047WAT     H254384   3.585   8.878   6.900
18048WAT      O54385   1.707   8.434   5.769
18048WAT     H154386   1.737   8.484   5.850
18048WAT     H254387   1.624   8.382   5.791
18049WAT      O54388   5.164   2.555   0.347
18049WAT     H154389   5.147   2.578   0.251
18049WAT     H254390   5.167   2.639   0.401
18050WAT      O54391   1.153   4.147   1.361
18050WAT     H154392   1.225   4.202   1.318
18050WAT     H254393   1.194   4.079   1.422
18051WAT      O54394   9.153   1.548   5.412
18051WAT     H154395   9.097   1.629   5.429
18051WAT     H254396   9.210   1.563   5.331
18052WAT      O54397   2.828   5.787   0.312
18052WAT     H154398   2.757   5.773   0.382
18052WAT     H254399   2.826   5.712   0.247
18053WAT      O54400   4.493   7.957   9.696
18053WAT     H154401   4.498   7.917   9.787
18053WAT     H254402   4.584   7.988   9.669
18054WAT      O54403   0.049   9.420   5.507
18054WAT     H154404   0.044   9.353   5.432
18054WAT     H254405  -0.039   9.425   5.552
18055WAT      O54406   6.474   2.055   5.636
18055WAT     H154407   6.415   2.134   5.625
18055WAT     H254408   6.452   2.009   5.722
18056WAT      O54409   7.213   0.310   0.441
18056WAT     H154410   7.194   0.214   0.464
18056WAT     H254411   7.126   0.357   0.423
18057WAT      O54412   5.188   9.091   1.716
18057WAT     H154413   5.110   9.056   1.664
18057WAT     H254414   5.212   9.183   1.684
18058WAT      O54415   5.895   5.068   0.197
18058WAT     H154416   5.896   5.161   0.162
18058WAT     H254417   5.806   5.050   0.240
18059WAT      O54418   8.223   2.293   3.409
18059WAT     H154419   8.155   2.329   3.473
18059WAT     H254420   8.280   2.225   3.455
18060WAT      O54421   5.339   4.641   9.878
18060WAT     H154422   5.390   4.684   9.952
18060WAT     H254423   5.247   4.680   9.875
18061WAT      O54424   1.700   5.048   4.766
18061WAT     H154425   1.681   5.145   4.751
18061WAT     H254426   1.775   5.038   4.832
18062WAT      O54427   0.242   2.949   5.337
18062WAT     H154428   0.338   2.936   5.312
18062WAT     H254429   0.183   2.920   5.261
18063WAT      O54430   2.995   9.157   2.853
18063WAT     H154431   3.000   9.253   2.826
18063WAT     H254432   2.988   9.151   2.953
18064WAT      O54433   3.753   9.052   1.031
18064WAT     H154434   3.792   9.072   0.941
18064WAT     H254435   3.826   9.044   1.099
18065WAT      O54436   1.662   6.004   6.647
18065WAT     H154437   1.604   5.974   6.722
18065WAT     H254438   1.708   6.089   6.672
18066WAT      O54439   4.406   8.844   3.654
18066WAT     H154440   4.441   8.907   3.724
18066WAT     H254441   4.349   8.895   3.590
18067WAT      O54442   1.092   1.294   8.840
18067WAT     H154443   1.123   1.309   8.934
18067WAT     H254444   1.028   1.366   8.814
18068WAT      O54445   7.390   6.130   1.115
18068WAT     H154446   7.323   6.202   1.097
18068WAT     H254447   7.457   6.127   1.041
18069WAT      O54448   4.473   7.367   2.160
18069WAT     H154449   4.521   7.369   2.248
18069WAT     H254450   4.406   7.441   2.157
18070WAT      O54451   9.427   1.843   3.047
18070WAT     H154452   9.512   1.793   3.065
18070WAT     H254453   9.383   1.806   2.966
18071WAT      O54454   5.002   2.383   7.487
18071WAT     H154455   5.047   2.397   7.399
18071WAT     H254456   4.966   2.290   7.492
18072WAT      O54457   0.459   6.997   5.297
18072WAT     H154458   0.558   7.009   5.295
18072WAT     H254459   0.423   7.034   5.382
18073WAT      O54460   1.769   6.052   6.961
18073WAT     H154461   1.691   6.113   6.964
18073WAT     H254462   1.740   5.958   6.981
18074WAT      O54463   2.000   8.396   3.947
18074WAT     H154464   2.018   8.310   3.997
18074WAT     H254465   1.951   8.375   3.862
18075WAT      O54466   4.515   9.106   7.997
18075WAT     H154467   4.593   9.168   8.002
18075WAT     H254468   4.519   9.054   7.912
18076WAT      O54469   7.090   5.931   8.936
18076WAT     H154470   7.032   5.874   8.878
18076WAT     H254471   7.135   6.001   8.881
18077WAT      O54472   6.257   7.294   2.583
18077WAT     H154473   6.356   7.297   2.573
18077WAT     H254474   6.233   7.228   2.654
18078WAT      O54475   1.793   7.553   5.933
18078WAT     H154476   1.842   7.607   5.864
18078WAT     H254477   1.801   7.598   6.022
18079WAT      O54478   7.359   1.404   5.758
18079WAT     H154479   7.332   1.489   5.803
18079WAT     H254480   7.455   1.384   5.779
18080WAT      O54481   4.577   4.119   5.838
18080WAT     H154482   4.487   4.093   5.804
18080WAT     H254483   4.605   4.206   5.797
18081WAT      O54484   8.325   9.780   9.873
18081WAT     H154485   8.292   9.699   9.923
18081WAT     H254486   8.423   9.770   9.856
18082WAT      O54487   8.228   6.176   3.972
18082WAT     H154488   8.246   6.106   4.041
18082WAT     H254489   8.147   6.149   3.919
18083WAT      O54490   3.447   9.799   5.504
18083WAT     H154491   3.354   9.835   5.501
18083WAT     H254492   3.449   9.719   5.564
18084WAT      O54493   6.048   7.114   8.301
18084WAT     H154494   6.084   7.027   8.332
18084WAT     H254495   5.959   7.100   8.258
18085WAT      O54496   2.569   9.552   1.368
18085WAT     H154497   2.600   9.639   1.407
18085WAT     H254498   2.565   9.483   1.440
18086WAT      O54499   0.048   2.501   6.976
18086WAT     H154500   0.108   2.562   7.027
18086WAT     H254501   0.089   2.482   6.886
18087WAT      O54502   7.595   4.638   1.270
18087WAT     H154503   7.543   4.719   1.298
18087WAT     H254504   7.542   4.556   1.291
18088WAT      O54505   4.898   1.239   1.368
18088WAT     H154506   4.890   1.313   1.435
18088WAT     H254507   4.972   1.259   1.305
18089WAT      O54508   2.600   5.314   8.494
18089WAT     H154509   2.661   5.378   8.542
18089WAT     H254510   2.511   5.314   8.538
18090WAT      O54511   8.551   1.056   6.386
18090WAT     H154512   8.463   1.037   6.342
18090WAT     H254513   8.539   1.057   6.485
18091WAT      O54514   5.109   9.527   6.472
18091WAT     H154515   5.190   9.472   6.454
18091WAT     H254516   5.122   9.618   6.433
18092WAT      O54517   1.852   4.209   8.980
18092WAT     H154518   1.878   4.149   8.904
18092WAT     H254519   1.755   4.235   8.970
18093WAT      O54520   7.863   1.507   1.273
18093WAT     H154521   7.797   1.437   1.248
18093WAT     H254522   7.953   1.465   1.284
18094WAT      O54523   4.005   5.100   6.548
18094WAT     H154524   4.045   5.039   6.480
18094WAT     H254525   3.943   5.164   6.503
18095WAT      O54526   4.399   3.506   5.014
18095WAT     H154527   4.419   3.603   5.026
18095WAT     H254528   4.477   3.460   4.972
18096WAT      O54529   8.862   6.924   5.787
18096WAT     H154530   8.884   6.913   5.884
18096WAT     H254531   8.944   6.906   5.732
18097WAT      O54532   3.122   6.466   1.297
18097WAT     H154533   3.058   6.455   1.221
18097WAT     H254534   3.072   6.469   1.383
18098WAT      O54535   4.681   2.247   0.835
18098WAT     H154536   4.711   2.340   0.859
18098WAT     H254537   4.643   2.247   0.743
18099WAT      O54538   2.482   6.865   9.238
18099WAT     H154539   2.452   6.934   9.304
18099WAT     H254540   2.404   6.838   9.180
18100WAT      O54541   2.836   5.199   5.853
18100WAT     H154542   2.870   5.167   5.941
18100WAT     H254543   2.805   5.294   5.862
18101WAT      O54544   4.060   4.918   1.955
18101WAT     H154545   4.073   4.948   2.050
18101WAT     H254546   4.141   4.866   1.926
18102WAT      O54547   7.964   0.687   5.895
18102WAT     H154548   7.950   0.590   5.879
18102WAT     H254549   7.928   0.739   5.817
18103WAT      O54550   4.597   7.960   7.816
18103WAT     H154551   4.625   8.029   7.749
18103WAT     H254552   4.654   7.879   7.806
18104WAT      O54553   8.452   0.733   4.463
18104WAT     H154554   8.386   0.712   4.390
18104WAT     H254555   8.541   0.752   4.423
18105WAT      O54556   6.209   6.237   6.897
18105WAT     H154557   6.241   6.331   6.893
18105WAT     H254558   6.109   6.235   6.891
18106WAT      O54559   4.015   0.717   1.379
18106WAT     H154560   4.044   0.629   1.416
18106WAT     H254561   4.056   0.730   1.288
18107WAT      O54562   7.808   7.172   0.401
18107WAT     H154563   7.893   7.126   0.379
18107WAT     H254564   7.791   7.167   0.499
18108WAT      O54565   7.852   8.728   5.200
18108WAT     H154566   7.862   8.792   5.276
18108WAT     H254567   7.930   8.737   5.138
18109WAT      O54568   9.821   3.917   0.776
18109WAT     H154569   9.825   3.998   0.834
18109WAT     H254570   9.811   3.944   0.681
18110WAT      O54571   0.787   3.577   3.507
18110WAT     H154572   0.773   3.667   3.548
18110WAT     H254573   0.737   3.508   3.558
18111WAT      O54574   0.806   2.285   7.593
18111WAT     H154575   0.820   2.232   7.509
18111WAT     H254576   0.802   2.382   7.571
18112WAT      O54577   3.500   7.518   7.564
18112WAT     H154578   3.447   7.493   7.645
18112WAT     H254579   3.596   7.529   7.589
18113WAT      O54580   2.361   1.540   8.466
18113WAT     H154581   2.375   1.616   8.529
18113WAT     H254582   2.449   1.504   8.436
18114WAT      O54583   8.171   2.925   7.575
18114WAT     H154584   8.219   2.844   7.607
18114WAT     H254585   8.179   2.998   7.642
18115WAT      O54586   2.775   1.587   4.834
18115WAT     H154587   2.676   1.586   4.852
18115WAT     H254588   2.808   1.492   4.830
18116WAT      O54589   3.758   2.877   5.298
18116WAT     H154590   3.713   2.789   5.316
18116WAT     H254591   3.707   2.926   5.228
18117WAT      O54592   9.728   8.208   6.226
18117WAT     H154593   9.748   8.221   6.129
18117WAT     H254594   9.798   8.251   6.281
18118WAT      O54595   9.723   8.809   2.394
18118WAT     H154596   9.752   8.811   2.299
18118WAT     H254597   9.776   8.877   2.446
18119WAT      O54598   7.603   2.774   1.810
18119WAT     H154599   7.647   2.840   1.870
18119WAT     H254600   7.662   2.694   1.798
18120WAT      O54601   8.437   9.305   2.546
18120WAT     H154602   8.371   9.240   2.585
18120WAT     H254603   8.461   9.277   2.454
18121WAT      O54604   6.377   6.884   0.019
18121WAT     H154605   6.368   6.784   0.016
18121WAT     H254606   6.455   6.911  -0.037
18122WAT      O54607   4.234   8.653   7.302
18122WAT     H154608   4.248   8.748   7.330
18122WAT     H254609   4.140   8.640   7.270
18123WAT      O54610   9.801   7.090   7.672
18123WAT     H154611   9.821   7.182   7.639
18123WAT     H254612   9.715   7.058   7.632
18124WAT      O54613   4.016   1.880   1.948
18124WAT     H154614   3.952   1.953   1.925
18124WAT     H254615   3.967   1.794   1.957
18125WAT      O54616   9.063   5.395   7.047
18125WAT     H154617   9.093   5.431   6.959
18125WAT     H254618   9.136   5.403   7.114
18126WAT      O54619   1.136   7.457   2.995
18126WAT     H154620   1.102   7.402   3.072
18126WAT     H254621   1.134   7.401   2.911
18127WAT      O54622   4.743   6.768   1.973
18127WAT     H154623   4.680   6.844   1.957
18127WAT     H254624   4.833   6.803   1.996
18128WAT      O54625   9.204   8.912   1.763
18128WAT     H154626   9.255   8.991   1.798
18128WAT     H254627   9.210   8.836   1.828
18129WAT      O54628   2.562   5.769   2.855
18129WAT     H154629   2.488   5.825   2.892
18129WAT     H254630   2.588   5.700   2.923
18130WAT      O54631   6.717   3.480   3.387
18130WAT     H154632   6.783   3.541   3.430
18130WAT     H254633   6.761   3.393   3.365
18131WAT      O54634   4.330   3.189   1.767
18131WAT     H154635   4.261   3.120   1.791
18131WAT     H254636   4.402   3.190   1.836
18132WAT      O54637   2.505   3.367   1.445
18132WAT     H154638   2.601   3.391   1.434
18132WAT     H254639   2.475   3.389   1.538
18133WAT      O54640   9.312   5.547   4.824
18133WAT     H154641   9.267   5.636   4.834
18133WAT     H254642   9.400   5.549   4.871
18134WAT      O54643   5.787   5.117   8.505
18134WAT     H154644   5.721   5.043   8.489
18134WAT     H254645   5.769   5.158   8.594
18135WAT      O54646   6.965   1.452   1.174
18135WAT     H154647   6.991   1.512   1.098
18135WAT     H254648   6.988   1.497   1.260
18136WAT      O54649   4.818   5.238   6.954
18136WAT     H154650   4.829   5.321   7.010
18136WAT     H254651   4.823   5.157   7.012
18137WAT      O54652   9.151   7.152   7.939
18137WAT     H154653   9.068   7.205   7.923
18137WAT     H254654   9.140   7.059   7.904
18138WAT      O54655   9.816   0.127   8.336
18138WAT     H154656   9.913   0.103   8.331
18138WAT     H254657   9.765   0.051   8.378
18139WAT      O54658   9.133   9.073   0.800
18139WAT     H154659   9.182   9.155   0.829
18139WAT     H254660   9.190   8.992   0.817
18140WAT      O54661   7.038   4.417   3.693
18140WAT     H154662   7.071   4.326   3.665
18140WAT     H254663   7.085   4.445   3.777
18141WAT      O54664   3.156   5.854   6.393
18141WAT     H154665   3.251   5.824   6.379
18141WAT     H254666   3.155   5.941   6.442
18142WAT      O54667   3.013   4.169   2.316
18142WAT     H154668   3.049   4.246   2.368
18142WAT     H254669   3.073   4.090   2.327
18143WAT      O54670   3.712   1.111   2.229
18143WAT     H154671   3.652   1.049   2.279
18143WAT     H254672   3.668   1.139   2.143
18144WAT      O54673   4.124   6.674   0.447
18144WAT     H154674   4.101   6.689   0.351
18144WAT     H254675   4.040   6.673   0.501
18145WAT      O54676   2.260   7.644   7.733
18145WAT     H154677   2.301   7.636   7.824
18145WAT     H254678   2.293   7.570   7.675
18146WAT      O54679   5.544   1.899   0.442
18146WAT     H154680   5.572   1.990   0.414
18146WAT     H254681   5.624   1.849   0.476
18147WAT      O54682   4.642   7.753   0.726
18147WAT     H154683   4.686   7.699   0.798
18147WAT     H254684   4.704   7.764   0.649
18148WAT      O54685   9.625   4.807   2.889
18148WAT     H154686   9.687   4.730   2.875
18148WAT     H254687   9.544   4.795   2.832
18149WAT      O54688   7.051   5.919   9.220
18149WAT     H154689   7.015   5.826   9.209
18149WAT     H254690   7.081   5.953   9.131
18150WAT      O54691   7.075   6.185   0.882
18150WAT     H154692   7.013   6.106   0.889
18150WAT     H254693   7.108   6.208   0.973
18151WAT      O54694   3.330   8.789   8.477
18151WAT     H154695   3.367   8.696   8.480
18151WAT     H254696   3.235   8.787   8.508
18152WAT      O54697   0.870   1.123   2.962
18152WAT     H154698   0.824   1.083   2.883
18152WAT     H254699   0.957   1.163   2.932
18153WAT      O54700   2.902   4.899   5.461
18153WAT     H154701   2.927   4.844   5.381
18153WAT     H254702   2.830   4.964   5.436
18154WAT      O54703   0.222   0.459   7.278
18154WAT     H154704   0.237   0.361   7.290
18154WAT     H254705   0.281   0.492   7.203
18155WAT      O54706   4.480   9.217   4.673
18155WAT     H154707   4.402   9.163   4.641
18155WAT     H254708   4.457   9.261   4.760
18156WAT      O54709   8.801   7.586   7.248
18156WAT     H154710   8.830   7.516   7.183
18156WAT     H254711   8.846   7.569   7.336
18157WAT      O54712   1.348   1.599   3.076
18157WAT     H154713   1.402   1.628   2.997
18157WAT     H254714   1.405   1.602   3.158
18158WAT      O54715   1.878   2.139   9.466
18158WAT     H154716   1.901   2.123   9.562
18158WAT     H254717   1.915   2.065   9.410
18159WAT      O54718   1.107   1.404   0.932
18159WAT     H154719   1.066   1.361   1.013
18159WAT     H254720   1.056   1.487   0.910
18160WAT      O54721   4.314   6.642   2.650
18160WAT     H154722   4.292   6.733   2.614
18160WAT     H254723   4.413   6.633   2.658
18161WAT      O54724   1.067   2.622   4.727
18161WAT     H154725   1.030   2.604   4.818
18161WAT     H254726   1.118   2.708   4.728
18162WAT      O54727   8.756   9.153   3.520
18162WAT     H154728   8.818   9.228   3.543
18162WAT     H254729   8.768   9.078   3.586
18163WAT      O54730   2.355   1.870   3.821
18163WAT     H154731   2.366   1.782   3.774
18163WAT     H254732   2.429   1.931   3.793
18164WAT      O54733   0.872   7.487   0.448
18164WAT     H154734   0.866   7.531   0.538
18164WAT     H254735   0.905   7.393   0.458
18165WAT      O54736   2.777   1.010   0.811
18165WAT     H154737   2.843   0.963   0.869
18165WAT     H254738   2.711   0.943   0.775
18166WAT      O54739   4.494   0.586   8.296
18166WAT     H154740   4.426   0.535   8.350
18166WAT     H254741   4.489   0.555   8.201
18167WAT      O54742   4.615   4.897   4.767
18167WAT     H154743   4.590   4.826   4.832
18167WAT     H254744   4.572   4.879   4.679
18168WAT      O54745   2.175   6.089   8.971
18168WAT     H154746   2.131   6.000   8.988
18168WAT     H254747   2.210   6.125   9.058
18169WAT      O54748   0.362   1.918   0.430
18169WAT     H154749   0.361   1.866   0.516
18169WAT     H254750   0.431   1.990   0.436
18170WAT      O54751   2.061   2.486   5.933
18170WAT     H154752   2.095   2.399   5.969
18170WAT     H254753   2.095   2.561   5.990
18171WAT      O54754   9.760   5.976   8.743
18171WAT     H154755   9.770   5.983   8.842
18171WAT     H254756   9.704   6.052   8.710
18172WAT      O54757   3.228   1.313   7.529
18172WAT     H154758   3.190   1.386   7.586
18172WAT     H254759   3.322   1.295   7.557
18173WAT      O54760   6.114   1.571   2.470
18173WAT     H154761   6.091   1.652   2.416
18173WAT     H254762   6.123   1.596   2.566
18174WAT      O54763   5.553   5.972   4.826
18174WAT     H154764   5.471   5.998   4.776
18174WAT     H254765   5.633   6.012   4.781
18175WAT      O54766   6.780   7.024   4.985
18175WAT     H154767   6.705   6.960   4.968
18175WAT     H254768   6.862   6.972   5.010
18176WAT      O54769   9.455   8.788   9.507
18176WAT     H154770   9.447   8.878   9.550
18176WAT     H254771   9.491   8.799   9.414
18177WAT      O54772   8.386   7.770   9.197
18177WAT     H154773   8.374   7.756   9.099
18177WAT     H254774   8.390   7.868   9.217
18178WAT      O54775   0.355   7.434   3.470
18178WAT     H154776   0.266   7.480   3.468
18178WAT     H254777   0.398   7.441   3.380
18179WAT      O54778   4.295   7.835   8.269
18179WAT     H154779   4.236   7.829   8.350
18179WAT     H254780   4.256   7.780   8.195
18180WAT      O54781   1.555   4.466   9.488
18180WAT     H154782   1.523   4.534   9.554
18180WAT     H254783   1.509   4.379   9.504
18181WAT      O54784   6.925   9.281   7.042
18181WAT     H154785   6.977   9.201   7.012
18181WAT     H254786   6.971   9.323   7.121
18182WAT      O54787   8.916   1.461   2.428
18182WAT     H154788   8.820   1.453   2.400
18182WAT     H254789   8.975   1.432   2.353
18183WAT      O54790   8.973   4.853   1.903
18183WAT     H154791   9.054   4.808   1.942
18183WAT     H254792   8.897   4.844   1.967
18184WAT      O54793   2.263   5.803   6.765
18184WAT     H154794   2.295   5.855   6.686
18184WAT     H254795   2.320   5.721   6.777
18185WAT      O54796   8.958   2.472   0.894
18185WAT     H154797   8.891   2.536   0.857
18185WAT     H254798   9.008   2.429   0.818
18186WAT      O54799   6.013   1.725   9.626
18186WAT     H154800   6.037   1.819   9.603
18186WAT     H254801   6.080   1.689   9.691
18187WAT      O54802   1.702   3.398   3.916
18187WAT     H154803   1.753   3.408   3.830
18187WAT     H254804   1.730   3.470   3.980
18188WAT      O54805   0.232   5.001   3.943
18188WAT     H154806   0.295   4.966   4.013
18188WAT     H254807   0.263   4.972   3.853
18189WAT      O54808   4.098   7.105   9.699
18189WAT     H154809   4.069   7.025   9.751
18189WAT     H254810   4.141   7.076   9.613
18190WAT      O54811   7.362   6.449   7.004
18190WAT     H154812   7.298   6.432   6.930
18190WAT     H254813   7.357   6.545   7.031
18191WAT      O54814   8.027   4.697   5.076
18191WAT     H154815   8.097   4.679   5.144
18191WAT     H254816   7.948   4.739   5.120
18192WAT      O54817   5.454   1.628   9.716
18192WAT     H154818   5.541   1.675   9.723
18192WAT     H254819   5.458   1.561   9.641
18193WAT      O54820   0.166   5.687   5.018
18193WAT     H154821   0.237   5.740   4.971
18193WAT     H254822   0.076   5.724   4.995
18194WAT      O54823   5.012   3.441   2.086
18194WAT     H154824   5.072   3.424   2.008
18194WAT     H254825   4.956   3.360   2.104
18195WAT      O54826   0.172   1.436   5.526
18195WAT     H154827   0.111   1.516   5.527
18195WAT     H254828   0.245   1.450   5.592
18196WAT      O54829   7.938   5.930   4.769
18196WAT     H154830   7.961   6.018   4.727
18196WAT     H254831   7.839   5.921   4.778
18197WAT      O54832   2.566   9.280   5.010
18197WAT     H154833   2.549   9.376   5.030
18197WAT     H254834   2.485   9.226   5.035
18198WAT      O54835   6.969   3.785   9.339
18198WAT     H154836   6.870   3.777   9.335
18198WAT     H254837   7.011   3.699   9.309
18199WAT      O54838   7.884   1.967   1.347
18199WAT     H154839   7.823   2.035   1.388
18199WAT     H254840   7.976   1.979   1.384
18200WAT      O54841   5.507   7.102   3.248
18200WAT     H154842   5.470   7.012   3.223
18200WAT     H254843   5.607   7.099   3.246
18201WAT      O54844   6.303   7.205   7.697
18201WAT     H154845   6.244   7.204   7.778
18201WAT     H254846   6.257   7.254   7.623
18202WAT      O54847   4.279   5.503   8.660
18202WAT     H154848   4.276   5.404   8.646
18202WAT     H254849   4.214   5.547   8.598
18203WAT      O54850   1.066   7.397   2.008
18203WAT     H154851   1.043   7.347   2.092
18203WAT     H254852   1.005   7.368   1.934
18204WAT      O54853   1.317   7.066   6.313
18204WAT     H154854   1.295   7.066   6.215
18204WAT     H254855   1.379   7.142   6.333
18205WAT      O54856   1.195   3.376   3.252
18205WAT     H154857   1.172   3.357   3.157
18205WAT     H254858   1.223   3.471   3.262
18206WAT      O54859   8.809   5.418   1.705
18206WAT     H154860   8.797   5.329   1.661
18206WAT     H254861   8.732   5.478   1.681
18207WAT      O54862   2.090   8.465   2.131
18207WAT     H154863   2.111   8.552   2.175
18207WAT     H254864   2.170   8.433   2.081
18208WAT      O54865   5.473   6.410   2.909
18208WAT     H154866   5.485   6.314   2.886
18208WAT     H254867   5.540   6.437   2.979
18209WAT      O54868   7.284   1.963   3.724
18209WAT     H154869   7.358   1.912   3.767
18209WAT     H254870   7.252   2.034   3.786
18210WAT      O54871   5.168   6.562   3.444
18210WAT     H154872   5.101   6.636   3.437
18210WAT     H254873   5.128   6.477   3.409
18211WAT      O54874   6.598   3.349   5.513
18211WAT     H154875   6.660   3.385   5.443
18211WAT     H254876   6.611   3.399   5.598
18212WAT      O54877   9.283   9.373   2.455
18212WAT     H154878   9.359   9.372   2.520
18212WAT     H254879   9.210   9.432   2.490
18213WAT      O54880   6.213   2.898   7.143
18213WAT     H154881   6.272   2.977   7.127
18213WAT     H254882   6.131   2.905   7.086
18214WAT      O54883   1.155   6.163   8.338
18214WAT     H154884   1.221   6.211   8.396
18214WAT     H254885   1.095   6.106   8.395
18215WAT      O54886   7.361   5.231   5.105
18215WAT     H154887   7.288   5.197   5.046
18215WAT     H254888   7.434   5.270   5.049
18216WAT      O54889   7.127   4.915   0.521
18216WAT     H154890   7.197   4.846   0.539
18216WAT     H254891   7.063   4.881   0.452
18217WAT      O54892   2.661   4.753   2.901
18217WAT     H154893   2.665   4.764   3.000
18217WAT     H254894   2.738   4.696   2.871
18218WAT      O54895   2.957   5.379   2.150
18218WAT     H154896   3.013   5.459   2.172
18218WAT     H254897   2.863   5.395   2.180
18219WAT      O54898   5.332   3.688   6.342
18219WAT     H154899   5.408   3.638   6.384
18219WAT     H254900   5.338   3.679   6.242
18220WAT      O54901   6.954   2.525   7.566
18220WAT     H154902   7.011   2.472   7.504
18220WAT     H254903   6.942   2.617   7.530
18221WAT      O54904   6.815   2.250   2.075
18221WAT     H154905   6.818   2.281   1.980
18221WAT     H254906   6.879   2.304   2.130
18222WAT      O54907   5.405   6.302   2.577
18222WAT     H154908   5.501   6.323   2.590
18222WAT     H254909   5.361   6.376   2.526
18223WAT      O54910   4.741   7.537   4.391
18223WAT     H154911   4.817   7.584   4.346
18223WAT     H254912   4.680   7.499   4.322
18224WAT      O54913   6.172   2.706   0.222
18224WAT     H154914   6.173   2.622   0.276
18224WAT     H254915   6.139   2.686   0.130
18225WAT      O54916   2.783   4.793   8.303
18225WAT     H154917   2.737   4.784   8.392
18225WAT     H254918   2.850   4.867   8.308
18226WAT      O54919   5.429   2.924   7.962
18226WAT     H154920   5.455   3.011   7.920
18226WAT     H254921   5.465   2.920   8.055
18227WAT      O54922   9.105   3.931   0.406
18227WAT     H154923   9.116   4.014   0.350
18227WAT     H254924   9.110   3.850   0.348
18228WAT      O54925   6.403   5.923   6.048
18228WAT     H154926   6.340   5.852   6.079
18228WAT     H254927   6.497   5.893   6.064
18229WAT      O54928   5.059   1.429   6.972
18229WAT     H154929   4.968   1.458   7.000
18229WAT     H254930   5.091   1.485   6.896
18230WAT      O54931   2.487   6.680   0.600
18230WAT     H154932   2.417   6.742   0.566
18230WAT     H254933   2.463   6.586   0.577
18231WAT      O54934   7.165   1.444   3.490
18231WAT     H154935   7.209   1.386   3.421
18231WAT     H254936   7.113   1.516   3.444
18232WAT      O54937   2.399   4.851   7.700
18232WAT     H154938   2.439   4.929   7.651
18232WAT     H254939   2.377   4.878   7.793
18233WAT      O54940   6.816   4.217   7.438
18233WAT     H154941   6.859   4.144   7.385
18233WAT     H254942   6.796   4.295   7.379
18234WAT      O54943   5.239   8.846   2.041
18234WAT     H154944   5.178   8.897   1.981
18234WAT     H254945   5.256   8.900   2.124
18235WAT      O54946   7.208   8.550   6.032
18235WAT     H154947   7.156   8.508   5.958
18235WAT     H254948   7.146   8.573   6.107
18236WAT      O54949   1.747   9.297   9.482
18236WAT     H154950   1.689   9.216   9.482
18236WAT     H254951   1.690   9.378   9.495
18237WAT      O54952   4.250   0.577   1.165
18237WAT     H154953   4.270   0.606   1.259
18237WAT     H254954   4.152   0.561   1.156
18238WAT      O54955   7.145   4.971   2.388
18238WAT     H154956   7.127   4.961   2.485
18238WAT     H254957   7.069   5.020   2.345
18239WAT      O54958   8.840   4.708   7.697
18239WAT     H154959   8.912   4.770   7.669
18239WAT     H254960   8.824   4.640   7.626
18240WAT      O54961   5.184   9.311   1.519
18240WAT     H154962   5.142   9.250   1.451
18240WAT     H254963   5.146   9.403   1.509
18241WAT      O54964   6.311   6.922   0.686
18241WAT     H154965   6.324   6.836   0.637
18241WAT     H254966   6.400   6.967   0.700
18242WAT      O54967   1.321   9.462   1.296
18242WAT     H154968   1.392   9.393   1.285
18242WAT     H254969   1.342   9.520   1.375
18243WAT      O54970   0.232   6.529   7.329
18243WAT     H154971   0.163   6.600   7.318
18243WAT     H254972   0.316   6.568   7.367
18244WAT      O54973   9.853   0.891   9.186
18244WAT     H154974   9.764   0.871   9.229
18244WAT     H254975   9.857   0.988   9.163
18245WAT      O54976   4.557   1.452   7.097
18245WAT     H154977   4.647   1.492   7.114
18245WAT     H254978   4.536   1.386   7.169
18246WAT      O54979   0.863   0.605   9.018
18246WAT     H154980   0.939   0.561   8.969
18246WAT     H254981   0.805   0.535   9.058
18247WAT      O54982   6.179   3.165   2.367
18247WAT     H154983   6.200   3.129   2.458
18247WAT     H254984   6.116   3.103   2.320
18248WAT      O54985   4.957   5.335   0.469
18248WAT     H154986   4.884   5.401   0.453
18248WAT     H254987   5.043   5.370   0.434
18249WAT      O54988   4.183   6.989   6.700
18249WAT     H154989   4.198   7.072   6.646
18249WAT     H254990   4.096   6.998   6.749
18250WAT      O54991   6.964   3.928   7.459
18250WAT     H154992   7.058   3.910   7.432
18250WAT     H254993   6.962   4.000   7.529
18251WAT      O54994   9.025   9.333   0.285
18251WAT     H154995   9.102   9.316   0.224
18251WAT     H254996   9.058   9.375   0.369
18252WAT      O54997   7.514   1.050   1.014
18252WAT     H154998   7.500   1.068   0.917
18252WAT     H254999   7.578   1.117   1.052
18253WAT      O55000   0.270   1.718   2.787
18253WAT     H155001   0.263   1.703   2.689
18253WAT     H255002   0.224   1.803   2.811
18254WAT      O55003   6.584   0.574   6.585
18254WAT     H155004   6.587   0.629   6.669
18254WAT     H255005   6.633   0.488   6.600
18255WAT      O55006   3.147   7.636   1.190
18255WAT     H155007   3.240   7.601   1.185
18255WAT     H255008   3.147   7.733   1.168
18256WAT      O55009   5.878   2.955   9.022
18256WAT     H155010   5.842   3.046   8.999
18256WAT     H255011   5.891   2.902   8.939
18257WAT      O55012   0.816   5.919   5.703
18257WAT     H155013   0.854   5.828   5.684
18257WAT     H255014   0.879   5.971   5.760
18258WAT      O55015   6.709   5.646   6.480
18258WAT     H155016   6.703   5.561   6.533
18258WAT     H255017   6.700   5.724   6.541
18259WAT      O55018   5.648   8.097   6.120
18259WAT     H155019   5.549   8.111   6.131
18259WAT     H255020   5.696   8.176   6.158
18260WAT      O55021   8.698   9.182   2.335
18260WAT     H155022   8.633   9.191   2.259
18260WAT     H255023   8.786   9.221   2.308
18261WAT      O55024   6.220   2.587   1.709
18261WAT     H155025   6.224   2.554   1.615
18261WAT     H255026   6.292   2.654   1.725
18262WAT      O55027   5.546   4.281   3.604
18262WAT     H155028   5.617   4.211   3.616
18262WAT     H255029   5.476   4.248   3.541
18263WAT      O55030   2.914   5.758   3.798
18263WAT     H155031   2.898   5.814   3.879
18263WAT     H255032   3.009   5.769   3.769
18264WAT      O55033   9.617   6.976   0.298
18264WAT     H155034   9.560   6.894   0.286
18264WAT     H255035   9.571   7.039   0.360
18265WAT      O55036   1.369   4.265   1.242
18265WAT     H155037   1.431   4.339   1.266
18265WAT     H255038   1.421   4.182   1.222
18266WAT      O55039   3.796   8.962   2.410
18266WAT     H155040   3.742   8.985   2.491
18266WAT     H255041   3.751   8.998   2.329
18267WAT      O55042   3.321   6.721   4.851
18267WAT     H155043   3.270   6.644   4.815
18267WAT     H255044   3.315   6.721   4.951
18268WAT      O55045   3.814   6.531   8.285
18268WAT     H155046   3.833   6.566   8.194
18268WAT     H255047   3.878   6.457   8.307
18269WAT      O55048   1.393   7.343   5.334
18269WAT     H155049   1.459   7.382   5.398
18269WAT     H255050   1.434   7.338   5.243
18270WAT      O55051   6.156   9.571   5.029
18270WAT     H155052   6.112   9.554   5.117
18270WAT     H255053   6.142   9.492   4.969
18271WAT      O55054   6.536   3.347   2.662
18271WAT     H155055   6.635   3.358   2.660
18271WAT     H255056   6.499   3.367   2.572
18272WAT      O55057   7.049   2.613   3.220
18272WAT     H155058   7.093   2.692   3.176
18272WAT     H255059   7.097   2.529   3.195
18273WAT      O55060   3.671   7.664   3.741
18273WAT     H155061   3.648   7.649   3.838
18273WAT     H255062   3.756   7.616   3.719
18274WAT      O55063   0.809   2.255   8.759
18274WAT     H155064   0.713   2.282   8.747
18274WAT     H255065   0.835   2.191   8.687
18275WAT      O55066   3.950   6.350   8.633
18275WAT     H155067   3.934   6.419   8.703
18275WAT     H255068   3.907   6.264   8.661
18276WAT      O55069   2.243   7.441   5.383
18276WAT     H155070   2.275   7.357   5.428
18276WAT     H255071   2.253   7.518   5.447
18277WAT      O55072   3.387   8.030   6.114
18277WAT     H155073   3.471   8.075   6.143
18277WAT     H255074   3.343   8.085   6.042
18278WAT      O55075   0.447   2.532   3.842
18278WAT     H155076   0.426   2.449   3.894
18278WAT     H255077   0.504   2.592   3.898
18279WAT      O55078   2.777   7.430   8.808
18279WAT     H155079   2.782   7.530   8.805
18279WAT     H255080   2.870   7.392   8.805
18280WAT      O55081   9.685   4.158   2.393
18280WAT     H155082   9.605   4.195   2.345
18280WAT     H255083   9.758   4.226   2.392
18281WAT      O55084   9.295   1.631   5.178
18281WAT     H155085   9.389   1.603   5.198
18281WAT     H255086   9.263   1.582   5.097
18282WAT      O55087   4.381   6.826   7.460
18282WAT     H155088   4.428   6.740   7.481
18282WAT     H255089   4.409   6.858   7.369
18283WAT      O55090   2.726   2.433   1.869
18283WAT     H155091   2.815   2.462   1.834
18283WAT     H255092   2.738   2.389   1.958
18284WAT      O55093   4.249   4.706   8.876
18284WAT     H155094   4.212   4.630   8.929
18284WAT     H255095   4.341   4.729   8.909
18285WAT      O55096   8.466   1.722   1.011
18285WAT     H155097   8.442   1.754   1.103
18285WAT     H255098   8.384   1.687   0.966
18286WAT      O55099   4.215   2.711   6.550
18286WAT     H155100   4.259   2.627   6.582
18286WAT     H255101   4.208   2.776   6.625
18287WAT      O55102   4.933   0.036   7.903
18287WAT     H155103   4.870   0.021   7.979
18287WAT     H255104   4.994   0.112   7.923
18288WAT      O55105   5.558   6.813   4.706
18288WAT     H155106   5.537   6.785   4.799
18288WAT     H255107   5.562   6.732   4.647
18289WAT      O55108   8.200   8.190   2.502
18289WAT     H155109   8.196   8.194   2.601
18289WAT     H255110   8.111   8.162   2.466
18290WAT      O55111   2.388   2.010   8.582
18290WAT     H155112   2.374   2.051   8.672
18290WAT     H255113   2.428   2.078   8.520
18291WAT      O55114   8.499   4.625   4.594
18291WAT     H155115   8.584   4.618   4.542
18291WAT     H255116   8.433   4.558   4.559
18292WAT      O55117   8.241   2.125   8.884
18292WAT     H155118   8.154   2.173   8.874
18292WAT     H255119   8.260   2.071   8.802
18293WAT      O55120   2.799   8.603   9.141
18293WAT     H155121   2.839   8.514   9.118
18293WAT     H255122   2.845   8.674   9.089
18294WAT      O55123   7.954   2.206   8.840
18294WAT     H155124   7.860   2.196   8.873
18294WAT     H255125   7.966   2.149   8.759
18295WAT      O55126   1.700   2.754   5.349
18295WAT     H155127   1.604   2.757   5.378
18295WAT     H255128   1.754   2.814   5.408
18296WAT      O55129   5.204   7.489   1.269
18296WAT     H155130   5.211   7.585   1.240
18296WAT     H255131   5.145   7.484   1.350
18297WAT      O55132   2.500   4.033   8.143
18297WAT     H155133   2.555   3.968   8.195
18297WAT     H255134   2.404   4.023   8.168
18298WAT      O55135   1.711   8.197   1.618
18298WAT     H155136   1.756   8.286   1.616
18298WAT     H255137   1.651   8.192   1.698
18299WAT      O55138   3.855   8.713   8.334
18299WAT     H155139   3.806   8.731   8.248
18299WAT     H255140   3.805   8.644   8.387
18300WAT      O55141   6.022   8.221   5.193
18300WAT     H155142   5.997   8.274   5.112
18300WAT     H255143   5.978   8.131   5.190
18301WAT      O55144   2.751   1.065   4.103
18301WAT     H155145   2.846   1.092   4.117
18301WAT     H255146   2.730   0.986   4.160
18302WAT      O55147   8.839   0.761   3.697
18302WAT     H155148   8.877   0.754   3.790
18302WAT     H255149   8.811   0.671   3.665
18303WAT      O55150   8.869   7.718   8.660
18303WAT     H155151   8.913   7.667   8.585
18303WAT     H255152   8.920   7.802   8.677
18304WAT      O55153   5.644   3.940   6.175
18304WAT     H155154   5.582   4.018   6.186
18304WAT     H255155   5.684   3.943   6.083
18305WAT      O55156   7.812   2.276   1.754
18305WAT     H155157   7.856   2.235   1.834
18305WAT     H255158   7.717   2.245   1.749
18306WAT      O55159   6.680   1.473   1.161
18306WAT     H155160   6.636   1.544   1.217
18306WAT     H255161   6.777   1.469   1.185
18307WAT      O55162   1.258   6.015   2.354
18307WAT     H155163   1.197   6.018   2.433
18307WAT     H255164   1.251   5.925   2.311
18308WAT      O55165   4.274   1.313   1.380
18308WAT     H155166   4.231   1.371   1.449
18308WAT     H255167   4.333   1.368   1.322
18309WAT      O55168   4.503   7.529   4.250
18309WAT     H155169   4.512   7.611   4.308
18309WAT     H255170   4.498   7.556   4.154
18310WAT      O55171   9.815   9.224   9.486
18310WAT     H155172   9.810   9.188   9.392
18310WAT     H255173   9.850   9.152   9.546
18311WAT      O55174   7.676   6.028   3.910
18311WAT     H155175   7.699   5.931   3.916
18311WAT     H255176   7.760   6.081   3.900
18312WAT      O55177   2.795   6.509   0.280
18312WAT     H155178   2.868   6.527   0.346
18312WAT     H255179   2.763   6.596   0.242
18313WAT      O55180   8.942   7.895   7.429
18313WAT     H155181   8.881   7.913   7.351
18313WAT     H255182   9.035   7.923   7.405
18314WAT      O55183   6.201   5.542   0.579
18314WAT     H155184   6.179   5.450   0.545
18314WAT     H255185   6.190   5.608   0.505
18315WAT      O55186   5.322   0.058   3.962
18315WAT     H155187   5.253  -0.006   3.996
18315WAT     H255188   5.339   0.128   4.031
18316WAT      O55189   3.779   5.322   8.835
18316WAT     H155190   3.696   5.355   8.792
18316WAT     H255191   3.824   5.397   8.884
18317WAT      O55192   5.768   3.155   5.954
18317WAT     H155193   5.809   3.175   5.865
18317WAT     H255194   5.668   3.150   5.945
18318WAT      O55195   8.425   5.367   5.960
18318WAT     H155196   8.384   5.403   5.876
18318WAT     H255197   8.523   5.350   5.944
18319WAT      O55198   0.161   9.835   6.036
18319WAT     H155199   0.251   9.800   6.063
18319WAT     H255200   0.168   9.933   6.020
18320WAT      O55201   3.045   9.050   1.764
18320WAT     H155202   2.983   9.119   1.802
18320WAT     H255203   3.060   9.069   1.666
18321WAT      O55204   1.605   5.802   4.998
18321WAT     H155205   1.550   5.884   5.016
18321WAT     H255206   1.682   5.826   4.939
18322WAT      O55207   5.146   6.608   8.751
18322WAT     H155208   5.239   6.644   8.763
18322WAT     H255209   5.079   6.680   8.772
18323WAT      O55210   1.290   2.557   4.355
18323WAT     H155211   1.373   2.579   4.305
18323WAT     H255212   1.231   2.499   4.298
18324WAT      O55213   7.538   3.663   9.256
18324WAT     H155214   7.526   3.744   9.198
18324WAT     H255215   7.574   3.690   9.345
18325WAT      O55216   5.557   9.072   7.493
18325WAT     H155217   5.653   9.055   7.471
18325WAT     H255218   5.512   8.985   7.513
18326WAT      O55219   3.430   5.216   7.610
18326WAT     H155220   3.339   5.215   7.569
18326WAT     H255221   3.423   5.225   7.709
18327WAT      O55222   5.543   3.314   5.471
18327WAT     H155223   5.455   3.295   5.516
18327WAT     H255224   5.592   3.228   5.459
18328WAT      O55225   0.307   7.659   4.945
18328WAT     H155226   0.294   7.701   5.035
18328WAT     H255227   0.402   7.670   4.917
18329WAT      O55228   7.565   5.451   8.287
18329WAT     H155229   7.502   5.375   8.278
18329WAT     H255230   7.577   5.495   8.198
18330WAT      O55231   9.617   2.984   6.278
18330WAT     H155232   9.618   2.908   6.213
18330WAT     H255233   9.523   3.004   6.305
18331WAT      O55234   1.387   4.493   3.150
18331WAT     H155235   1.386   4.547   3.065
18331WAT     H255236   1.294   4.487   3.186
18332WAT      O55237   8.534   7.337   6.920
18332WAT     H155238   8.487   7.379   6.842
18332WAT     H255239   8.570   7.248   6.892
18333WAT      O55240   4.036   8.014   6.110
18333WAT     H155241   3.981   7.980   6.186
18333WAT     H255242   4.028   8.113   6.104
18334WAT      O55243   1.744   2.044   1.752
18334WAT     H155244   1.732   2.061   1.849
18334WAT     H255245   1.675   2.094   1.700
18335WAT      O55246   4.901   2.144   7.593
18335WAT     H155247   4.896   2.200   7.676
18335WAT     H255248   4.953   2.061   7.612
18336WAT      O55249   1.206   2.886   2.861
18336WAT     H155250   1.172   2.851   2.948
18336WAT     H255251   1.294   2.843   2.840
18337WAT      O55252   8.764   7.642   0.498
18337WAT     H155253   8.811   7.652   0.586
18337WAT     H255254   8.764   7.546   0.471
18338WAT      O55255   5.003   0.168   9.220
18338WAT     H155256   5.065   0.096   9.252
18338WAT     H255257   5.003   0.171   9.120
18339WAT      O55258   8.369   4.734   4.350
18339WAT     H155259   8.327   4.651   4.315
18339WAT     H255260   8.380   4.727   4.449
18340WAT      O55261   4.784   2.446   0.555
18340WAT     H155262   4.756   2.484   0.643
18340WAT     H255263   4.763   2.511   0.482
18341WAT      O55264   9.788   5.812   9.174
18341WAT     H155265   9.829   5.742   9.232
18341WAT     H255266   9.838   5.818   9.088
18342WAT      O55267   7.630   0.927   3.914
18342WAT     H155268   7.619   0.960   3.820
18342WAT     H255269   7.570   0.848   3.929
18343WAT      O55270   6.146   2.092   2.424
18343WAT     H155271   6.236   2.051   2.407
18343WAT     H255272   6.135   2.107   2.522
18344WAT      O55273   3.855   3.169   3.160
18344WAT     H155274   3.888   3.228   3.087
18344WAT     H255275   3.877   3.073   3.138
18345WAT      O55276   5.794   5.038   2.794
18345WAT     H155277   5.864   4.968   2.783
18345WAT     H255278   5.766   5.043   2.890
18346WAT      O55279   5.729   3.337   8.883
18346WAT     H155280   5.812   3.345   8.829
18346WAT     H255281   5.752   3.312   8.977
18347WAT      O55282   7.333   2.109   2.417
18347WAT     H155283   7.236   2.117   2.397
18347WAT     H255284   7.383   2.181   2.369
18348WAT      O55285   4.582   3.571   8.931
18348WAT     H155286   4.629   3.653   8.962
18348WAT     H255287   4.512   3.596   8.865
18349WAT      O55288   2.070   9.272   7.449
18349WAT     H155289   2.054   9.187   7.498
18349WAT     H255290   2.098   9.343   7.514
18350WAT      O55291   7.144   1.042   3.136
18350WAT     H155292   7.197   1.067   3.217
18350WAT     H255293   7.088   0.961   3.156
18351WAT      O55294   8.039   5.525   2.630
18351WAT     H155295   8.114   5.589   2.645
18351WAT     H255296   8.008   5.531   2.536
18352WAT      O55297   9.555   2.466   1.995
18352WAT     H155298   9.581   2.465   1.898
18352WAT     H255299   9.557   2.560   2.029
18353WAT      O55300   2.302   4.590   0.830
18353WAT     H155301   2.255   4.513   0.872
18353WAT     H255302   2.395   4.597   0.866
18354WAT      O55303   3.716   4.151   2.788
18354WAT     H155304   3.707   4.056   2.759
18354WAT     H255305   3.689   4.159   2.884
18355WAT      O55306   5.187   1.523   4.695
18355WAT     H155307   5.108   1.490   4.645
18355WAT     H255308   5.221   1.452   4.757
18356WAT      O55309   1.779   0.568   3.129
18356WAT     H155310   1.705   0.503   3.143
18356WAT     H255311   1.856   0.522   3.084
18357WAT      O55312   4.622   9.044   3.777
18357WAT     H155313   4.706   8.999   3.807
18357WAT     H255314   4.639   9.093   3.691
18358WAT      O55315   9.375   0.672   5.309
18358WAT     H155316   9.450   0.607   5.320
18358WAT     H255317   9.386   0.722   5.224
18359WAT      O55318   7.425   2.670   2.666
18359WAT     H155319   7.346   2.628   2.622
18359WAT     H255320   7.473   2.728   2.601
18360WAT      O55321   5.353   1.805   1.448
18360WAT     H155322   5.355   1.705   1.440
18360WAT     H255323   5.441   1.843   1.419
18361WAT      O55324   8.815   1.509   7.419
18361WAT     H155325   8.849   1.472   7.506
18361WAT     H255326   8.726   1.467   7.398
18362WAT      O55327   8.028   3.071   5.539
18362WAT     H155328   8.013   3.005   5.613
18362WAT     H255329   8.077   3.150   5.575
18363WAT      O55330   9.144   5.343   7.626
18363WAT     H155331   9.079   5.289   7.572
18363WAT     H255332   9.200   5.282   7.682
18364WAT      O55333   5.474   5.070   1.274
18364WAT     H155334   5.557   5.084   1.329
18364WAT     H255335   5.452   4.973   1.273
18365WAT      O55336   2.600   9.224   5.637
18365WAT     H155337   2.642   9.250   5.724
18365WAT     H255338   2.634   9.283   5.564
18366WAT      O55339   1.939   9.536   6.955
18366WAT     H155340   1.954   9.538   7.054
18366WAT     H255341   1.994   9.607   6.911
18367WAT      O55342   1.650   6.628   2.144
18367WAT     H155343   1.738   6.663   2.175
18367WAT     H255344   1.659   6.531   2.120
18368WAT      O55345   5.778   8.748   0.099
18368WAT     H155346   5.808   8.659   0.065
18368WAT     H255347   5.750   8.739   0.195
18369WAT      O55348   9.258   3.921   1.367
18369WAT     H155349   9.331   3.966   1.317
18369WAT     H255350   9.295   3.878   1.450
18370WAT      O55351   1.310   2.080   8.464
18370WAT     H155352   1.399   2.122   8.452
18370WAT     H255353   1.320   1.992   8.508
18371WAT      O55354   3.012   5.857   2.208
18371WAT     H155355   3.069   5.930   2.246
18371WAT     H255356   2.934   5.897   2.160
18372WAT      O55357   5.554   4.829   2.010
18372WAT     H155358   5.631   4.787   2.058
18372WAT     H255359   5.563   4.929   2.013
18373WAT      O55360   2.977   8.723   0.915
18373WAT     H155361   2.931   8.779   0.983
18373WAT     H255362   2.981   8.628   0.947
18374WAT      O55363   8.492   8.400   6.775
18374WAT     H155364   8.554   8.361   6.706
18374WAT     H255365   8.526   8.489   6.803
18375WAT      O55366   4.496   5.923   7.765
18375WAT     H155367   4.420   5.985   7.780
18375WAT     H255368   4.474   5.833   7.803
18376WAT      O55369   8.551   2.244   6.051
18376WAT     H155370   8.459   2.206   6.062
18376WAT     H255371   8.566   2.315   6.119
18377WAT      O55372   8.843   9.737   0.205
18377WAT     H155373   8.932   9.743   0.251
18377WAT     H255374   8.791   9.660   0.244
18378WAT      O55375   8.320   0.135   8.931
18378WAT     H155376   8.348   0.106   8.840
18378WAT     H255377   8.399   0.171   8.980
18379WAT      O55378   7.017   9.375   6.226
18379WAT     H155379   7.108   9.414   6.217
18379WAT     H255380   6.953   9.446   6.254
18380WAT      O55381   7.353   0.488   8.182
18380WAT     H155382   7.302   0.465   8.099
18380WAT     H255383   7.354   0.410   8.244
18381WAT      O55384   4.391   5.429   1.445
18381WAT     H155385   4.382   5.433   1.545
18381WAT     H255386   4.356   5.341   1.412
18382WAT      O55387   8.828   3.452   0.294
18382WAT     H155388   8.740   3.439   0.340
18382WAT     H255389   8.819   3.433   0.197
18383WAT      O55390   3.588   1.412   5.654
18383WAT     H155391   3.522   1.486   5.672
18383WAT     H255392   3.611   1.366   5.740
18384WAT      O55393   3.117   6.451   9.479
18384WAT     H155394   3.029   6.410   9.503
18384WAT     H255395   3.190   6.403   9.526
18385WAT      O55396   3.615   4.651   7.178
18385WAT     H155397   3.709   4.677   7.155
18385WAT     H255398   3.604   4.553   7.164
18386WAT      O55399   5.402   5.173   1.743
18386WAT     H155400   5.425   5.092   1.689
18386WAT     H255401   5.359   5.241   1.684
18387WAT      O55402   0.367   6.966   4.186
18387WAT     H155403   0.433   7.041   4.191
18387WAT     H255404   0.374   6.922   4.096
18388WAT      O55405   1.821   1.045   1.617
18388WAT     H155406   1.818   1.000   1.706
18388WAT     H255407   1.861   1.136   1.627
18389WAT      O55408   7.112   1.052   9.546
18389WAT     H155409   7.016   1.051   9.574
18389WAT     H255410   7.162   0.981   9.595
18390WAT      O55411   9.161   8.442   6.136
18390WAT     H155412   9.259   8.426   6.147
18390WAT     H255413   9.110   8.376   6.191
18391WAT      O55414   4.137   7.200   1.773
18391WAT     H155415   4.136   7.291   1.731
18391WAT     H255416   4.046   7.159   1.765
18392WAT      O55417   0.870   7.583   3.561
18392WAT     H155418   0.841   7.542   3.474
18392WAT     H255419   0.792   7.587   3.623
18393WAT      O55420   9.367   4.730   5.688
18393WAT     H155421   9.421   4.646   5.681
18393WAT     H255422   9.278   4.709   5.730
18394WAT      O55423   1.045   5.730   3.156
18394WAT     H155424   1.057   5.712   3.254
18394WAT     H255425   1.063   5.827   3.138
18395WAT      O55426   4.006   1.190   0.361
18395WAT     H155427   3.963   1.136   0.289
18395WAT     H255428   4.021   1.133   0.442
18396WAT      O55429   9.127   8.787   6.983
18396WAT     H155430   9.192   8.726   7.028
18396WAT     H255431   9.099   8.747   6.896
18397WAT      O55432   7.925   0.370   6.920
18397WAT     H155433   7.937   0.341   7.015
18397WAT     H255434   7.966   0.461   6.907
18398WAT      O55435   4.423   6.450   9.554
18398WAT     H155436   4.381   6.448   9.645
18398WAT     H255437   4.351   6.451   9.484
18399WAT      O55438   0.179   4.288   5.082
18399WAT     H155439   0.118   4.218   5.044
18399WAT     H255440   0.200   4.356   5.012
18400WAT      O55441   4.411   0.198   8.026
18400WAT     H155442   4.439   0.212   8.121
18400WAT     H255443   4.389   0.286   7.984
18401WAT      O55444   7.090   1.673   9.602
18401WAT     H155445   6.996   1.670   9.637
18401WAT     H255446   7.115   1.584   9.565
18402WAT      O55447   4.093   4.004   4.497
18402WAT     H155448   4.049   4.023   4.585
18402WAT     H255449   4.133   3.913   4.498
18403WAT      O55450   9.651   3.371   2.949
18403WAT     H155451   9.558   3.393   2.922
18403WAT     H255452   9.715   3.407   2.881
18404WAT      O55453   0.923   7.922   5.638
18404WAT     H155454   0.853   7.862   5.600
18404WAT     H255455   0.915   8.013   5.597
18405WAT      O55456   6.011   0.548   1.618
18405WAT     H155457   5.977   0.494   1.694
18405WAT     H255458   6.104   0.580   1.638
18406WAT      O55459   1.469   2.066   2.174
18406WAT     H155460   1.531   2.102   2.105
18406WAT     H255461   1.493   1.971   2.195
18407WAT      O55462   9.017   0.163   5.711
18407WAT     H155463   9.116   0.172   5.698
18407WAT     H255464   8.985   0.076   5.673
18408WAT      O55465   4.903   9.768   7.458
18408WAT     H155466   4.976   9.700   7.467
18408WAT     H255467   4.877   9.777   7.362
18409WAT      O55468   1.504   2.747   3.330
18409WAT     H155469   1.599   2.731   3.357
18409WAT     H255470   1.501   2.809   3.252
18410WAT      O55471   7.803   2.188   7.225
18410WAT     H155472   7.849   2.155   7.307
18410WAT     H255473   7.782   2.285   7.236
18411WAT      O55474   9.032   4.684   7.360
18411WAT     H155475   9.062   4.673   7.265
18411WAT     H255476   9.073   4.767   7.398
18412WAT      O55477   6.720   8.973   5.521
18412WAT     H155478   6.628   8.972   5.560
18412WAT     H255479   6.756   8.880   5.518
18413WAT      O55480   5.390   6.273   7.650
18413WAT     H155481   5.404   6.213   7.729
18413WAT     H255482   5.307   6.327   7.663
18414WAT      O55483   3.378   9.023   2.423
18414WAT     H155484   3.437   8.945   2.401
18414WAT     H255485   3.399   9.099   2.363
18415WAT      O55486   2.117   7.070   3.231
18415WAT     H155487   2.133   6.996   3.166
18415WAT     H255488   2.131   7.036   3.324
18416WAT      O55489   3.405   8.806   3.388
18416WAT     H155490   3.401   8.755   3.303
18416WAT     H255491   3.437   8.746   3.462
18417WAT      O55492   8.199   8.658   6.259
18417WAT     H155493   8.190   8.618   6.350
18417WAT     H255494   8.134   8.615   6.197
18418WAT      O55495   1.158   5.907   5.553
18418WAT     H155496   1.159   5.807   5.562
18418WAT     H255497   1.239   5.937   5.503
18419WAT      O55498   4.611   6.962   5.532
18419WAT     H155499   4.675   6.917   5.469
18419WAT     H255500   4.607   6.910   5.617
18420WAT      O55501   0.756   5.446   7.114
18420WAT     H155502   0.737   5.408   7.205
18420WAT     H255503   0.855   5.460   7.105
18421WAT      O55504   4.821   5.630   9.149
18421WAT     H155505   4.822   5.728   9.169
18421WAT     H255506   4.914   5.594   9.156
18422WAT      O55507   7.965   0.835   2.966
18422WAT     H155508   7.989   0.929   2.942
18422WAT     H255509   7.945   0.829   3.064
18423WAT      O55510   0.434   4.227   1.577
18423WAT     H155511   0.400   4.198   1.488
18423WAT     H255512   0.471   4.320   1.569
18424WAT      O55513   8.486   6.577   0.475
18424WAT     H155514   8.495   6.660   0.419
18424WAT     H255515   8.389   6.556   0.487
18425WAT      O55516   6.123   2.633   8.390
18425WAT     H155517   6.028   2.625   8.421
18425WAT     H255518   6.184   2.611   8.466
18426WAT      O55519   4.667   1.059   3.912
18426WAT     H155520   4.704   1.031   4.001
18426WAT     H255521   4.718   1.138   3.878
18427WAT      O55522   5.188   0.600   0.532
18427WAT     H155523   5.134   0.625   0.452
18427WAT     H255524   5.126   0.573   0.606
18428WAT      O55525   8.098   9.661   1.763
18428WAT     H155526   8.055   9.720   1.694
18428WAT     H255527   8.096   9.708   1.852
18429WAT      O55528   3.303   8.140   1.922
18429WAT     H155529   3.243   8.209   1.962
18429WAT     H255530   3.283   8.051   1.963
18430WAT      O55531   2.349   9.697   8.716
18430WAT     H155532   2.446   9.674   8.704
18430WAT     H255533   2.330   9.711   8.813
18431WAT      O55534   2.216   4.321   5.651
18431WAT     H155535   2.238   4.417   5.635
18431WAT     H255536   2.284   4.263   5.606
18432WAT      O55537   0.988   2.200   4.302
18432WAT     H155538   0.900   2.164   4.333
18432WAT     H255539   1.051   2.125   4.285
18433WAT      O55540   9.670   6.036   4.887
18433WAT     H155541   9.605   6.008   4.817
18433WAT     H255542   9.621   6.059   4.971
18434WAT      O55543   8.454   8.799   2.385
18434WAT     H155544   8.408   8.836   2.466
18434WAT     H255545   8.524   8.734   2.413
18435WAT      O55546   2.720   7.064   9.257
18435WAT     H155547   2.737   7.032   9.164
18435WAT     H255548   2.702   6.986   9.316
18436WAT      O55549   2.005   2.416   2.783
18436WAT     H155550   2.100   2.388   2.796
18436WAT     H255551   2.001   2.516   2.778
18437WAT      O55552   3.549   0.569   0.277
18437WAT     H155553   3.534   0.516   0.194
18437WAT     H255554   3.462   0.586   0.322
18438WAT      O55555   0.528   7.981   3.741
18438WAT     H155556   0.487   7.931   3.665
18438WAT     H255557   0.467   7.979   3.820
18439WAT      O55558   0.116   7.823   9.865
18439WAT     H155559   0.166   7.860   9.788
18439WAT     H255560   0.179   7.805   9.941
18440WAT      O55561   7.660   0.597   9.520
18440WAT     H155562   7.746   0.577   9.567
18440WAT     H255563   7.598   0.519   9.529
18441WAT      O55564   8.504   9.169   3.881
18441WAT     H155565   8.600   9.144   3.895
18441WAT     H255566   8.451   9.145   3.962
18442WAT      O55567   0.804   7.885   7.196
18442WAT     H155568   0.815   7.926   7.286
18442WAT     H255569   0.816   7.786   7.203
18443WAT      O55570   0.107   2.240   2.113
18443WAT     H155571   0.054   2.304   2.057
18443WAT     H255572   0.056   2.154   2.122
18444WAT      O55573   0.526   2.287   1.734
18444WAT     H155574   0.521   2.386   1.742
18444WAT     H255575   0.438   2.251   1.704
18445WAT      O55576   9.590   2.596   5.502
18445WAT     H155577   9.569   2.592   5.404
18445WAT     H255578   9.650   2.674   5.520
18446WAT      O55579   8.325   0.947   7.630
18446WAT     H155580   8.380   0.871   7.666
18446WAT     H255581   8.337   1.027   7.689
18447WAT      O55582   2.064   1.309   4.045
18447WAT     H155583   2.144   1.296   4.103
18447WAT     H255584   2.058   1.235   3.979
18448WAT      O55585   9.888   8.319   6.638
18448WAT     H155586   9.819   8.373   6.685
18448WAT     H255587   9.856   8.225   6.627
18449WAT      O55588   1.560   2.581   6.654
18449WAT     H155589   1.490   2.511   6.639
18449WAT     H255590   1.651   2.538   6.646
18450WAT      O55591   4.522   4.501   1.604
18450WAT     H155592   4.545   4.473   1.511
18450WAT     H255593   4.450   4.571   1.601
18451WAT      O55594   5.188   8.854   5.189
18451WAT     H155595   5.119   8.783   5.199
18451WAT     H255596   5.255   8.845   5.263
18452WAT      O55597   3.957   0.596   7.270
18452WAT     H155598   3.991   0.647   7.191
18452WAT     H255599   3.972   0.498   7.255
18453WAT      O55600   0.983   6.555   3.591
18453WAT     H155601   1.043   6.546   3.511
18453WAT     H255602   0.972   6.467   3.636
18454WAT      O55603   8.508   2.113   3.297
18454WAT     H155604   8.484   2.127   3.201
18454WAT     H255605   8.575   2.039   3.305
18455WAT      O55606   3.189   4.606   6.886
18455WAT     H155607   3.195   4.692   6.836
18455WAT     H255608   3.280   4.567   6.896
18456WAT      O55609   0.844   1.271   9.504
18456WAT     H155610   0.928   1.258   9.557
18456WAT     H255611   0.857   1.238   9.411
18457WAT      O55612   4.723   0.674   2.784
18457WAT     H155613   4.648   0.612   2.807
18457WAT     H255614   4.747   0.664   2.688
18458WAT      O55615   6.304   6.025   8.030
18458WAT     H155616   6.294   6.124   8.038
18458WAT     H255617   6.327   6.002   7.935
18459WAT      O55618   6.535   9.546   2.143
18459WAT     H155619   6.616   9.562   2.086
18459WAT     H255620   6.479   9.474   2.101
18460WAT      O55621   3.459   5.569   1.723
18460WAT     H155622   3.382   5.612   1.675
18460WAT     H255623   3.483   5.624   1.803
18461WAT      O55624   1.262   6.843   7.126
18461WAT     H155625   1.200   6.920   7.142
18461WAT     H255626   1.352   6.864   7.163
18462WAT      O55627   5.695   4.975   5.408
18462WAT     H155628   5.717   4.958   5.311
18462WAT     H255629   5.675   5.072   5.421
18463WAT      O55630   6.617   9.212   4.301
18463WAT     H155631   6.673   9.144   4.350
18463WAT     H255632   6.660   9.234   4.214
18464WAT      O55633   6.010   1.604   6.569
18464WAT     H155634   6.024   1.593   6.470
18464WAT     H255635   5.922   1.649   6.585
18465WAT      O55636   7.570   0.977   7.392
18465WAT     H155637   7.538   0.971   7.486
18465WAT     H255638   7.620   0.894   7.369
18466WAT      O55639   8.758   7.699   4.778
18466WAT     H155640   8.763   7.648   4.692
18466WAT     H255641   8.666   7.688   4.817
18467WAT      O55642   2.850   3.953   0.302
18467WAT     H155643   2.781   4.014   0.342
18467WAT     H255644   2.940   3.974   0.340
18468WAT      O55645   6.996   3.578   0.311
18468WAT     H155646   7.003   3.668   0.268
18468WAT     H255647   6.929   3.522   0.260
18469WAT      O55648   4.803   1.880   5.309
18469WAT     H155649   4.831   1.938   5.386
18469WAT     H255650   4.828   1.785   5.329
18470WAT      O55651   0.849   7.043   1.086
18470WAT     H155652   0.866   7.138   1.060
18470WAT     H255653   0.886   7.027   1.178
18471WAT      O55654   1.849   5.557   8.952
18471WAT     H155655   1.801   5.603   8.877
18471WAT     H255656   1.946   5.551   8.931
18472WAT      O55657   1.970   2.589   9.202
18472WAT     H155658   1.932   2.498   9.183
18472WAT     H255659   2.053   2.602   9.148
18473WAT      O55660   5.082   1.598   8.441
18473WAT     H155661   5.012   1.669   8.428
18473WAT     H255662   5.039   1.508   8.436
18474WAT      O55663   8.705   7.371   8.818
18474WAT     H155664   8.682   7.277   8.843
18474WAT     H255665   8.761   7.370   8.735
18475WAT      O55666   2.941   4.690   1.203
18475WAT     H155667   2.932   4.632   1.284
18475WAT     H255668   2.905   4.781   1.223
18476WAT      O55669   1.311   0.837   6.684
18476WAT     H155670   1.235   0.893   6.653
18476WAT     H255671   1.398   0.880   6.659
18477WAT      O55672   3.831   2.941   8.213
18477WAT     H155673   3.853   2.885   8.133
18477WAT     H255674   3.914   2.986   8.247
18478WAT      O55675   8.921   5.567   0.957
18478WAT     H155676   9.012   5.572   0.998
18478WAT     H255677   8.897   5.472   0.942
18479WAT      O55678   4.692   0.505   9.373
18479WAT     H155679   4.609   0.513   9.427
18479WAT     H255680   4.697   0.413   9.333
18480WAT      O55681   4.063   3.571   6.208
18480WAT     H155682   4.065   3.641   6.280
18480WAT     H255683   4.072   3.615   6.119
18481WAT      O55684   8.453   0.309   1.779
18481WAT     H155685   8.430   0.308   1.682
18481WAT     H255686   8.460   0.215   1.813
18482WAT      O55687   9.489   2.184   5.101
18482WAT     H155688   9.535   2.097   5.081
18482WAT     H255689   9.557   2.254   5.119
18483WAT      O55690   6.802   4.142   3.216
18483WAT     H155691   6.791   4.215   3.148
18483WAT     H255692   6.712   4.113   3.249
18484WAT      O55693   1.679   4.959   2.128
18484WAT     H155694   1.758   4.898   2.118
18484WAT     H255695   1.663   4.977   2.225
18485WAT      O55696   4.000   1.434   8.995
18485WAT     H155697   3.919   1.375   9.006
18485WAT     H255698   3.981   1.505   8.928
18486WAT      O55699   6.399   8.695   6.690
18486WAT     H155700   6.390   8.697   6.790
18486WAT     H255701   6.451   8.774   6.659
18487WAT      O55702   5.000   7.268   6.856
18487WAT     H155703   5.078   7.237   6.911
18487WAT     H255704   4.920   7.213   6.879
18488WAT      O55705   9.492   7.877   6.482
18488WAT     H155706   9.499   7.961   6.427
18488WAT     H255707   9.530   7.894   6.573
18489WAT      O55708   0.128   2.322   5.711
18489WAT     H155709   0.146   2.318   5.613
18489WAT     H255710   0.031   2.300   5.728
18490WAT      O55711   7.935   1.280   7.943
18490WAT     H155712   8.014   1.320   7.988
18490WAT     H255713   7.950   1.182   7.929
18491WAT      O55714   9.156   1.071   1.475
18491WAT     H155715   9.082   1.007   1.456
18491WAT     H255716   9.157   1.142   1.404
18492WAT      O55717   3.236   9.728   2.107
18492WAT     H155718   3.284   9.721   2.020
18492WAT     H255719   3.300   9.711   2.182
18493WAT      O55720   5.755   9.194   8.811
18493WAT     H155721   5.846   9.156   8.796
18493WAT     H255722   5.698   9.129   8.861
18494WAT      O55723   1.801   8.601   1.425
18494WAT     H155724   1.844   8.570   1.509
18494WAT     H255725   1.764   8.693   1.439
18495WAT      O55726   9.656   3.972   2.812
18495WAT     H155727   9.557   3.970   2.823
18495WAT     H255728   9.680   3.938   2.721
18496WAT      O55729   2.278   6.852   0.621
18496WAT     H155730   2.300   6.820   0.713
18496WAT     H255731   2.187   6.894   0.621
18497WAT      O55732   2.077   0.760   6.077
18497WAT     H155733   2.157   0.738   6.022
18497WAT     H255734   2.088   0.724   6.169
18498WAT      O55735   7.164   7.940   5.483
18498WAT     H155736   7.150   7.852   5.438
18498WAT     H255737   7.191   8.009   5.416
18499WAT      O55738   8.180   8.821   7.818
18499WAT     H155739   8.192   8.748   7.886
18499WAT     H255740   8.085   8.823   7.787
18500WAT      O55741   9.801   5.545   2.718
18500WAT     H155742   9.872   5.475   2.712
18500WAT     H255743   9.777   5.576   2.626
18501WAT      O55744   9.695   1.295   5.434
18501WAT     H155745   9.753   1.356   5.379
18501WAT     H255746   9.620   1.261   5.377
18502WAT      O55747   4.314   1.289   8.565
18502WAT     H155748   4.233   1.348   8.572
18502WAT     H255749   4.292   1.209   8.510
18503WAT      O55750   7.566   5.125   8.934
18503WAT     H155751   7.560   5.038   8.982
18503WAT     H255752   7.588   5.109   8.838
18504WAT      O55753   7.862   1.885   3.950
18504WAT     H155754   7.871   1.968   4.006
18504WAT     H255755   7.834   1.809   4.008
18505WAT      O55756   0.592   6.319   3.059
18505WAT     H155757   0.576   6.351   3.152
18505WAT     H255758   0.504   6.310   3.012
18506WAT      O55759   8.013   3.565   1.083
18506WAT     H155760   7.964   3.481   1.107
18506WAT     H255761   7.947   3.640   1.072
18507WAT      O55762   7.530   7.853   4.131
18507WAT     H155763   7.466   7.918   4.091
18507WAT     H255764   7.481   7.770   4.158
18508WAT      O55765   4.399   5.177   9.407
18508WAT     H155766   4.411   5.200   9.311
18508WAT     H255767   4.306   5.144   9.423
18509WAT      O55768   3.835   9.369   0.768
18509WAT     H155769   3.753   9.345   0.716
18509WAT     H255770   3.877   9.451   0.729
18510WAT      O55771   3.598   8.038   7.960
18510WAT     H155772   3.613   8.137   7.964
18510WAT     H255773   3.574   8.005   8.051
18511WAT      O55774   8.956   3.704   8.396
18511WAT     H155775   8.982   3.610   8.419
18511WAT     H255776   9.029   3.766   8.424
18512WAT      O55777   3.573   9.538   0.080
18512WAT     H155778   3.636   9.499   0.013
18512WAT     H255779   3.527   9.463   0.129
18513WAT      O55780   1.054   3.235   5.372
18513WAT     H155781   0.969   3.198   5.410
18513WAT     H255782   1.126   3.167   5.379
18514WAT      O55783   3.992   4.444   0.607
18514WAT     H155784   3.922   4.380   0.577
18514WAT     H255785   4.082   4.407   0.585
18515WAT      O55786   4.871   5.420   6.527
18515WAT     H155787   4.835   5.486   6.461
18515WAT     H255788   4.800   5.397   6.594
18516WAT      O55789   6.988   5.687   7.727
18516WAT     H155790   6.903   5.675   7.677
18516WAT     H255791   6.982   5.641   7.816
18517WAT      O55792   0.217   4.742   9.779
18517WAT     H155793   0.232   4.804   9.856
18517WAT     H255794   0.126   4.759   9.740
18518WAT      O55795   6.595   2.513   5.995
18518WAT     H155796   6.670   2.484   5.936
18518WAT     H255797   6.534   2.574   5.944
18519WAT      O55798   1.268   2.793   2.551
18519WAT     H155799   1.327   2.849   2.608
18519WAT     H255800   1.183   2.842   2.532
18520WAT      O55801   1.467   0.177   9.274
18520WAT     H155802   1.499   0.116   9.202
18520WAT     H255803   1.402   0.243   9.236
18521WAT      O55804   6.737   6.645   1.568
18521WAT     H155805   6.748   6.709   1.644
18521WAT     H255806   6.785   6.680   1.487
18522WAT      O55807   6.238   6.955   2.471
18522WAT     H155808   6.155   6.974   2.418
18522WAT     H255809   6.221   6.978   2.567
18523WAT      O55810   0.206   8.430   6.769
18523WAT     H155811   0.211   8.412   6.868
18523WAT     H255812   0.119   8.398   6.734
18524WAT      O55813   6.507   4.840   7.082
18524WAT     H155814   6.526   4.893   7.000
18524WAT     H255815   6.410   4.815   7.084
18525WAT      O55816   4.774   1.314   3.313
18525WAT     H155817   4.844   1.270   3.257
18525WAT     H255818   4.750   1.403   3.273
18526WAT      O55819   3.825   6.170   3.508
18526WAT     H155820   3.811   6.073   3.527
18526WAT     H255821   3.920   6.185   3.480
18527WAT      O55822   6.085   3.818   2.210
18527WAT     H155823   6.145   3.796   2.287
18527WAT     H255824   6.037   3.904   2.228
18528WAT      O55825   6.669   1.427   1.965
18528WAT     H155826   6.594   1.387   2.017
18528WAT     H255827   6.655   1.409   1.868
18529WAT      O55828   1.598   4.446   8.426
18529WAT     H155829   1.577   4.358   8.384
18529WAT     H255830   1.580   4.520   8.361
18530WAT      O55831   7.333   9.559   7.531
18530WAT     H155832   7.432   9.548   7.538
18530WAT     H255833   7.292   9.476   7.494
18531WAT      O55834   6.366   9.596   3.769
18531WAT     H155835   6.376   9.503   3.804
18531WAT     H255836   6.270   9.625   3.778
18532WAT      O55837   1.395   7.141   2.074
18532WAT     H155838   1.330   7.114   2.004
18532WAT     H255839   1.355   7.123   2.165
18533WAT      O55840   4.273   3.224   8.203
18533WAT     H155841   4.330   3.209   8.122
18533WAT     H255842   4.297   3.311   8.246
18534WAT      O55843   2.642   4.593   5.248
18534WAT     H155844   2.701   4.558   5.175
18534WAT     H255845   2.550   4.608   5.212
18535WAT      O55846   7.120   9.470   2.253
18535WAT     H155847   7.166   9.473   2.164
18535WAT     H255848   7.184   9.499   2.324
18536WAT      O55849   4.726   7.058   5.802
18536WAT     H155850   4.628   7.045   5.821
18536WAT     H255851   4.771   7.093   5.884
18537WAT      O55852   5.450   0.258   7.981
18537WAT     H155853   5.464   0.226   7.887
18537WAT     H255854   5.525   0.225   8.039
18538WAT      O55855   6.008   1.642   8.463
18538WAT     H155856   6.036   1.719   8.405
18538WAT     H255857   5.936   1.672   8.526
18539WAT      O55858   2.579   6.160   4.673
18539WAT     H155859   2.495   6.105   4.675
18539WAT     H255860   2.564   6.246   4.721
18540WAT      O55861   5.206   3.176   8.147
18540WAT     H155862   5.175   3.262   8.106
18540WAT     H255863   5.258   3.194   8.230
18541WAT      O55864   5.454   0.407   2.338
18541WAT     H155865   5.366   0.361   2.336
18541WAT     H255866   5.445   0.498   2.297
18542WAT      O55867   9.770   1.472   3.510
18542WAT     H155868   9.757   1.373   3.506
18542WAT     H255869   9.706   1.512   3.574
18543WAT      O55870   5.436   7.995   4.450
18543WAT     H155871   5.395   7.965   4.364
18543WAT     H255872   5.365   8.004   4.520
18544WAT      O55873   7.603   0.918   1.488
18544WAT     H155874   7.526   0.975   1.519
18544WAT     H255875   7.569   0.830   1.457
18545WAT      O55876   2.763   6.237   8.144
18545WAT     H155877   2.674   6.235   8.099
18545WAT     H255878   2.808   6.324   8.126
18546WAT      O55879   2.765   5.599   1.048
18546WAT     H155880   2.719   5.523   1.094
18546WAT     H255881   2.860   5.603   1.078
18547WAT      O55882   4.211   6.004   0.481
18547WAT     H155883   4.293   5.963   0.441
18547WAT     H255884   4.223   6.013   0.580
18548WAT      O55885   1.080   7.825   3.810
18548WAT     H155886   1.098   7.922   3.793
18548WAT     H255887   1.068   7.810   3.908
18549WAT      O55888   2.003   6.346   1.432
18549WAT     H155889   1.968   6.281   1.366
18549WAT     H255890   2.102   6.355   1.422
18550WAT      O55891   8.659   2.794   1.504
18550WAT     H155892   8.573   2.770   1.460
18550WAT     H255893   8.641   2.850   1.585
18551WAT      O55894   1.330   9.659   8.793
18551WAT     H155895   1.238   9.681   8.827
18551WAT     H255896   1.398   9.697   8.856
18552WAT      O55897   2.571   2.831   7.139
18552WAT     H155898   2.516   2.754   7.107
18552WAT     H255899   2.630   2.801   7.213
18553WAT      O55900   1.801   6.317   5.777
18553WAT     H155901   1.796   6.255   5.855
18553WAT     H255902   1.839   6.269   5.698
18554WAT      O55903   8.490   3.403   9.762
18554WAT     H155904   8.464   3.496   9.785
18554WAT     H255905   8.420   3.339   9.794
18555WAT      O55906   1.366   6.848   5.298
18555WAT     H155907   1.272   6.856   5.329
18555WAT     H255908   1.410   6.937   5.300
18556WAT      O55909   4.707   8.755   3.971
18556WAT     H155910   4.755   8.793   3.892
18556WAT     H255911   4.746   8.794   4.055
18557WAT      O55912   4.949   7.560   8.185
18557WAT     H155913   4.864   7.530   8.228
18557WAT     H255914   4.929   7.626   8.112
18558WAT      O55915   8.986   9.414   5.855
18558WAT     H155916   8.906   9.466   5.827
18558WAT     H255917   9.055   9.417   5.783
18559WAT      O55918   9.303   0.164   5.687
18559WAT     H155919   9.397   0.132   5.702
18559WAT     H255920   9.303   0.264   5.682
18560WAT      O55921   7.837   6.422   2.404
18560WAT     H155922   7.740   6.420   2.384
18560WAT     H255923   7.889   6.413   2.320
18561WAT      O55924   2.929   4.030   1.287
18561WAT     H155925   2.865   4.042   1.363
18561WAT     H255926   2.969   4.118   1.263
18562WAT      O55927   4.617   2.222   4.466
18562WAT     H155928   4.616   2.322   4.467
18562WAT     H255929   4.531   2.188   4.427
18563WAT      O55930   9.135   5.508   9.253
18563WAT     H155931   9.088   5.421   9.237
18563WAT     H255932   9.138   5.526   9.351
18564WAT      O55933   9.153   5.499   5.486
18564WAT     H155934   9.236   5.554   5.474
18564WAT     H255935   9.158   5.451   5.573
18565WAT      O55936   0.925   0.062   8.713
18565WAT     H155937   0.848   0.123   8.698
18565WAT     H255938   0.937   0.003   8.633
18566WAT      O55939   5.016   6.720   8.050
18566WAT     H155940   5.016   6.810   8.095
18566WAT     H255941   5.110   6.686   8.046
18567WAT      O55942   6.935   4.295   4.786
18567WAT     H155943   6.844   4.315   4.824
18567WAT     H255944   6.929   4.293   4.686
18568WAT      O55945   0.839   4.415   1.210
18568WAT     H155946   0.782   4.359   1.149
18568WAT     H255947   0.935   4.409   1.183
18569WAT      O55948   5.495   0.643   6.679
18569WAT     H155949   5.591   0.632   6.653
18569WAT     H255950   5.465   0.562   6.729
18570WAT      O55951   6.115   8.431   0.900
18570WAT     H155952   6.092   8.465   0.991
18570WAT     H255953   6.214   8.417   0.893
18571WAT      O55954   6.509   6.913   1.638
18571WAT     H155955   6.482   6.879   1.728
18571WAT     H255956   6.510   6.837   1.572
18572WAT      O55957   1.522   1.920   7.443
18572WAT     H155958   1.445   1.956   7.390
18572WAT     H255959   1.550   1.988   7.511
18573WAT      O55960   6.547   5.024   7.914
18573WAT     H155961   6.629   5.022   7.858
18573WAT     H255962   6.478   4.962   7.876
18574WAT      O55963   1.274   3.667   9.449
18574WAT     H155964   1.349   3.608   9.481
18574WAT     H255965   1.309   3.758   9.427
18575WAT      O55966   5.473   5.876   1.790
18575WAT     H155967   5.484   5.817   1.710
18575WAT     H255968   5.403   5.839   1.850
18576WAT      O55969   4.521   2.058   7.001
18576WAT     H155970   4.570   2.136   6.962
18576WAT     H255971   4.431   2.049   6.956
18577WAT      O55972   2.396   1.411   5.038
18577WAT     H155973   2.401   1.313   5.019
18577WAT     H255974   2.366   1.425   5.132
18578WAT      O55975   1.057   5.536   2.301
18578WAT     H155976   1.056   5.570   2.207
18578WAT     H255977   0.964   5.534   2.337
18579WAT      O55978   5.096   4.341   5.683
18579WAT     H155979   5.053   4.275   5.744
18579WAT     H255980   5.103   4.301   5.591
18580WAT      O55981   4.514   6.624   1.927
18580WAT     H155982   4.429   6.669   1.955
18580WAT     H255983   4.590   6.689   1.937
18581WAT      O55984   1.058   4.173   1.091
18581WAT     H155985   1.090   4.090   1.044
18581WAT     H255986   1.066   4.160   1.190
18582WAT      O55987   3.817   2.920   5.795
18582WAT     H155988   3.747   2.848   5.794
18582WAT     H255989   3.795   2.988   5.725
18583WAT      O55990   2.625   4.671   6.505
18583WAT     H155991   2.589   4.606   6.572
18583WAT     H255992   2.583   4.654   6.416
18584WAT      O55993   5.454   4.760   7.426
18584WAT     H155994   5.473   4.735   7.521
18584WAT     H255995   5.521   4.827   7.395
18585WAT      O55996   5.171   5.138   3.038
18585WAT     H155997   5.077   5.128   3.005
18585WAT     H255998   5.171   5.147   3.137
18586WAT      O55999   3.255   4.034   6.944
18586WAT     H156000   3.179   4.097   6.925
18586WAT     H256001   3.230   3.942   6.914
18587WAT      O56002   9.340   8.308   5.740
18587WAT     H156003   9.428   8.276   5.775
18587WAT     H256004   9.314   8.393   5.786
18588WAT      O56005   7.852   9.219   3.241
18588WAT     H156006   7.939   9.267   3.243
18588WAT     H256007   7.838   9.172   3.328
18589WAT      O56008   2.566   4.562   0.895
18589WAT     H156009   2.632   4.637   0.894
18589WAT     H256010   2.591   4.495   0.825
18590WAT      O56011   9.530   9.053   1.287
18590WAT     H156012   9.467   9.118   1.328
18590WAT     H256013   9.519   8.964   1.331
18591WAT      O56014   3.846   1.715   9.142
18591WAT     H156015   3.907   1.640   9.116
18591WAT     H256016   3.881   1.758   9.226
18592WAT      O56017   2.265   6.738   6.005
18592WAT     H156018   2.175   6.778   6.014
18592WAT     H256019   2.332   6.810   5.985
18593WAT      O56020   0.696   8.592   6.604
18593WAT     H156021   0.718   8.677   6.651
18593WAT     H256022   0.611   8.602   6.553
18594WAT      O56023   4.063   6.238   2.857
18594WAT     H156024   4.092   6.334   2.856
18594WAT     H256025   3.981   6.229   2.914
18595WAT      O56026   9.683   7.183   0.113
18595WAT     H156027   9.648   7.120   0.183
18595WAT     H256028   9.608   7.241   0.080
18596WAT      O56029   3.981   0.045   1.001
18596WAT     H156030   3.919  -0.018   1.048
18596WAT     H256031   4.055   0.070   1.063
18597WAT      O56032   8.916   8.198   7.503
18597WAT     H156033   8.966   8.123   7.547
18597WAT     H256034   8.902   8.272   7.569
18598WAT      O56035   4.261   3.841   7.611
18598WAT     H156036   4.341   3.856   7.553
18598WAT     H256037   4.258   3.745   7.639
18599WAT      O56038   8.529   0.459   1.476
18599WAT     H156039   8.559   0.363   1.477
18599WAT     H256040   8.607   0.518   1.496
18600WAT      O56041   2.858   3.034   2.694
18600WAT     H156042   2.876   2.962   2.761
18600WAT     H256043   2.835   2.993   2.606
18601WAT      O56044   7.411   3.300   4.208
18601WAT     H156045   7.344   3.294   4.281
18601WAT     H256046   7.429   3.396   4.187
18602WAT      O56047   8.964   0.793   2.601
18602WAT     H156048   8.942   0.842   2.685
18602WAT     H256049   8.940   0.849   2.522
18603WAT      O56050   6.016   1.307   6.654
18603WAT     H156051   6.104   1.304   6.608
18603WAT     H256052   5.967   1.390   6.628
18604WAT      O56053   0.904   0.986   5.390
18604WAT     H156054   0.851   1.068   5.409
18604WAT     H256055   0.987   1.010   5.339
18605WAT      O56056   8.555   7.495   6.109
18605WAT     H156057   8.610   7.424   6.065
18605WAT     H256058   8.458   7.478   6.094
18606WAT      O56059   0.531   2.850   3.194
18606WAT     H156060   0.599   2.839   3.267
18606WAT     H256061   0.451   2.898   3.230
18607WAT      O56062   4.103   1.664   0.996
18607WAT     H156063   4.154   1.698   0.917
18607WAT     H256064   4.080   1.567   0.981
18608WAT      O56065   5.666   1.779   5.001
18608WAT     H156066   5.644   1.834   5.082
18608WAT     H256067   5.586   1.726   4.975
18609WAT      O56068   5.708   2.744   2.872
18609WAT     H156069   5.649   2.763   2.950
18609WAT     H256070   5.722   2.828   2.819
18610WAT      O56071   3.246   0.279   9.323
18610WAT     H156072   3.261   0.375   9.347
18610WAT     H256073   3.220   0.272   9.227
18611WAT      O56074   8.962   7.626   4.361
18611WAT     H156075   9.054   7.641   4.325
18611WAT     H256076   8.967   7.576   4.447
18612WAT      O56077   9.857   6.967   9.132
18612WAT     H156078   9.848   6.956   9.033
18612WAT     H256079   9.899   6.885   9.171
18613WAT      O56080   6.458   9.109   8.038
18613WAT     H156081   6.500   9.191   8.077
18613WAT     H256082   6.417   9.054   8.110
18614WAT      O56083   0.516   3.350   2.856
18614WAT     H156084   0.574   3.293   2.914
18614WAT     H256085   0.474   3.421   2.911
18615WAT      O56086   3.263   2.885   3.719
18615WAT     H156087   3.346   2.893   3.774
18615WAT     H256088   3.191   2.941   3.759
18616WAT      O56089   3.893   5.675   3.671
18616WAT     H156090   3.986   5.679   3.710
18616WAT     H256091   3.829   5.642   3.740
18617WAT      O56092   2.490   8.900   2.203
18617WAT     H156093   2.521   8.807   2.222
18617WAT     H256094   2.564   8.951   2.159
18618WAT      O56095   4.163   7.479   1.604
18618WAT     H156096   4.138   7.453   1.698
18618WAT     H256097   4.176   7.578   1.600
18619WAT      O56098   8.810   6.191   7.088
18619WAT     H156099   8.776   6.153   7.174
18619WAT     H256100   8.899   6.152   7.067
18620WAT      O56101   5.187   3.510   2.700
18620WAT     H156102   5.143   3.424   2.675
18620WAT     H256103   5.150   3.543   2.786
18621WAT      O56104   4.073   5.567   9.369
18621WAT     H156105   3.999   5.616   9.414
18621WAT     H256106   4.093   5.610   9.280
18622WAT      O56107   8.042   4.401   1.820
18622WAT     H156108   8.002   4.345   1.748
18622WAT     H256109   8.127   4.358   1.853
18623WAT      O56110   2.269   8.610   6.679
18623WAT     H156111   2.174   8.631   6.703
18623WAT     H256112   2.306   8.685   6.625
18624WAT      O56113   7.540   3.829   5.271
18624WAT     H156114   7.446   3.864   5.270
18624WAT     H256115   7.592   3.875   5.344
18625WAT      O56116   1.943   8.805   0.336
18625WAT     H156117   2.025   8.861   0.321
18625WAT     H256118   1.966   8.730   0.397
18626WAT      O56119   9.301   2.710   8.086
18626WAT     H156120   9.337   2.787   8.034
18626WAT     H256121   9.377   2.653   8.119
18627WAT      O56122   7.126   2.275   1.450
18627WAT     H156123   7.149   2.371   1.467
18627WAT     H256124   7.035   2.271   1.407
18628WAT      O56125   7.887   6.025   9.554
18628WAT     H156126   7.890   6.083   9.635
18628WAT     H256127   7.812   6.054   9.495
18629WAT      O56128   6.146   8.050   1.760
18629WAT     H156129   6.220   7.987   1.736
18629WAT     H256130   6.116   8.031   1.854
18630WAT      O56131   8.445   2.830   7.394
18630WAT     H156132   8.526   2.829   7.451
18630WAT     H256133   8.389   2.911   7.416
18631WAT      O56134   7.589   5.204   6.730
18631WAT     H156135   7.510   5.170   6.680
18631WAT     H256136   7.611   5.142   6.805
18632WAT      O56137   5.886   6.434   4.361
18632WAT     H156138   5.861   6.522   4.321
18632WAT     H256139   5.902   6.367   4.288
18633WAT      O56140   3.896   5.069   6.819
18633WAT     H156141   3.907   5.154   6.870
18633WAT     H256142   3.945   5.075   6.732
18634WAT      O56143   0.731   8.333   1.366
18634WAT     H156144   0.726   8.415   1.423
18634WAT     H256145   0.822   8.325   1.326
18635WAT      O56146   6.706   3.680   1.153
18635WAT     H156147   6.758   3.673   1.068
18635WAT     H256148   6.609   3.661   1.134
18636WAT      O56149   5.570   0.145   3.184
18636WAT     H156150   5.669   0.161   3.190
18636WAT     H256151   5.529   0.163   3.273
18637WAT      O56152   3.271   8.004   3.161
18637WAT     H156153   3.181   8.001   3.119
18637WAT     H256154   3.278   7.934   3.232
18638WAT      O56155   2.181   2.052   0.706
18638WAT     H156156   2.244   1.992   0.657
18638WAT     H256157   2.122   2.099   0.640
18639WAT      O56158   9.449   6.703   6.924
18639WAT     H156159   9.478   6.624   6.978
18639WAT     H256160   9.379   6.675   6.859
18640WAT      O56161   0.319   4.935   2.741
18640WAT     H156162   0.361   4.945   2.651
18640WAT     H256163   0.375   4.874   2.798
18641WAT      O56164   0.762   7.334   8.863
18641WAT     H156165   0.735   7.254   8.916
18641WAT     H256166   0.679   7.381   8.831
18642WAT      O56167   6.632   1.032   5.642
18642WAT     H156168   6.599   1.089   5.566
18642WAT     H256169   6.601   0.938   5.628
18643WAT      O56170   4.700   3.194   0.078
18643WAT     H156171   4.707   3.278   0.025
18643WAT     H256172   4.622   3.140   0.045
18644WAT      O56173   8.332   7.879   9.878
18644WAT     H156174   8.280   7.846   9.799
18644WAT     H256175   8.269   7.904   9.951
18645WAT      O56176   6.622   4.772   5.889
18645WAT     H156177   6.532   4.776   5.844
18645WAT     H256178   6.685   4.722   5.830
18646WAT      O56179   2.189   3.675   2.244
18646WAT     H156180   2.251   3.610   2.287
18646WAT     H256181   2.099   3.671   2.289
18647WAT      O56182   1.115   2.334   9.754
18647WAT     H156183   1.103   2.339   9.655
18647WAT     H256184   1.181   2.262   9.776
18648WAT      O56185   1.667   2.372   2.145
18648WAT     H156186   1.735   2.444   2.162
18648WAT     H256187   1.603   2.402   2.075
18649WAT      O56188   8.049   0.642   1.466
18649WAT     H156189   8.073   0.560   1.519
18649WAT     H256190   8.086   0.723   1.512
18650WAT      O56191   4.962   0.221   8.707
18650WAT     H156192   4.885   0.195   8.648
18650WAT     H256193   5.012   0.296   8.664
18651WAT      O56194   5.198   6.298   8.293
18651WAT     H156195   5.161   6.313   8.385
18651WAT     H256196   5.205   6.386   8.246
18652WAT      O56197   5.421   9.098   1.975
18652WAT     H156198   5.348   9.102   2.044
18652WAT     H256199   5.507   9.125   2.017
18653WAT      O56200   5.422   0.444   8.427
18653WAT     H156201   5.388   0.423   8.335
18653WAT     H256202   5.484   0.371   8.456
18654WAT      O56203   6.050   2.388   9.650
18654WAT     H156204   6.071   2.383   9.552
18654WAT     H256205   5.950   2.388   9.662
18655WAT      O56206   3.197   5.665   5.703
18655WAT     H156207   3.262   5.710   5.764
18655WAT     H256208   3.233   5.665   5.610
18656WAT      O56209   5.006   8.690   5.915
18656WAT     H156210   4.982   8.787   5.923
18656WAT     H256211   4.942   8.635   5.969
18657WAT      O56212   4.047   2.137   3.172
18657WAT     H156213   3.984   2.148   3.095
18657WAT     H256214   4.088   2.226   3.194
18658WAT      O56215   7.029   8.652   3.831
18658WAT     H156216   6.932   8.673   3.846
18658WAT     H256217   7.075   8.733   3.795
18659WAT      O56218   3.343   9.694   1.852
18659WAT     H156219   3.289   9.750   1.789
18659WAT     H256220   3.316   9.598   1.843
18660WAT      O56221   0.091   2.822   0.342
18660WAT     H156222   0.123   2.803   0.435
18660WAT     H256223  -0.001   2.785   0.330
18661WAT      O56224   2.160   9.433   9.033
18661WAT     H156225   2.245   9.486   9.022
18661WAT     H256226   2.118   9.418   8.943
18662WAT      O56227   1.808   2.950   6.493
18662WAT     H156228   1.872   3.018   6.528
18662WAT     H256229   1.735   2.995   6.443
18663WAT      O56230   0.981   7.211   0.493
18663WAT     H156231   0.969   7.144   0.566
18663WAT     H256232   1.076   7.243   0.492
18664WAT      O56233   5.706   1.808   4.394
18664WAT     H156234   5.620   1.794   4.444
18664WAT     H256235   5.726   1.726   4.340
18665WAT      O56236   1.863   8.744   8.903
18665WAT     H156237   1.799   8.736   8.979
18665WAT     H256238   1.831   8.687   8.827
18666WAT      O56239   7.426   5.104   8.092
18666WAT     H156240   7.387   5.020   8.054
18666WAT     H256241   7.474   5.084   8.177
18667WAT      O56242   0.118   1.259   5.787
18667WAT     H156243   0.179   1.192   5.829
18667WAT     H256244   0.057   1.214   5.723
18668WAT      O56245   5.155   8.849   2.528
18668WAT     H156246   5.091   8.924   2.512
18668WAT     H256247   5.248   8.880   2.507
18669WAT      O56248   7.873   3.110   8.280
18669WAT     H156249   7.861   3.167   8.361
18669WAT     H256250   7.813   3.031   8.286
18670WAT      O56251   6.382   0.012   4.136
18670WAT     H156252   6.401   0.014   4.038
18670WAT     H256253   6.452  -0.043   4.182
18671WAT      O56254   5.424   4.083   7.941
18671WAT     H156255   5.486   4.152   7.978
18671WAT     H256256   5.330   4.104   7.970
18672WAT      O56257   2.433   1.520   1.180
18672WAT     H156258   2.497   1.520   1.256
18672WAT     H256259   2.339   1.522   1.215
18673WAT      O56260   4.218   3.511   4.084
18673WAT     H156261   4.151   3.586   4.086
18673WAT     H256262   4.191   3.445   4.014
18674WAT      O56263   3.399   3.457   6.998
18674WAT     H156264   3.477   3.484   7.053
18674WAT     H256265   3.373   3.363   7.022
18675WAT      O56266   2.405   1.314   9.190
18675WAT     H156267   2.466   1.355   9.122
18675WAT     H256268   2.459   1.278   9.266
18676WAT      O56269   6.094   6.744   9.695
18676WAT     H156270   6.018   6.805   9.671
18676WAT     H256271   6.180   6.793   9.687
18677WAT      O56272   8.674   6.055   7.297
18677WAT     H156273   8.614   6.066   7.376
18677WAT     H256274   8.720   5.967   7.302
18678WAT      O56275   7.937   3.163   4.248
18678WAT     H156276   7.976   3.159   4.156
18678WAT     H256277   7.841   3.193   4.242
18679WAT      O56278   0.959   7.408   7.196
18679WAT     H156279   1.039   7.443   7.147
18679WAT     H256280   0.982   7.321   7.239
18680WAT      O56281   3.041   7.986   8.418
18680WAT     H156282   2.988   7.986   8.333
18680WAT     H256283   3.138   7.992   8.397
18681WAT      O56284   5.971   7.068   7.368
18681WAT     H156285   5.966   7.131   7.446
18681WAT     H256286   5.952   7.119   7.284
18682WAT      O56287   7.278   1.675   0.256
18682WAT     H156288   7.366   1.714   0.283
18682WAT     H256289   7.226   1.651   0.338
18683WAT      O56290   4.611   8.656   5.007
18683WAT     H156291   4.523   8.615   5.032
18683WAT     H256292   4.642   8.617   4.921
18684WAT      O56293   9.342   6.673   5.277
18684WAT     H156294   9.329   6.641   5.183
18684WAT     H256295   9.273   6.630   5.336
18685WAT      O56296   2.550   8.520   2.705
18685WAT     H156297   2.465   8.481   2.740
18685WAT     H256298   2.611   8.447   2.675
18686WAT      O56299   9.161   4.631   7.098
18686WAT     H156300   9.108   4.671   7.024
18686WAT     H256301   9.257   4.658   7.089
18687WAT      O56302   4.289   6.923   1.650
18687WAT     H156303   4.332   6.834   1.664
18687WAT     H256304   4.265   6.963   1.739
18688WAT      O56305   7.797   2.238   4.998
18688WAT     H156306   7.868   2.278   4.940
18688WAT     H256307   7.715   2.220   4.943
18689WAT      O56308   3.181   0.272   4.661
18689WAT     H156309   3.281   0.274   4.665
18689WAT     H256310   3.146   0.362   4.636
18690WAT      O56311   1.251   0.963   5.696
18690WAT     H156312   1.299   1.003   5.618
18690WAT     H256313   1.223   0.870   5.674
18691WAT      O56314   5.450   1.886   3.231
18691WAT     H156315   5.421   1.835   3.311
18691WAT     H256316   5.377   1.949   3.203
18692WAT      O56317   3.154   1.341   8.606
18692WAT     H156318   3.108   1.366   8.521
18692WAT     H256319   3.157   1.420   8.667
18693WAT      O56320   7.218   5.410   9.594
18693WAT     H156321   7.286   5.354   9.640
18693WAT     H256322   7.235   5.507   9.612
18694WAT      O56323   6.687   4.310   9.285
18694WAT     H156324   6.636   4.225   9.299
18694WAT     H256325   6.692   4.360   9.372
18695WAT      O56326   4.175   1.091   4.934
18695WAT     H156327   4.203   1.051   5.022
18695WAT     H256328   4.248   1.078   4.867
18696WAT      O56329   6.424   2.668   4.000
18696WAT     H156330   6.469   2.697   4.085
18696WAT     H256331   6.404   2.749   3.944
18697WAT      O56332   7.350   1.727   3.390
18697WAT     H156333   7.250   1.722   3.392
18697WAT     H256334   7.379   1.823   3.397
18698WAT      O56335   1.736   7.216   2.345
18698WAT     H156336   1.742   7.226   2.445
18698WAT     H256337   1.750   7.305   2.302
18699WAT      O56338   6.545   9.292   7.521
18699WAT     H156339   6.643   9.272   7.516
18699WAT     H256340   6.496   9.238   7.453
18700WAT      O56341   8.979   0.662   6.807
18700WAT     H156342   8.990   0.581   6.863
18700WAT     H256343   9.011   0.643   6.714
18701WAT      O56344   7.271   2.424   4.668
18701WAT     H156345   7.328   2.417   4.586
18701WAT     H256346   7.197   2.358   4.662
18702WAT      O56347   3.686   0.093   1.916
18702WAT     H156348   3.710   0.091   1.819
18702WAT     H256349   3.720   0.177   1.957
18703WAT      O56350   1.899   2.916   4.882
18703WAT     H156351   1.888   2.842   4.948
18703WAT     H256352   1.811   2.960   4.866
18704WAT      O56353   6.439   6.688   3.767
18704WAT     H156354   6.452   6.783   3.794
18704WAT     H256355   6.348   6.658   3.794
18705WAT      O56356   1.783   0.907   5.129
18705WAT     H156357   1.725   0.968   5.075
18705WAT     H256358   1.787   0.941   5.223
18706WAT      O56359   8.046   9.627   6.677
18706WAT     H156360   7.995   9.608   6.593
18706WAT     H256361   7.984   9.623   6.755
18707WAT      O56362   6.428   2.317   8.517
18707WAT     H156363   6.464   2.243   8.574
18707WAT     H256364   6.400   2.281   8.429
18708WAT      O56365   7.568   8.667   9.737
18708WAT     H156366   7.554   8.580   9.785
18708WAT     H256367   7.662   8.671   9.702
18709WAT      O56368   9.748   1.868   3.529
18709WAT     H156369   9.832   1.855   3.477
18709WAT     H256370   9.711   1.959   3.511
18710WAT      O56371   7.981   5.376   7.858
18710WAT     H156372   8.025   5.295   7.820
18710WAT     H256373   7.927   5.421   7.786
18711WAT      O56374   5.655   1.815   6.106
18711WAT     H156375   5.704   1.758   6.171
18711WAT     H256376   5.625   1.758   6.029
18712WAT      O56377   4.876   4.379   3.812
18712WAT     H156378   4.823   4.344   3.889
18712WAT     H256379   4.936   4.452   3.844
18713WAT      O56380   3.950   5.704   9.802
18713WAT     H156381   3.920   5.726   9.895
18713WAT     H256382   4.008   5.623   9.804
18714WAT      O56383   9.372   4.994   5.701
18714WAT     H156384   9.371   4.896   5.682
18714WAT     H256385   9.399   5.010   5.796
18715WAT      O56386   4.798   5.639   8.881
18715WAT     H156387   4.803   5.647   8.980
18715WAT     H256388   4.703   5.649   8.851
18716WAT      O56389   3.918   1.502   1.362
18716WAT     H156390   3.921   1.425   1.426
18716WAT     H256391   4.009   1.518   1.325
18717WAT      O56392   2.162   4.019   7.415
18717WAT     H156393   2.181   3.969   7.500
18717WAT     H256394   2.185   3.961   7.337
18718WAT      O56395   8.999   9.802   6.387
18718WAT     H156396   9.051   9.719   6.365
18718WAT     H256397   9.054   9.861   6.447
18719WAT      O56398   9.030   8.320   1.551
18719WAT     H156399   8.999   8.300   1.458
18719WAT     H256400   8.975   8.269   1.617
18720WAT      O56401   6.413   0.967   8.359
18720WAT     H156402   6.355   0.887   8.374
18720WAT     H256403   6.501   0.953   8.405
18721WAT      O56404   1.259   1.180   0.731
18721WAT     H156405   1.268   1.230   0.645
18721WAT     H256406   1.247   1.245   0.806
18722WAT      O56407   7.013   8.886   7.175
18722WAT     H156408   6.916   8.870   7.162
18722WAT     H256409   7.065   8.810   7.135
18723WAT      O56410   4.351   7.412   8.919
18723WAT     H156411   4.428   7.436   8.978
18723WAT     H256412   4.342   7.480   8.846
18724WAT      O56413   3.175   8.814   0.728
18724WAT     H156414   3.215   8.815   0.820
18724WAT     H256415   3.076   8.805   0.735
18725WAT      O56416   3.169   4.840   2.440
18725WAT     H156417   3.164   4.919   2.500
18725WAT     H256418   3.226   4.861   2.361
18726WAT      O56419   5.886   5.481   9.644
18726WAT     H156420   5.802   5.525   9.611
18726WAT     H256421   5.904   5.510   9.738
18727WAT      O56422   7.844   4.055   6.003
18727WAT     H156423   7.819   4.151   6.014
18727WAT     H256424   7.802   4.019   5.919
18728WAT      O56425   8.107   0.761   0.511
18728WAT     H156426   8.051   0.773   0.429
18728WAT     H256427   8.065   0.809   0.588
18729WAT      O56428   0.369   1.072   4.351
18729WAT     H156429   0.351   1.167   4.325
18729WAT     H256430   0.462   1.063   4.387
18730WAT      O56431   0.678   2.546   9.672
18730WAT     H156432   0.612   2.492   9.725
18730WAT     H256433   0.765   2.550   9.720
18731WAT      O56434   0.351   6.102   0.976
18731WAT     H156435   0.451   6.096   0.987
18731WAT     H256436   0.320   6.191   1.010
18732WAT      O56437   6.113   9.073   0.518
18732WAT     H156438   6.077   9.131   0.445
18732WAT     H256439   6.042   9.011   0.550
18733WAT      O56440   2.924   6.185   1.098
18733WAT     H156441   2.960   6.273   1.068
18733WAT     H256442   2.974   6.153   1.179
18734WAT      O56443   0.355   5.657   9.221
18734WAT     H156444   0.313   5.746   9.201
18734WAT     H256445   0.291   5.600   9.272
18735WAT      O56446   6.844   1.640   9.688
18735WAT     H156447   6.798   1.581   9.754
18735WAT     H256448   6.795   1.726   9.681
18736WAT      O56449   2.099   5.243   0.991
18736WAT     H156450   2.132   5.284   0.906
18736WAT     H256451   2.166   5.177   1.025
18737WAT      O56452   7.704   8.108   9.895
18737WAT     H156453   7.713   8.088   9.797
18737WAT     H256454   7.729   8.203   9.912
18738WAT      O56455   3.689   7.451   3.279
18738WAT     H156456   3.663   7.483   3.370
18738WAT     H256457   3.786   7.469   3.264
18739WAT      O56458   2.754   5.756   9.188
18739WAT     H156459   2.704   5.840   9.209
18739WAT     H256460   2.837   5.778   9.136
18740WAT      O56461   1.942   4.209   5.624
18740WAT     H156462   2.040   4.227   5.627
18740WAT     H256463   1.913   4.192   5.530
18741WAT      O56464   0.875   6.895   1.824
18741WAT     H156465   0.820   6.965   1.778
18741WAT     H256466   0.921   6.838   1.755
18742WAT      O56467   7.506   1.113   6.772
18742WAT     H156468   7.435   1.088   6.838
18742WAT     H256469   7.501   1.052   6.693
18743WAT      O56470   5.059   4.272   2.987
18743WAT     H156471   5.113   4.295   3.069
18743WAT     H256472   4.973   4.322   2.989
18744WAT      O56473   5.555   2.144   9.529
18744WAT     H156474   5.622   2.101   9.588
18744WAT     H256475   5.599   2.217   9.475
18745WAT      O56476   1.008   5.475   3.382
18745WAT     H156477   1.043   5.453   3.473
18745WAT     H256478   1.064   5.429   3.313
18746WAT      O56479   2.532   4.417   7.439
18746WAT     H156480   2.589   4.382   7.364
18746WAT     H256481   2.450   4.460   7.401
18747WAT      O56482   6.123   7.673   9.565
18747WAT     H156483   6.187   7.651   9.491
18747WAT     H256484   6.075   7.758   9.545
18748WAT      O56485   7.909   9.346   6.452
18748WAT     H156486   8.001   9.380   6.432
18748WAT     H256487   7.860   9.413   6.507
18749WAT      O56488   5.038   0.037   1.583
18749WAT     H156489   5.097   0.104   1.539
18749WAT     H256490   4.942   0.057   1.564
18750WAT      O56491   5.862   8.847   7.307
18750WAT     H156492   5.922   8.887   7.238
18750WAT     H256493   5.892   8.754   7.328
18751WAT      O56494   5.310   4.634   6.373
18751WAT     H156495   5.328   4.639   6.275
18751WAT     H256496   5.239   4.700   6.398
18752WAT      O56497   4.235   0.646   0.652
18752WAT     H156498   4.274   0.627   0.561
18752WAT     H256499   4.298   0.615   0.722
18753WAT      O56500   3.962   6.812   3.289
18753WAT     H156501   3.892   6.882   3.304
18753WAT     H256502   3.974   6.757   3.372
18754WAT      O56503   2.269   3.628   1.613
18754WAT     H156504   2.287   3.726   1.625
18754WAT     H256505   2.257   3.608   1.516
18755WAT      O56506   4.482   4.633   5.696
18755WAT     H156507   4.490   4.604   5.791
18755WAT     H256508   4.421   4.572   5.647
18756WAT      O56509   3.197   6.085   2.338
18756WAT     H156510   3.132   6.131   2.398
18756WAT     H256511   3.259   6.030   2.393
18757WAT      O56512   7.239   1.874   0.835
18757WAT     H156513   7.274   1.932   0.909
18757WAT     H256514   7.239   1.779   0.866
18758WAT      O56515   0.719   3.996   9.261
18758WAT     H156516   0.619   4.003   9.251
18758WAT     H256517   0.762   4.074   9.215
18759WAT      O56518   0.480   1.974   1.532
18759WAT     H156519   0.520   1.883   1.536
18759WAT     H256520   0.387   1.972   1.568
18760WAT      O56521   7.499   1.435   7.814
18760WAT     H156522   7.569   1.472   7.752
18760WAT     H256523   7.537   1.425   7.906
18761WAT      O56524   1.148   5.838   3.898
18761WAT     H156525   1.221   5.768   3.893
18761WAT     H256526   1.180   5.915   3.953
18762WAT      O56527   6.749   3.540   6.979
18762WAT     H156528   6.840   3.572   6.953
18762WAT     H256529   6.743   3.534   7.079
18763WAT      O56530   3.771   4.961   9.474
18763WAT     H156531   3.840   4.896   9.442
18763WAT     H256532   3.697   4.965   9.407
18764WAT      O56533   9.413   9.549   4.460
18764WAT     H156534   9.433   9.513   4.551
18764WAT     H256535   9.329   9.602   4.463
18765WAT      O56536   3.648   2.032   6.104
18765WAT     H156537   3.670   2.126   6.130
18765WAT     H256538   3.572   1.999   6.159
18766WAT      O56539   7.623   0.164   2.379
18766WAT     H156540   7.698   0.192   2.320
18766WAT     H256541   7.548   0.128   2.323
18767WAT      O56542   2.160   2.505   0.984
18767WAT     H156543   2.223   2.438   1.022
18767WAT     H256544   2.182   2.521   0.887
18768WAT      O56545   9.877   5.572   8.592
18768WAT     H156546   9.890   5.563   8.691
18768WAT     H256547   9.824   5.495   8.558
18769WAT      O56548   3.767   4.882   0.171
18769WAT     H156549   3.807   4.902   0.082
18769WAT     H256550   3.669   4.868   0.162
18770WAT      O56551   8.259   0.209   5.479
18770WAT     H156552   8.317   0.241   5.554
18770WAT     H256553   8.163   0.220   5.505
18771WAT      O56554   7.913   3.399   2.822
18771WAT     H156555   7.817   3.386   2.845
18771WAT     H256556   7.955   3.311   2.801
18772WAT      O56557   7.839   8.757   6.037
18772WAT     H156558   7.834   8.825   6.110
18772WAT     H256559   7.754   8.759   5.984
18773WAT      O56560   5.915   6.817   2.558
18773WAT     H156561   5.841   6.862   2.606
18773WAT     H256562   5.955   6.881   2.492
18774WAT      O56563   4.690   3.823   9.014
18774WAT     H156564   4.747   3.904   9.028
18774WAT     H256565   4.649   3.796   9.101
18775WAT      O56566   6.847   4.996   4.032
18775WAT     H156567   6.863   5.040   4.120
18775WAT     H256568   6.930   5.003   3.976
18776WAT      O56569   7.386   2.550   8.330
18776WAT     H156570   7.357   2.484   8.399
18776WAT     H256571   7.312   2.563   8.264
18777WAT      O56572   2.974   2.038   9.609
18777WAT     H156573   2.941   2.100   9.538
18777WAT     H256574   3.074   2.047   9.617
18778WAT      O56575   2.870   9.226   3.781
18778WAT     H156576   2.773   9.246   3.799
18778WAT     H256577   2.887   9.129   3.799
18779WAT      O56578   7.591   7.764   8.668
18779WAT     H156579   7.564   7.685   8.614
18779WAT     H256580   7.605   7.736   8.763
18780WAT      O56581   5.925   9.387   4.147
18780WAT     H156582   5.995   9.323   4.179
18780WAT     H256583   5.845   9.382   4.207
18781WAT      O56584   1.265   1.168   8.527
18781WAT     H156585   1.306   1.235   8.465
18781WAT     H256586   1.334   1.100   8.552
18782WAT      O56587   2.080   0.198   8.514
18782WAT     H156588   2.115   0.291   8.508
18782WAT     H256589   2.157   0.134   8.520
18783WAT      O56590   5.682   7.036   2.521
18783WAT     H156591   5.614   7.109   2.525
18783WAT     H256592   5.637   6.948   2.512
18784WAT      O56593   5.875   9.586   2.653
18784WAT     H156594   5.972   9.606   2.666
18784WAT     H256595   5.862   9.488   2.639
18785WAT      O56596   2.170   0.720   1.450
18785WAT     H156597   2.179   0.655   1.376
18785WAT     H256598   2.260   0.737   1.492
18786WAT      O56599   6.007   4.971   3.071
18786WAT     H156600   6.067   4.979   2.991
18786WAT     H256601   6.014   4.879   3.110
18787WAT      O56602   5.035   7.008   8.093
18787WAT     H156603   5.062   7.025   8.188
18787WAT     H256604   4.941   7.037   8.079
18788WAT      O56605   4.189   0.901   2.654
18788WAT     H156606   4.129   0.852   2.591
18788WAT     H256607   4.135   0.933   2.733
18789WAT      O56608   2.179   6.007   9.544
18789WAT     H156609   2.108   6.007   9.614
18789WAT     H256610   2.188   5.915   9.506
18790WAT      O56611   1.051   1.925   0.424
18790WAT     H156612   1.135   1.952   0.471
18790WAT     H256613   1.067   1.925   0.325
18791WAT      O56614   0.854   1.663   1.735
18791WAT     H156615   0.858   1.586   1.798
18791WAT     H256616   0.859   1.629   1.641
18792WAT      O56617   3.140   8.392   9.482
18792WAT     H156618   3.109   8.486   9.463
18792WAT     H256619   3.090   8.356   9.561
18793WAT      O56620   5.147   9.348   3.911
18793WAT     H156621   5.236   9.363   3.867
18793WAT     H256622   5.084   9.309   3.844
18794WAT      O56623   8.491   1.432   2.599
18794WAT     H156624   8.393   1.446   2.617
18794WAT     H256625   8.507   1.336   2.577
18795WAT      O56626   9.461   7.437   0.443
18795WAT     H156627   9.368   7.467   0.463
18795WAT     H256628   9.527   7.495   0.491
18796WAT      O56629   1.538   1.378   9.393
18796WAT     H156630   1.556   1.286   9.426
18796WAT     H256631   1.440   1.390   9.378
18797WAT      O56632   6.480   0.549   2.035
18797WAT     H156633   6.441   0.577   2.123
18797WAT     H256634   6.578   0.535   2.045
18798WAT      O56635   1.869   2.020   0.269
18798WAT     H156636   1.795   1.990   0.209
18798WAT     H256637   1.928   2.084   0.220
18799WAT      O56638   7.964   4.128   9.448
18799WAT     H156639   8.047   4.089   9.487
18799WAT     H256640   7.884   4.076   9.478
18800WAT      O56641   8.735   7.260   4.410
18800WAT     H156642   8.695   7.189   4.352
18800WAT     H256643   8.834   7.258   4.401
18801WAT      O56644   4.694   1.978   7.189
18801WAT     H156645   4.760   2.053   7.191
18801WAT     H256646   4.611   2.009   7.142
18802WAT      O56647   2.732   9.355   8.821
18802WAT     H156648   2.727   9.311   8.731
18802WAT     H256649   2.798   9.430   8.817
18803WAT      O56650   7.421   4.559   3.988
18803WAT     H156651   7.490   4.544   3.918
18803WAT     H256652   7.336   4.589   3.946
18804WAT      O56653   7.899   9.177   1.484
18804WAT     H156654   7.942   9.261   1.516
18804WAT     H256655   7.962   9.101   1.494
18805WAT      O56656   4.467   1.612   1.926
18805WAT     H156657   4.500   1.681   1.861
18805WAT     H256658   4.367   1.615   1.931
18806WAT      O56659   1.697   4.073   2.222
18806WAT     H156660   1.700   3.999   2.289
18806WAT     H256661   1.693   4.161   2.269
18807WAT      O56662   7.642   6.943   5.487
18807WAT     H156663   7.605   7.030   5.520
18807WAT     H256664   7.594   6.868   5.533
18808WAT      O56665   3.438   5.744   1.039
18808WAT     H156666   3.438   5.653   0.996
18808WAT     H256667   3.445   5.734   1.138
18809WAT      O56668   9.692   8.717   1.107
18809WAT     H156669   9.757   8.786   1.139
18809WAT     H256670   9.679   8.649   1.179
18810WAT      O56671   5.328   1.240   3.186
18810WAT     H156672   5.249   1.208   3.236
18810WAT     H256673   5.371   1.163   3.138
18811WAT      O56674   3.451   8.027   5.613
18811WAT     H156675   3.516   8.048   5.686
18811WAT     H256676   3.451   8.101   5.546
18812WAT      O56677   3.241   9.481   5.616
18812WAT     H156678   3.302   9.554   5.644
18812WAT     H256679   3.291   9.395   5.611
18813WAT      O56680   5.139   6.437   7.311
18813WAT     H156681   5.176   6.444   7.218
18813WAT     H256682   5.173   6.513   7.366
18814WAT      O56683   4.265   0.380   4.784
18814WAT     H156684   4.272   0.423   4.874
18814WAT     H256685   4.279   0.450   4.713
18815WAT      O56686   4.218   7.736   1.607
18815WAT     H156687   4.171   7.762   1.523
18815WAT     H256688   4.283   7.808   1.633
18816WAT      O56689   4.587   8.028   6.504
18816WAT     H156690   4.561   7.981   6.589
18816WAT     H256691   4.556   8.123   6.507
18817WAT      O56692   7.920   0.538   9.618
18817WAT     H156693   7.983   0.526   9.542
18817WAT     H256694   7.927   0.632   9.653
18818WAT      O56695   6.915   7.764   0.296
18818WAT     H156696   6.887   7.852   0.335
18818WAT     H256697   6.871   7.750   0.208
18819WAT      O56698   3.886   9.499   7.041
18819WAT     H156699   3.980   9.526   7.062
18819WAT     H256700   3.823   9.572   7.067
18820WAT      O56701   8.052   6.611   6.845
18820WAT     H156702   8.014   6.541   6.906
18820WAT     H256703   8.026   6.702   6.879
18821WAT      O56704   5.224   9.583   9.845
18821WAT     H156705   5.170   9.527   9.909
18821WAT     H256706   5.319   9.553   9.848
18822WAT      O56707   7.214   5.029   2.963
18822WAT     H156708   7.201   5.078   3.049
18822WAT     H256709   7.295   5.065   2.916
18823WAT      O56710   5.873   3.342   7.437
18823WAT     H156711   5.795   3.327   7.498
18823WAT     H256712   5.938   3.404   7.480
18824WAT      O56713   1.076   2.359   0.302
18824WAT     H156714   1.146   2.422   0.336
18824WAT     H256715   0.991   2.373   0.354
18825WAT      O56716   5.228   3.082   0.803
18825WAT     H156717   5.264   3.058   0.893
18825WAT     H256718   5.293   3.052   0.732
18826WAT      O56719   5.414   7.260   0.180
18826WAT     H156720   5.390   7.186   0.118
18826WAT     H256721   5.417   7.225   0.274
18827WAT      O56722   8.612   9.615   3.100
18827WAT     H156723   8.655   9.681   3.161
18827WAT     H256724   8.677   9.588   3.029
18828WAT      O56725   3.572   7.938   2.311
18828WAT     H156726   3.561   8.032   2.342
18828WAT     H256727   3.635   7.890   2.372
18829WAT      O56728   8.725   4.380   6.494
18829WAT     H156729   8.648   4.388   6.558
18829WAT     H256730   8.692   4.347   6.406
18830WAT      O56731   3.602   0.377   5.049
18830WAT     H156732   3.568   0.388   4.956
18830WAT     H256733   3.670   0.447   5.069
18831WAT      O56734   7.344   5.466   0.247
18831WAT     H156735   7.280   5.419   0.188
18831WAT     H256736   7.400   5.529   0.193
18832WAT      O56737   7.357   2.796   1.121
18832WAT     H156738   7.346   2.896   1.124
18832WAT     H256739   7.279   2.752   1.166
18833WAT      O56740   3.400   6.691   8.031
18833WAT     H156741   3.437   6.702   8.123
18833WAT     H256742   3.432   6.605   7.993
18834WAT      O56743   2.192   3.812   1.288
18834WAT     H156744   2.175   3.789   1.192
18834WAT     H256745   2.280   3.774   1.316
18835WAT      O56746   8.050   0.541   7.442
18835WAT     H156747   7.983   0.609   7.471
18835WAT     H256748   8.142   0.574   7.464
18836WAT      O56749   8.941   7.860   6.301
18836WAT     H156750   8.990   7.927   6.245
18836WAT     H256751   8.842   7.868   6.284
18837WAT      O56752   4.386   8.451   4.527
18837WAT     H156753   4.432   8.540   4.537
18837WAT     H256754   4.426   8.386   4.591
18838WAT      O56755   0.804   6.959   6.528
18838WAT     H156756   0.889   7.000   6.492
18838WAT     H256757   0.781   6.879   6.474
18839WAT      O56758   1.152   5.331   6.093
18839WAT     H156759   1.187   5.347   6.001
18839WAT     H256760   1.119   5.417   6.131
18840WAT      O56761   4.179   3.373   3.361
18840WAT     H156762   4.152   3.470   3.366
18840WAT     H256763   4.275   3.364   3.387
18841WAT      O56764   7.115   0.928   8.454
18841WAT     H156765   7.132   1.010   8.509
18841WAT     H256766   7.085   0.955   8.363
18842WAT      O56767   4.449   4.550   9.340
18842WAT     H156768   4.430   4.647   9.322
18842WAT     H256769   4.519   4.542   9.411
18843WAT      O56770   3.506   9.209   1.687
18843WAT     H156771   3.579   9.178   1.747
18843WAT     H256772   3.446   9.132   1.664
18844WAT      O56773   2.840   0.244   5.115
18844WAT     H156774   2.929   0.287   5.096
18844WAT     H256775   2.855   0.147   5.138
18845WAT      O56776   7.041   3.978   3.740
18845WAT     H156777   7.038   3.879   3.725
18845WAT     H256778   7.015   3.999   3.834
18846WAT      O56779   1.236   5.965   1.479
18846WAT     H156780   1.140   5.941   1.463
18846WAT     H256781   1.285   5.968   1.392
18847WAT      O56782   5.444   8.863   0.935
18847WAT     H156783   5.448   8.960   0.958
18847WAT     H256784   5.349   8.836   0.919
18848WAT      O56785   0.725   3.788   0.339
18848WAT     H156786   0.662   3.718   0.307
18848WAT     H256787   0.812   3.781   0.290
18849WAT      O56788   1.365   2.395   6.775
18849WAT     H156789   1.402   2.305   6.799
18849WAT     H256790   1.328   2.439   6.857
18850WAT      O56791   1.813   5.495   0.429
18850WAT     H156792   1.795   5.456   0.339
18850WAT     H256793   1.814   5.422   0.497
18851WAT      O56794   1.611   9.286   8.627
18851WAT     H156795   1.672   9.244   8.695
18851WAT     H256796   1.660   9.296   8.541
18852WAT      O56797   8.329   5.461   5.683
18852WAT     H156798   8.391   5.506   5.620
18852WAT     H256799   8.234   5.479   5.656
18853WAT      O56800   4.198   0.985   3.421
18853WAT     H156801   4.262   0.909   3.410
18853WAT     H256802   4.249   1.071   3.427
18854WAT      O56803   4.220   9.547   3.301
18854WAT     H156804   4.276   9.468   3.326
18854WAT     H256805   4.200   9.543   3.203
18855WAT      O56806   5.141   5.938   6.434
18855WAT     H156807   5.072   5.878   6.473
18855WAT     H256808   5.127   6.031   6.468
18856WAT      O56809   1.073   3.648   2.035
18856WAT     H156810   1.052   3.731   1.984
18856WAT     H256811   0.992   3.618   2.084
18857WAT      O56812   8.296   1.948   8.043
18857WAT     H156813   8.387   1.943   8.003
18857WAT     H256814   8.227   1.944   7.970
18858WAT      O56815   3.998   1.071   7.637
18858WAT     H156816   4.061   0.993   7.640
18858WAT     H256817   4.030   1.142   7.699
18859WAT      O56818   5.988   4.521   4.054
18859WAT     H156819   5.994   4.551   4.149
18859WAT     H256820   6.030   4.431   4.045
18860WAT      O56821   2.987   6.451   5.479
18860WAT     H156822   2.946   6.380   5.536
18860WAT     H256823   2.918   6.487   5.416
18861WAT      O56824   0.106   4.359   3.353
18861WAT     H156825   0.055   4.365   3.267
18861WAT     H256826   0.157   4.273   3.356
18862WAT      O56827   3.387   9.750   9.462
18862WAT     H156828   3.461   9.691   9.496
18862WAT     H256829   3.413   9.789   9.374
18863WAT      O56830   7.391   2.046   9.031
18863WAT     H156831   7.409   2.137   9.068
18863WAT     H256832   7.321   2.001   9.086
18864WAT      O56833   8.553   9.506   2.666
18864WAT     H156834   8.512   9.595   2.646
18864WAT     H256835   8.500   9.434   2.620
18865WAT      O56836   6.547   6.247   1.149
18865WAT     H156837   6.469   6.201   1.107
18865WAT     H256838   6.536   6.246   1.248
18866WAT      O56839   4.465   3.924   5.391
18866WAT     H156840   4.561   3.944   5.411
18866WAT     H256841   4.441   3.964   5.303
18867WAT      O56842   4.212   1.048   7.381
18867WAT     H156843   4.142   0.976   7.381
18867WAT     H256844   4.301   1.008   7.360
18868WAT      O56845   6.812   8.766   7.033
18868WAT     H156846   6.732   8.804   6.987
18868WAT     H256847   6.787   8.680   7.078
18869WAT      O56848   6.246   4.503   8.487
18869WAT     H156849   6.316   4.472   8.551
18869WAT     H256850   6.265   4.597   8.460
18870WAT      O56851   8.779   0.462   7.925
18870WAT     H156852   8.829   0.410   7.855
18870WAT     H256853   8.839   0.481   8.002
18871WAT      O56854   8.595   0.158   2.301
18871WAT     H156855   8.518   0.103   2.267
18871WAT     H256856   8.617   0.229   2.234
18872WAT      O56857   3.939   0.574   4.605
18872WAT     H156858   4.035   0.602   4.611
18872WAT     H256859   3.902   0.601   4.516
18873WAT      O56860   8.602   6.339   1.586
18873WAT     H156861   8.661   6.407   1.542
18873WAT     H256862   8.580   6.369   1.678
18874WAT      O56863   1.057   0.466   3.076
18874WAT     H156864   1.102   0.382   3.109
18874WAT     H256865   1.072   0.540   3.141
18875WAT      O56866   0.141   6.628   8.638
18875WAT     H156867   0.218   6.649   8.578
18875WAT     H256868   0.138   6.694   8.713
18876WAT      O56869   7.848   8.444   8.477
18876WAT     H156870   7.888   8.371   8.532
18876WAT     H256871   7.853   8.530   8.527
18877WAT      O56872   9.321   1.181   5.393
18877WAT     H156873   9.287   1.170   5.299
18877WAT     H256874   9.410   1.136   5.401
18878WAT      O56875   3.648   3.126   9.313
18878WAT     H156876   3.569   3.073   9.343
18878WAT     H256877   3.718   3.063   9.280
18879WAT      O56878   1.418   1.674   6.141
18879WAT     H156879   1.321   1.694   6.151
18879WAT     H256880   1.430   1.581   6.108
18880WAT      O56881   1.968   6.184   6.042
18880WAT     H156882   1.975   6.270   6.093
18880WAT     H256883   2.028   6.187   5.963
18881WAT      O56884   1.795   8.280   5.557
18881WAT     H156885   1.762   8.311   5.468
18881WAT     H256886   1.786   8.354   5.624
18882WAT      O56887   0.337   6.764   9.580
18882WAT     H156888   0.268   6.753   9.652
18882WAT     H256889   0.338   6.683   9.522
18883WAT      O56890   7.343   3.881   9.571
18883WAT     H156891   7.432   3.849   9.538
18883WAT     H256892   7.321   3.834   9.657
18884WAT      O56893   0.758   0.674   8.721
18884WAT     H156894   0.762   0.650   8.818
18884WAT     H256895   0.754   0.774   8.711
18885WAT      O56896   3.836   5.888   6.150
18885WAT     H156897   3.786   5.964   6.109
18885WAT     H256898   3.857   5.911   6.246
18886WAT      O56899   6.736   8.518   9.889
18886WAT     H156900   6.645   8.484   9.864
18886WAT     H256901   6.755   8.602   9.839
18887WAT      O56902   4.755   4.867   2.426
18887WAT     H156903   4.689   4.825   2.488
18887WAT     H256904   4.838   4.892   2.476
18888WAT      O56905   7.697   9.583   5.430
18888WAT     H156906   7.656   9.673   5.441
18888WAT     H256907   7.687   9.553   5.336
18889WAT      O56908   8.291   2.399   1.584
18889WAT     H156909   8.269   2.496   1.581
18889WAT     H256910   8.381   2.386   1.625
18890WAT      O56911   9.408   7.728   0.564
18890WAT     H156912   9.402   7.820   0.605
18890WAT     H256913   9.502   7.709   0.538
18891WAT      O56914   5.000   1.628   0.071
18891WAT     H156915   4.907   1.618   0.106
18891WAT     H256916   5.057   1.555   0.109
18892WAT      O56917   7.113   9.527   8.954
18892WAT     H156918   7.064   9.451   8.997
18892WAT     H256919   7.093   9.611   9.004
18893WAT      O56920   2.722   8.676   6.020
18893WAT     H156921   2.805   8.622   6.011
18893WAT     H256922   2.674   8.648   6.103
18894WAT      O56923   4.531   0.164   5.676
18894WAT     H156924   4.491   0.232   5.738
18894WAT     H256925   4.551   0.207   5.588
18895WAT      O56926   8.231   0.818   8.058
18895WAT     H156927   8.219   0.786   7.964
18895WAT     H256928   8.189   0.753   8.121
18896WAT      O56929   2.272   9.771   9.022
18896WAT     H156930   2.345   9.794   9.087
18896WAT     H256931   2.189   9.821   9.046
18897WAT      O56932   0.081   4.090   4.729
18897WAT     H156933   0.155   4.148   4.696
18897WAT     H256934   0.069   4.105   4.828
18898WAT      O56935   6.761   7.769   6.092
18898WAT     H156936   6.829   7.797   6.025
18898WAT     H256937   6.733   7.848   6.146
18899WAT      O56938   1.063   8.392   4.609
18899WAT     H156939   0.964   8.398   4.626
18899WAT     H256940   1.086   8.299   4.578
18900WAT      O56941   8.668   2.293   1.448
18900WAT     H156942   8.649   2.270   1.543
18900WAT     H256943   8.599   2.357   1.414
18901WAT      O56944   9.190   4.336   7.127
18901WAT     H156945   9.210   4.431   7.150
18901WAT     H256946   9.091   4.325   7.113
18902WAT      O56947   5.161   1.545   9.315
18902WAT     H156948   5.194   1.502   9.231
18902WAT     H256949   5.149   1.643   9.298
18903WAT      O56950   8.822   6.544   0.929
18903WAT     H156951   8.887   6.480   0.890
18903WAT     H256952   8.802   6.518   1.024
18904WAT      O56953   4.083   1.193   9.384
18904WAT     H156954   4.116   1.103   9.416
18904WAT     H256955   4.056   1.186   9.288
18905WAT      O56956   9.622   7.195   9.182
18905WAT     H156957   9.690   7.241   9.125
18905WAT     H256958   9.627   7.096   9.167
18906WAT      O56959   9.179   9.318   1.936
18906WAT     H156960   9.228   9.230   1.938
18906WAT     H256961   9.204   9.371   2.017
18907WAT      O56962   1.062   2.848   9.754
18907WAT     H156963   1.063   2.885   9.661
18907WAT     H256964   0.988   2.781   9.762
18908WAT      O56965   5.211   2.201   0.077
18908WAT     H156966   5.125   2.157   0.053
18908WAT     H256967   5.212   2.222   0.175
18909WAT      O56968   6.337   6.435   6.603
18909WAT     H156969   6.312   6.461   6.696
18909WAT     H256970   6.289   6.351   6.579
18910WAT      O56971   2.184   5.224   7.716
18910WAT     H156972   2.245   5.217   7.637
18910WAT     H256973   2.090   5.206   7.686
18911WAT      O56974   7.355   1.221   5.261
18911WAT     H156975   7.350   1.170   5.175
18911WAT     H256976   7.450   1.246   5.279
18912WAT      O56977   9.412   5.612   5.540
18912WAT     H156978   9.378   5.706   5.529
18912WAT     H256979   9.486   5.611   5.608
18913WAT      O56980   5.104   0.186   3.836
18913WAT     H156981   5.197   0.151   3.848
18913WAT     H256982   5.074   0.168   3.743
18914WAT      O56983   6.855   9.184   5.432
18914WAT     H156984   6.844   9.157   5.336
18914WAT     H256985   6.822   9.111   5.491
18915WAT      O56986   0.252   6.077   5.492
18915WAT     H156987   0.319   6.069   5.418
18915WAT     H256988   0.254   5.993   5.547
18916WAT      O56989   5.138   9.761   1.824
18916WAT     H156990   5.107   9.819   1.748
18916WAT     H256991   5.238   9.759   1.825
18917WAT      O56992   9.816   5.430   6.585
18917WAT     H156993   9.747   5.429   6.658
18917WAT     H256994   9.904   5.456   6.624
18918WAT      O56995   8.987   0.764   9.492
18918WAT     H156996   8.921   0.816   9.437
18918WAT     H256997   8.962   0.774   9.589
18919WAT      O56998   2.614   7.294   4.921
18919WAT     H156999   2.708   7.307   4.955
18919WAT     H257000   2.617   7.268   4.825
18920WAT      O57001   9.726   6.101   3.285
18920WAT     H157002   9.713   6.185   3.338
18920WAT     H257003   9.695   6.023   3.338
18921WAT      O57004   8.559   6.178   6.339
18921WAT     H157005   8.616   6.168   6.420
18921WAT     H257006   8.464   6.155   6.362
18922WAT      O57007   0.986   1.732   2.130
18922WAT     H157008   1.047   1.795   2.081
18922WAT     H257009   0.932   1.680   2.064
18923WAT      O57010   6.507   6.355   3.987
18923WAT     H157011   6.423   6.313   3.952
18923WAT     H257012   6.556   6.289   4.043
18924WAT      O57013   2.542   5.905   5.624
18924WAT     H157014   2.583   5.877   5.710
18924WAT     H257015   2.578   5.848   5.550
18925WAT      O57016   3.871   8.822   1.178
18925WAT     H157017   3.899   8.727   1.194
18925WAT     H257018   3.884   8.875   1.261
18926WAT      O57019   4.306   9.354   1.980
18926WAT     H157020   4.402   9.339   1.960
18926WAT     H257021   4.250   9.289   1.928
18927WAT      O57022   1.283   9.679   2.772
18927WAT     H157023   1.280   9.700   2.674
18927WAT     H257024   1.329   9.592   2.786
18928WAT      O57025   1.371   0.611   5.504
18928WAT     H157026   1.294   0.657   5.547
18928WAT     H257027   1.415   0.550   5.570
18929WAT      O57028   1.960   6.880   9.322
18929WAT     H157029   1.987   6.947   9.252
18929WAT     H257030   1.861   6.871   9.323
18930WAT      O57031   8.805   0.223   9.214
18930WAT     H157032   8.891   0.239   9.261
18930WAT     H257033   8.812   0.140   9.158
18931WAT      O57034   4.123   3.045   2.963
18931WAT     H157035   4.073   3.093   2.891
18931WAT     H257036   4.167   3.112   3.023
18932WAT      O57037   8.708   4.765   5.364
18932WAT     H157038   8.651   4.824   5.420
18932WAT     H257039   8.658   4.682   5.340
18933WAT      O57040   4.727   1.165   2.639
18933WAT     H157041   4.655   1.115   2.687
18933WAT     H257042   4.809   1.109   2.633
18934WAT      O57043   4.294   9.377   6.227
18934WAT     H157044   4.313   9.280   6.207
18934WAT     H257045   4.353   9.407   6.302
18935WAT      O57046   5.786   4.792   4.138
18935WAT     H157047   5.712   4.853   4.170
18935WAT     H257048   5.756   4.697   4.146
18936WAT      O57049   3.075   1.644   5.029
18936WAT     H157050   2.978   1.668   5.020
18936WAT     H257051   3.088   1.548   5.002
18937WAT      O57052   0.603   5.527   6.337
18937WAT     H157053   0.539   5.486   6.272
18937WAT     H257054   0.587   5.489   6.428
18938WAT      O57055   8.955   8.272   4.827
18938WAT     H157056   8.886   8.342   4.806
18938WAT     H257057   9.044   8.302   4.793
18939WAT      O57058   6.259   0.457   8.836
18939WAT     H157059   6.328   0.442   8.907
18939WAT     H257060   6.283   0.540   8.785
18940WAT      O57061   8.896   5.920   8.067
18940WAT     H157062   8.837   5.888   7.993
18940WAT     H257063   8.964   5.984   8.030
18941WAT      O57064   4.735   3.713   7.660
18941WAT     H157065   4.702   3.738   7.751
18941WAT     H257066   4.809   3.774   7.634
18942WAT      O57067   6.044   7.611   8.322
18942WAT     H157068   6.113   7.546   8.354
18942WAT     H257069   6.011   7.583   8.232
18943WAT      O57070   4.699   6.040   7.400
18943WAT     H157071   4.690   6.136   7.374
18943WAT     H257072   4.649   5.983   7.334
18944WAT      O57073   9.777   1.153   8.109
18944WAT     H157074   9.855   1.216   8.110
18944WAT     H257075   9.693   1.204   8.131
18945WAT      O57076   7.782   1.655   4.096
18945WAT     H157077   7.727   1.590   4.044
18945WAT     H257078   7.851   1.606   4.149
18946WAT      O57079   8.401   8.866   0.148
18946WAT     H157080   8.460   8.878   0.228
18946WAT     H257081   8.306   8.887   0.172
18947WAT      O57082   4.760   8.432   0.513
18947WAT     H157083   4.762   8.399   0.419
18947WAT     H257084   4.851   8.466   0.538
18948WAT      O57085   2.590   3.333   0.703
18948WAT     H157086   2.656   3.335   0.779
18948WAT     H257087   2.518   3.400   0.720
18949WAT      O57088   6.523   1.485   3.128
18949WAT     H157089   6.438   1.444   3.162
18949WAT     H257090   6.595   1.416   3.124
18950WAT      O57091   8.376   3.870   8.148
18950WAT     H157092   8.427   3.956   8.139
18950WAT     H257093   8.327   3.869   8.235
18951WAT      O57094   4.203   5.975   6.905
18951WAT     H157095   4.258   5.990   6.823
18951WAT     H257096   4.197   6.059   6.958
18952WAT      O57097   4.169   9.608   9.683
18952WAT     H157098   4.177   9.636   9.587
18952WAT     H257099   4.081   9.638   9.719
18953WAT      O57100   3.138   0.102   5.999
18953WAT     H157101   3.124   0.093   5.900
18953WAT     H257102   3.092   0.185   6.032
18954WAT      O57103   8.099   3.820   0.731
18954WAT     H157104   8.061   3.804   0.640
18954WAT     H257105   8.113   3.732   0.778
18955WAT      O57106   4.735   0.753   6.085
18955WAT     H157107   4.778   0.733   6.173
18955WAT     H257108   4.799   0.802   6.026
18956WAT      O57109   7.485   1.288   2.530
18956WAT     H157110   7.547   1.305   2.606
18956WAT     H257111   7.449   1.374   2.496
18957WAT      O57112   0.075   0.015   4.121
18957WAT     H157113   0.053   0.080   4.194
18957WAT     H257114  -0.008  -0.035   4.095
18958WAT      O57115   0.071   1.540   9.043
18958WAT     H157116   0.119   1.481   9.107
18958WAT     H257117  -0.024   1.551   9.072
18959WAT      O57118   1.989   3.425   1.075
18959WAT     H157119   1.999   3.349   1.140
18959WAT     H257120   2.078   3.467   1.060
18960WAT      O57121   3.120   5.377   6.064
18960WAT     H157122   3.186   5.362   5.990
18960WAT     H257123   3.075   5.290   6.086
18961WAT      O57124   9.137   7.769   8.535
18961WAT     H157125   9.112   7.826   8.457
18961WAT     H257126   9.236   7.768   8.545
18962WAT      O57127   8.252   5.837   1.427
18962WAT     H157128   8.260   5.936   1.420
18962WAT     H257129   8.156   5.812   1.437
18963WAT      O57130   8.993   6.899   7.547
18963WAT     H157131   8.941   6.820   7.514
18963WAT     H257132   9.012   6.888   7.645
18964WAT      O57133   8.811   1.062   8.253
18964WAT     H157134   8.748   1.061   8.175
18964WAT     H257135   8.905   1.063   8.220
18965WAT      O57136   4.339   1.977   6.016
18965WAT     H157137   4.388   2.052   5.970
18965WAT     H257138   4.244   2.004   6.030
18966WAT      O57139   6.833   9.335   8.836
18966WAT     H157140   6.905   9.317   8.904
18966WAT     H257141   6.752   9.280   8.858
18967WAT      O57142   2.579   2.033   6.713
18967WAT     H157143   2.561   2.089   6.633
18967WAT     H257144   2.668   2.057   6.752
18968WAT      O57145   4.790   5.814   1.382
18968WAT     H157146   4.810   5.824   1.479
18968WAT     H257147   4.840   5.735   1.346
18969WAT      O57148   0.136   7.254   1.136
18969WAT     H157149   0.054   7.250   1.194
18969WAT     H257150   0.206   7.194   1.174
18970WAT      O57151   6.305   4.790   6.621
18970WAT     H157152   6.239   4.728   6.665
18970WAT     H257153   6.256   4.870   6.586
18971WAT      O57154   5.746   6.807   9.826
18971WAT     H157155   5.753   6.742   9.750
18971WAT     H257156   5.730   6.758   9.911
18972WAT      O57157   2.362   4.434   3.012
18972WAT     H157158   2.355   4.479   2.923
18972WAT     H257159   2.433   4.480   3.066
18973WAT      O57160   7.145   2.184   9.079
18973WAT     H157161   7.140   2.265   9.138
18973WAT     H257162   7.128   2.102   9.134
18974WAT      O57163   0.829   3.673   8.104
18974WAT     H157164   0.869   3.751   8.055
18974WAT     H257165   0.736   3.657   8.070
18975WAT      O57166   3.594   5.437   3.492
18975WAT     H157167   3.693   5.437   3.480
18975WAT     H257168   3.555   5.356   3.449
18976WAT      O57169   6.654   1.504   9.034
18976WAT     H157170   6.578   1.441   9.052
18976WAT     H257171   6.664   1.565   9.112
18977WAT      O57172   1.997   0.522   8.757
18977WAT     H157173   1.941   0.451   8.715
18977WAT     H257174   2.089   0.486   8.774
18978WAT      O57175   8.852   9.357   4.538
18978WAT     H157176   8.795   9.433   4.507
18978WAT     H257177   8.810   9.315   4.619
18979WAT      O57178   1.356   3.106   9.319
18979WAT     H157179   1.374   3.096   9.417
18979WAT     H257180   1.406   3.035   9.269
18980WAT      O57181   6.431   9.367   3.928
18980WAT     H157182   6.435   9.415   4.016
18980WAT     H257183   6.352   9.306   3.926
18981WAT      O57184   1.836   5.619   4.567
18981WAT     H157185   1.891   5.550   4.521
18981WAT     H257186   1.742   5.586   4.577
18982WAT      O57187   0.181   9.286   0.714
18982WAT     H157188   0.158   9.304   0.810
18982WAT     H257189   0.156   9.192   0.691
18983WAT      O57190   5.337   3.944   6.339
18983WAT     H157191   5.356   3.846   6.342
18983WAT     H257192   5.413   3.994   6.382
18984WAT      O57193   7.908   9.800   7.370
18984WAT     H157194   7.927   9.898   7.371
18984WAT     H257195   7.822   9.783   7.418
18985WAT      O57196   2.673   2.817   3.114
18985WAT     H157197   2.732   2.762   3.174
18985WAT     H257198   2.614   2.757   3.061
18986WAT      O57199   7.301   2.463   6.315
18986WAT     H157200   7.282   2.491   6.221
18986WAT     H257201   7.398   2.476   6.334
18987WAT      O57202   6.829   8.552   5.859
18987WAT     H157203   6.840   8.570   5.957
18987WAT     H257204   6.917   8.529   5.819
18988WAT      O57205   2.433   4.846   7.311
18988WAT     H157206   2.450   4.786   7.232
18988WAT     H257207   2.508   4.911   7.320
18989WAT      O57208   9.437   0.658   9.200
18989WAT     H157209   9.354   0.653   9.254
18989WAT     H257210   9.424   0.608   9.114
18990WAT      O57211   3.061   0.324   3.681
18990WAT     H157212   3.151   0.294   3.710
18990WAT     H257213   3.050   0.307   3.583
18991WAT      O57214   5.999   5.815   8.615
18991WAT     H157215   5.952   5.755   8.551
18991WAT     H257216   6.094   5.827   8.587
18992WAT      O57217   5.265   4.116   9.161
18992WAT     H157218   5.217   4.034   9.130
18992WAT     H257219   5.349   4.127   9.108
18993WAT      O57220   3.212   4.635   4.934
18993WAT     H157221   3.247   4.571   5.003
18993WAT     H257222   3.187   4.585   4.851
18994WAT      O57223   5.076   0.986   9.770
18994WAT     H157224   5.072   0.893   9.808
18994WAT     H257225   5.034   0.987   9.680
18995WAT      O57226   8.542   4.882   4.145
18995WAT     H157227   8.510   4.874   4.239
18995WAT     H257228   8.640   4.904   4.145
18996WAT      O57229   4.045   2.980   2.328
18996WAT     H157230   4.120   2.949   2.269
18996WAT     H257231   3.961   2.931   2.305
18997WAT      O57232   0.177   1.414   3.151
18997WAT     H157233   0.082   1.412   3.121
18997WAT     H257234   0.182   1.443   3.247
18998WAT      O57235   9.657   4.764   8.899
18998WAT     H157236   9.712   4.809   8.828
18998WAT     H257237   9.657   4.820   8.982
18999WAT      O57238   6.251   6.843   8.440
18999WAT     H157239   6.204   6.811   8.357
18999WAT     H257240   6.249   6.770   8.509
19000WAT      O57241   4.685   2.102   7.457
19000WAT     H157242   4.710   2.052   7.374
19000WAT     H257243   4.768   2.124   7.509
19001WAT      O57244   7.080   0.045   0.948
19001WAT     H157245   7.165   0.073   0.903
19001WAT     H257246   7.102  -0.012   1.027
19002WAT      O57247   2.289   9.356   4.648
19002WAT     H157248   2.272   9.349   4.550
19002WAT     H257249   2.386   9.372   4.664
19003WAT      O57250   8.119   4.751   6.293
19003WAT     H157251   8.056   4.682   6.257
19003WAT     H257252   8.075   4.801   6.367
19004WAT      O57253   5.606   4.823   8.558
19004WAT     H157254   5.661   4.851   8.636
19004WAT     H257255   5.661   4.765   8.498
19005WAT      O57256   3.131   1.218   4.420
19005WAT     H157257   3.099   1.308   4.450
19005WAT     H257258   3.224   1.227   4.383
19006WAT      O57259   0.085   0.151   8.653
19006WAT     H157260   0.141   0.215   8.601
19006WAT     H257261  -0.007   0.189   8.664
19007WAT      O57262   4.425   8.680   1.043
19007WAT     H157263   4.401   8.583   1.042
19007WAT     H257264   4.354   8.732   1.090
19008WAT      O57265   8.132   6.747   6.614
19008WAT     H157266   8.055   6.744   6.550
19008WAT     H257267   8.116   6.683   6.688
19009WAT      O57268   8.931   6.750   0.676
19009WAT     H157269   8.913   6.652   0.686
19009WAT     H257270   9.028   6.767   0.694
19010WAT      O57271   8.749   5.396   4.570
19010WAT     H157272   8.761   5.483   4.617
19010WAT     H257273   8.836   5.369   4.528
19011WAT      O57274   8.456   1.407   2.202
19011WAT     H157275   8.496   1.414   2.110
19011WAT     H257276   8.529   1.392   2.269
19012WAT      O57277   0.184   9.448   4.893
19012WAT     H157278   0.124   9.376   4.860
19012WAT     H257279   0.188   9.444   4.993
19013WAT      O57280   1.067   2.260   4.919
19013WAT     H157281   1.153   2.213   4.934
19013WAT     H257282   1.058   2.284   4.823
19014WAT      O57283   0.499   0.032   0.364
19014WAT     H157284   0.457   0.073   0.284
19014WAT     H257285   0.560  -0.042   0.336
19015WAT      O57286   7.389   5.571   1.313
19015WAT     H157287   7.323   5.645   1.323
19015WAT     H257288   7.479   5.610   1.293
19016WAT      O57289   4.804   1.881   2.129
19016WAT     H157290   4.839   1.854   2.219
19016WAT     H257291   4.781   1.799   2.076
19017WAT      O57292   7.004   6.138   4.287
19017WAT     H157293   6.960   6.149   4.376
19017WAT     H257294   6.935   6.116   4.218
19018WAT      O57295   0.296   6.347   0.376
19018WAT     H157296   0.356   6.293   0.316
19018WAT     H257297   0.280   6.297   0.460
19019WAT      O57298   8.376   3.295   0.763
19019WAT     H157299   8.461   3.334   0.798
19019WAT     H257300   8.306   3.300   0.834
19020WAT      O57301   8.200   3.044   6.570
19020WAT     H157302   8.166   2.970   6.513
19020WAT     H257303   8.124   3.103   6.598
19021WAT      O57304   8.579   1.781   1.740
19021WAT     H157305   8.549   1.855   1.679
19021WAT     H257306   8.501   1.749   1.794
19022WAT      O57307   3.844   7.740   6.041
19022WAT     H157308   3.844   7.768   6.137
19022WAT     H257309   3.937   7.745   6.005
19023WAT      O57310   2.566   0.584   4.088
19023WAT     H157311   2.543   0.544   4.177
19023WAT     H257312   2.534   0.679   4.085
19024WAT      O57313   9.257   7.097   0.452
19024WAT     H157314   9.197   7.147   0.514
19024WAT     H257315   9.352   7.111   0.478
19025WAT      O57316   6.146   7.512   3.607
19025WAT     H157317   6.187   7.537   3.520
19025WAT     H257318   6.073   7.445   3.592
19026WAT      O57319   5.088   0.067   4.863
19026WAT     H157320   5.032  -0.002   4.908
19026WAT     H257321   5.184   0.052   4.885
19027WAT      O57322   5.150   4.610   1.982
19027WAT     H157323   5.176   4.537   2.044
19027WAT     H257324   5.132   4.573   1.891
19028WAT      O57325   6.881   7.335   7.164
19028WAT     H157326   6.842   7.409   7.219
19028WAT     H257327   6.858   7.348   7.068
19029WAT      O57328   2.676   9.346   3.043
19029WAT     H157329   2.600   9.395   3.085
19029WAT     H257330   2.657   9.330   2.947
19030WAT      O57331   2.146   7.615   0.013
19030WAT     H157332   2.068   7.602  -0.048
19030WAT     H257333   2.206   7.686  -0.024
19031WAT      O57334   5.885   0.950   4.762
19031WAT     H157335   5.958   0.990   4.818
19031WAT     H257336   5.825   0.896   4.821
19032WAT      O57337   3.091   4.876   8.203
19032WAT     H157338   3.121   4.951   8.145
19032WAT     H257339   3.059   4.913   8.291
19033WAT      O57340   4.045   5.005   3.663
19033WAT     H157341   4.002   5.073   3.604
19033WAT     H257342   4.112   4.952   3.610
19034WAT      O57343   8.979   0.031   7.631
19034WAT     H157344   9.041  -0.044   7.653
19034WAT     H257345   9.012   0.079   7.550
19035WAT      O57346   0.971   8.369   6.708
19035WAT     H157347   0.881   8.329   6.691
19035WAT     H257348   0.989   8.440   6.640
19036WAT      O57349   1.546   2.033   3.472
19036WAT     H157350   1.610   2.110   3.477
19036WAT     H257351   1.531   1.997   3.565
19037WAT      O57352   8.808   7.387   0.456
19037WAT     H157353   8.772   7.306   0.503
19037WAT     H257354   8.855   7.358   0.373
19038WAT      O57355   2.645   0.479   1.105
19038WAT     H157356   2.584   0.499   1.181
19038WAT     H257357   2.626   0.388   1.069
19039WAT      O57358   0.577   0.781   2.721
19039WAT     H157359   0.639   0.761   2.796
19039WAT     H257360   0.615   0.744   2.636
19040WAT      O57361   4.977   6.623   1.621
19040WAT     H157362   5.061   6.632   1.675
19040WAT     H257363   4.929   6.539   1.647
19041WAT      O57364   9.036   5.172   2.166
19041WAT     H157365   8.987   5.141   2.084
19041WAT     H257366   9.134   5.167   2.149
19042WAT      O57367   2.730   5.576   3.716
19042WAT     H157368   2.800   5.640   3.749
19042WAT     H257369   2.762   5.482   3.730
19043WAT      O57370   5.240   4.330   0.933
19043WAT     H157371   5.149   4.339   0.892
19043WAT     H257372   5.240   4.374   1.023
19044WAT      O57373   3.971   9.554   7.856
19044WAT     H157374   4.055   9.504   7.880
19044WAT     H257375   3.910   9.494   7.805
19045WAT      O57376   8.105   4.224   0.481
19045WAT     H157377   8.098   4.212   0.580
19045WAT     H257378   8.190   4.270   0.459
19046WAT      O57379   6.165   3.322   8.051
19046WAT     H157380   6.079   3.368   8.028
19046WAT     H257381   6.151   3.223   8.053
19047WAT      O57382   7.026   1.416   2.899
19047WAT     H157383   7.026   1.317   2.892
19047WAT     H257384   7.117   1.448   2.925
19048WAT      O57385   9.399   0.979   2.257
19048WAT     H157386   9.419   1.046   2.185
19048WAT     H257387   9.460   0.900   2.246
19049WAT      O57388   7.424   7.628   6.713
19049WAT     H157389   7.349   7.694   6.725
19049WAT     H257390   7.461   7.602   6.802
19050WAT      O57391   7.936   4.355   9.259
19050WAT     H157392   7.931   4.275   9.319
19050WAT     H257393   8.000   4.421   9.297
19051WAT      O57394   2.413   0.655   9.717
19051WAT     H157395   2.470   0.736   9.733
19051WAT     H257396   2.435   0.586   9.785
19052WAT      O57397   5.158   9.079   9.455
19052WAT     H157398   5.138   9.171   9.423
19052WAT     H257399   5.114   9.064   9.544
19053WAT      O57400   1.189   6.606   7.610
19053WAT     H157401   1.134   6.681   7.573
19053WAT     H257402   1.212   6.542   7.536
19054WAT      O57403   9.846   8.884   5.395
19054WAT     H157404   9.811   8.792   5.409
19054WAT     H257405   9.806   8.922   5.311
19055WAT      O57406   8.168   3.012   8.993
19055WAT     H157407   8.228   3.057   9.059
19055WAT     H257408   8.186   3.047   8.902
19056WAT      O57409   4.969   8.480   4.045
19056WAT     H157410   4.902   8.410   4.021
19056WAT     H257411   4.937   8.531   4.126
19057WAT      O57412   5.789   5.944   7.860
19057WAT     H157413   5.702   5.905   7.891
19057WAT     H257414   5.859   5.929   7.929
19058WAT      O57415   6.983   1.809   7.640
19058WAT     H157416   6.957   1.745   7.568
19058WAT     H257417   7.077   1.791   7.669
19059WAT      O57418   6.196   1.576   9.286
19059WAT     H157419   6.099   1.597   9.278
19059WAT     H257420   6.240   1.587   9.197
19060WAT      O57421   1.333   4.387   2.134
19060WAT     H157422   1.275   4.445   2.191
19060WAT     H257423   1.316   4.291   2.157
19061WAT      O57424   6.766   8.741   9.716
19061WAT     H157425   6.827   8.819   9.704
19061WAT     H257426   6.747   8.699   9.627
19062WAT      O57427   6.047   8.080   6.905
19062WAT     H157428   6.134   8.043   6.873
19062WAT     H257429   5.987   8.004   6.931
19063WAT      O57430   2.048   7.943   4.827
19063WAT     H157431   2.100   7.962   4.744
19063WAT     H257432   1.952   7.930   4.803
19064WAT      O57433   4.542   1.153   6.824
19064WAT     H157434   4.507   1.099   6.748
19064WAT     H257435   4.537   1.098   6.908
19065WAT      O57436   6.806   1.233   1.590
19065WAT     H157437   6.821   1.206   1.685
19065WAT     H257438   6.894   1.242   1.544
19066WAT      O57439   9.191   9.080   2.213
19066WAT     H157440   9.203   9.179   2.214
19066WAT     H257441   9.280   9.036   2.199
19067WAT      O57442   3.798   8.234   3.630
19067WAT     H157443   3.776   8.177   3.709
19067WAT     H257444   3.812   8.176   3.550
19068WAT      O57445   1.841   0.961   2.453
19068WAT     H157446   1.856   0.955   2.552
19068WAT     H257447   1.904   1.027   2.413
19069WAT      O57448   7.087   5.071   7.737
19069WAT     H157449   7.024   5.004   7.697
19069WAT     H257450   7.178   5.031   7.744
19070WAT      O57451   5.924   2.939   9.796
19070WAT     H157452   5.985   2.952   9.717
19070WAT     H257453   5.966   2.978   9.878
19071WAT      O57454   1.369   9.614   8.484
19071WAT     H157455   1.335   9.650   8.571
19071WAT     H257456   1.315   9.535   8.457
19072WAT      O57457   0.065   4.490   7.839
19072WAT     H157458   0.048   4.393   7.824
19072WAT     H257459   0.153   4.501   7.886
19073WAT      O57460   8.719   6.586   1.559
19073WAT     H157461   8.664   6.648   1.615
19073WAT     H257462   8.814   6.590   1.589
19074WAT      O57463   3.398   3.146   1.815
19074WAT     H157464   3.442   3.064   1.777
19074WAT     H257465   3.460   3.224   1.806
19075WAT      O57466   0.508   8.925   2.832
19075WAT     H157467   0.418   8.897   2.866
19075WAT     H257468   0.519   9.023   2.843
19076WAT      O57469   2.475   0.044   5.814
19076WAT     H157470   2.572   0.035   5.837
19076WAT     H257471   2.463   0.035   5.715
19077WAT      O57472   2.877   0.530   4.672
19077WAT     H157473   2.975   0.526   4.651
19077WAT     H257474   2.851   0.626   4.685
19078WAT      O57475   3.799   0.273   9.856
19078WAT     H157476   3.782   0.246   9.761
19078WAT     H257477   3.810   0.191   9.913
19079WAT      O57478   4.179   5.554   9.788
19079WAT     H157479   4.221   5.638   9.821
19079WAT     H257480   4.186   5.550   9.689
19080WAT      O57481   2.429   2.081   0.950
19080WAT     H157482   2.482   2.037   0.878
19080WAT     H257483   2.374   2.013   0.998
19081WAT      O57484   3.043   1.751   4.117
19081WAT     H157485   2.971   1.800   4.168
19081WAT     H257486   3.084   1.682   4.177
19082WAT      O57487   0.211   6.847   2.190
19082WAT     H157488   0.177   6.758   2.221
19082WAT     H257489   0.308   6.840   2.167
19083WAT      O57490   8.172   8.275   2.812
19083WAT     H157491   8.133   8.278   2.904
19083WAT     H257492   8.260   8.323   2.812
19084WAT      O57493   6.602   5.460   6.749
19084WAT     H157494   6.583   5.383   6.811
19084WAT     H257495   6.598   5.546   6.800
19085WAT      O57496   3.180   5.717   3.395
19085WAT     H157497   3.247   5.772   3.344
19085WAT     H257498   3.213   5.622   3.401
19086WAT      O57499   9.001   6.601   5.967
19086WAT     H157500   8.986   6.699   5.981
19086WAT     H257501   8.982   6.552   6.052
19087WAT      O57502   6.408   4.263   1.504
19087WAT     H157503   6.336   4.194   1.498
19087WAT     H257504   6.427   4.299   1.412
19088WAT      O57505   1.632   2.689   4.493
19088WAT     H157506   1.605   2.678   4.397
19088WAT     H257507   1.611   2.606   4.544
19089WAT      O57508   6.845   7.317   3.114
19089WAT     H157509   6.790   7.295   3.034
19089WAT     H257510   6.925   7.258   3.117
19090WAT      O57511   8.649   3.824   0.607
19090WAT     H157512   8.553   3.807   0.628
19090WAT     H257513   8.679   3.907   0.655
19091WAT      O57514   6.039   5.696   2.524
19091WAT     H157515   6.002   5.738   2.441
19091WAT     H257516   6.135   5.671   2.508
19092WAT      O57517   5.598   8.634   2.136
19092WAT     H157518   5.553   8.701   2.195
19092WAT     H257519   5.577   8.541   2.168
19093WAT      O57520   2.752   1.937   1.425
19093WAT     H157521   2.719   2.018   1.474
19093WAT     H257522   2.750   1.858   1.487
19094WAT      O57523   7.974   9.743   9.017
19094WAT     H157524   7.986   9.654   9.061
19094WAT     H257525   8.025   9.745   8.931
19095WAT      O57526   1.239   1.546   1.330
19095WAT     H157527   1.304   1.559   1.255
19095WAT     H257528   1.286   1.507   1.409
19096WAT      O57529   1.608   4.541   5.663
19096WAT     H157530   1.531   4.525   5.602
19096WAT     H257531   1.679   4.592   5.614
19097WAT      O57532   1.164   3.026   7.815
19097WAT     H157533   1.103   3.105   7.817
19097WAT     H257534   1.111   2.942   7.826
19098WAT      O57535   7.754   9.714   0.633
19098WAT     H157536   7.765   9.711   0.732
19098WAT     H257537   7.657   9.714   0.609
19099WAT      O57538   5.477   3.680   1.128
19099WAT     H157539   5.545   3.651   1.061
19099WAT     H257540   5.405   3.610   1.135
19100WAT      O57541   6.976   3.632   6.865
19100WAT     H157542   7.027   3.597   6.786
19100WAT     H257543   6.914   3.705   6.835
19101WAT      O57544   8.973   6.901   3.450
19101WAT     H157545   9.031   6.822   3.431
19101WAT     H257546   8.879   6.870   3.465
19102WAT      O57547   7.899   3.302   1.094
19102WAT     H157548   7.867   3.252   1.175
19102WAT     H257549   7.995   3.280   1.077
19103WAT      O57550   3.012   1.511   0.525
19103WAT     H157551   3.104   1.548   0.508
19103WAT     H257552   3.021   1.422   0.570
19104WAT      O57553   3.042   7.720   7.422
19104WAT     H157554   3.049   7.819   7.430
19104WAT     H257555   2.961   7.696   7.369
19105WAT      O57556   9.566   2.817   5.040
19105WAT     H157557   9.486   2.826   4.981
19105WAT     H257558   9.556   2.735   5.096
19106WAT      O57559   0.743   7.487   2.966
19106WAT     H157560   0.656   7.500   2.919
19106WAT     H257561   0.740   7.404   3.021
19107WAT      O57562   4.308   7.046   1.918
19107WAT     H157563   4.229   7.095   1.880
19107WAT     H257564   4.313   7.063   2.016
19108WAT      O57565   9.162   4.354   9.694
19108WAT     H157566   9.073   4.327   9.658
19108WAT     H257567   9.230   4.351   9.621
19109WAT      O57568   9.885   1.744   0.850
19109WAT     H157569   9.799   1.693   0.854
19109WAT     H257570   9.899   1.779   0.757
19110WAT      O57571   6.216   6.239   1.259
19110WAT     H157572   6.176   6.159   1.303
19110WAT     H257573   6.232   6.220   1.162
19111WAT      O57574   3.615   2.768   2.849
19111WAT     H157575   3.685   2.778   2.779
19111WAT     H257576   3.633   2.684   2.902
19112WAT      O57577   4.077   9.198   5.990
19112WAT     H157578   4.164   9.189   6.038
19112WAT     H257579   4.021   9.116   6.006
19113WAT      O57580   5.586   4.680   6.886
19113WAT     H157581   5.559   4.712   6.795
19113WAT     H257582   5.575   4.580   6.890
19114WAT      O57583   2.037   4.336   6.716
19114WAT     H157584   1.963   4.381   6.667
19114WAT     H257585   2.013   4.240   6.733
19115WAT      O57586   5.921   0.334   1.374
19115WAT     H157587   5.916   0.400   1.299
19115WAT     H257588   5.988   0.366   1.442
19116WAT      O57589   7.692   9.269   0.756
19116WAT     H157590   7.608   9.312   0.787
19116WAT     H257591   7.756   9.260   0.833
19117WAT      O57592   6.011   0.595   3.074
19117WAT     H157593   6.088   0.549   3.029
19117WAT     H257594   5.938   0.528   3.090
19118WAT      O57595   2.125   0.108   2.525
19118WAT     H157596   2.072   0.190   2.506
19118WAT     H257597   2.169   0.077   2.441
19119WAT      O57598   4.049   6.866   2.216
19119WAT     H157599   4.108   6.786   2.228
19119WAT     H257600   3.966   6.840   2.166
19120WAT      O57601   9.185   1.394   8.500
19120WAT     H157602   9.139   1.363   8.583
19120WAT     H257603   9.271   1.343   8.488
19121WAT      O57604   2.389   6.370   7.133
19121WAT     H157605   2.371   6.464   7.107
19121WAT     H257606   2.331   6.344   7.210
19122WAT      O57607   5.667   3.667   1.444
19122WAT     H157608   5.676   3.621   1.356
19122WAT     H257609   5.752   3.655   1.497
19123WAT      O57610   6.194   8.309   1.929
19123WAT     H157611   6.137   8.353   1.860
19123WAT     H257612   6.266   8.256   1.884
19124WAT      O57613   5.148   5.569   2.166
19124WAT     H157614   5.069   5.604   2.216
19124WAT     H257615   5.228   5.626   2.184
19125WAT      O57616   9.386   3.940   8.043
19125WAT     H157617   9.394   3.859   7.985
19125WAT     H257618   9.358   3.913   8.135
19126WAT      O57619   7.324   0.798   3.052
19126WAT     H157620   7.264   0.878   3.062
19126WAT     H257621   7.407   0.812   3.105
19127WAT      O57622   2.086   8.046   9.884
19127WAT     H157623   2.173   8.040   9.836
19127WAT     H257624   2.100   8.024   9.981
19128WAT      O57625   8.241   1.387   9.172
19128WAT     H157626   8.256   1.435   9.085
19128WAT     H257627   8.176   1.312   9.157
19129WAT      O57628   8.339   1.580   0.142
19129WAT     H157629   8.359   1.495   0.093
19129WAT     H257630   8.260   1.625   0.100
19130WAT      O57631   5.463   5.108   6.865
19130WAT     H157632   5.502   5.030   6.915
19130WAT     H257633   5.462   5.188   6.925
19131WAT      O57634   2.804   6.600   7.439
19131WAT     H157635   2.799   6.506   7.470
19131WAT     H257636   2.888   6.642   7.475
19132WAT      O57637   1.417   8.738   4.457
19132WAT     H157638   1.463   8.660   4.498
19132WAT     H257639   1.427   8.734   4.357
19133WAT      O57640   6.945   0.616   4.304
19133WAT     H157641   6.987   0.546   4.362
19133WAT     H257642   6.845   0.608   4.310
19134WAT      O57643   7.011   7.171   0.362
19134WAT     H157644   6.958   7.097   0.322
19134WAT     H257645   7.022   7.245   0.296
19135WAT      O57646   8.343   9.086   3.222
19135WAT     H157647   8.321   9.172   3.268
19135WAT     H257648   8.408   9.103   3.149
19136WAT      O57649   1.739   0.796   0.481
19136WAT     H157650   1.836   0.797   0.454
19136WAT     H257651   1.730   0.838   0.571
19137WAT      O57652   1.329   5.636   3.917
19137WAT     H157653   1.373   5.634   4.007
19137WAT     H257654   1.246   5.579   3.918
19138WAT      O57655   9.130   8.301   6.946
19138WAT     H157656   9.126   8.202   6.932
19138WAT     H257657   9.145   8.320   7.043
19139WAT      O57658   3.383   9.653   1.429
19139WAT     H157659   3.411   9.746   1.452
19139WAT     H257660   3.406   9.592   1.504
19140WAT      O57661   4.186   6.543   4.243
19140WAT     H157662   4.122   6.480   4.286
19140WAT     H257663   4.268   6.552   4.299
19141WAT      O57664   3.876   2.014   7.788
19141WAT     H157665   3.806   2.065   7.738
19141WAT     H257666   3.958   2.004   7.731
19142WAT      O57667   6.632   4.368   8.900
19142WAT     H157668   6.676   4.346   8.813
19142WAT     H257669   6.658   4.460   8.928
19143WAT      O57670   3.832   6.660   2.937
19143WAT     H157671   3.748   6.627   2.895
19143WAT     H257672   3.853   6.605   3.017
19144WAT      O57673   4.290   4.028   3.857
19144WAT     H157674   4.293   3.990   3.764
19144WAT     H257675   4.355   4.103   3.864
19145WAT      O57676   3.886   3.698   7.417
19145WAT     H157677   3.940   3.779   7.440
19145WAT     H257678   3.812   3.687   7.484
19146WAT      O57679   9.228   3.837   5.575
19146WAT     H157680   9.168   3.814   5.651
19146WAT     H257681   9.263   3.753   5.533
19147WAT      O57682   2.607   2.061   4.116
19147WAT     H157683   2.670   2.121   4.165
19147WAT     H257684   2.592   1.977   4.169
19148WAT      O57685   7.584   3.818   9.838
19148WAT     H157686   7.597   3.722   9.810
19148WAT     H257687   7.637   3.877   9.778
19149WAT      O57688   2.599   7.031   9.640
19149WAT     H157689   2.583   6.940   9.678
19149WAT     H257690   2.689   7.034   9.597
19150WAT      O57691   1.658   0.176   3.182
19150WAT     H157692   1.649   0.146   3.277
19150WAT     H257693   1.622   0.269   3.172
19151WAT      O57694   9.439   4.849   2.654
19151WAT     H157695   9.482   4.761   2.631
19151WAT     H257696   9.399   4.889   2.572
19152WAT      O57697   9.281   8.768   5.988
19152WAT     H157698   9.193   8.752   6.032
19152WAT     H257699   9.303   8.865   5.992
19153WAT      O57700   2.712   3.749   3.103
19153WAT     H157701   2.789   3.693   3.135
19153WAT     H257702   2.641   3.689   3.066
19154WAT      O57703   8.689   9.743   7.565
19154WAT     H157704   8.778   9.754   7.609
19154WAT     H257705   8.663   9.828   7.519
19155WAT      O57706   4.047   7.691   9.127
19155WAT     H157707   4.123   7.756   9.134
19155WAT     H257708   3.985   7.720   9.054
19156WAT      O57709   4.366   0.714   6.342
19156WAT     H157710   4.432   0.778   6.303
19156WAT     H257711   4.408   0.624   6.351
19157WAT      O57712   2.622   8.516   9.321
19157WAT     H157713   2.545   8.572   9.351
19157WAT     H257714   2.668   8.561   9.244
19158WAT      O57715   3.571   4.721   5.199
19158WAT     H157716   3.512   4.652   5.241
19158WAT     H257717   3.521   4.808   5.193
19159WAT      O57718   3.736   2.391   4.673
19159WAT     H157719   3.750   2.313   4.735
19159WAT     H257720   3.673   2.456   4.716
19160WAT      O57721   0.396   5.333   5.076
19160WAT     H157722   0.484   5.289   5.096
19160WAT     H257723   0.355   5.290   4.996
19161WAT      O57724   8.695   6.720   4.954
19161WAT     H157725   8.721   6.624   4.957
19161WAT     H257726   8.595   6.727   4.951
19162WAT      O57727   7.574   8.376   0.465
19162WAT     H157728   7.519   8.329   0.534
19162WAT     H257729   7.555   8.474   0.468
19163WAT      O57730   8.826   6.871   7.910
19163WAT     H157731   8.788   6.963   7.923
19163WAT     H257732   8.805   6.815   7.991
19164WAT      O57733   8.589   0.043   4.218
19164WAT     H157734   8.570   0.076   4.310
19164WAT     H257735   8.513  -0.014   4.187
19165WAT      O57736   5.443   8.294   0.562
19165WAT     H157737   5.439   8.272   0.659
19165WAT     H257738   5.531   8.266   0.524
19166WAT      O57739   7.817   5.818   7.465
19166WAT     H157740   7.779   5.876   7.536
19166WAT     H257741   7.916   5.816   7.471
19167WAT      O57742   2.589   0.384   7.433
19167WAT     H157743   2.643   0.447   7.376
19167WAT     H257744   2.508   0.356   7.383
19168WAT      O57745   6.904   8.329   2.649
19168WAT     H157746   6.862   8.413   2.615
19168WAT     H257747   6.979   8.303   2.589
19169WAT      O57748   6.766   9.800   8.643
19169WAT     H157749   6.841   9.769   8.586
19169WAT     H257750   6.742   9.730   8.710
19170WAT      O57751   7.279   0.037   0.152
19170WAT     H157752   7.245  -0.024   0.223
19170WAT     H257753   7.264  -0.005   0.062
19171WAT      O57754   8.746   7.724   8.372
19171WAT     H157755   8.736   7.812   8.325
19171WAT     H257756   8.709   7.651   8.315
19172WAT      O57757   9.326   0.845   6.956
19172WAT     H157758   9.363   0.920   7.011
19172WAT     H257759   9.298   0.770   7.015
19173WAT      O57760   4.630   6.826   7.278
19173WAT     H157761   4.706   6.767   7.305
19173WAT     H257762   4.582   6.786   7.200
19174WAT      O57763   6.671   8.757   0.310
19174WAT     H157764   6.725   8.700   0.371
19174WAT     H257765   6.730   8.796   0.239
19175WAT      O57766   5.389   0.917   2.724
19175WAT     H157767   5.456   0.883   2.790
19175WAT     H257768   5.334   0.840   2.690
19176WAT      O57769   9.255   6.390   6.554
19176WAT     H157770   9.161   6.366   6.531
19176WAT     H257771   9.308   6.401   6.469
19177WAT      O57772   3.455   4.556   6.908
19177WAT     H157773   3.511   4.526   6.831
19177WAT     H257774   3.487   4.512   6.992
19178WAT      O57775   4.077   8.122   6.490
19178WAT     H157776   4.001   8.140   6.427
19178WAT     H257777   4.147   8.192   6.479
19179WAT      O57778   3.619   1.726   0.054
19179WAT     H157779   3.632   1.646  -0.005
19179WAT     H257780   3.534   1.772   0.029
19180WAT      O57781   3.779   6.251   9.278
19180WAT     H157782   3.841   6.174   9.262
19180WAT     H257783   3.687   6.216   9.294
19181WAT      O57784   8.520   7.384   1.255
19181WAT     H157785   8.581   7.434   1.317
19181WAT     H257786   8.497   7.296   1.295
19182WAT      O57787   6.719   9.334   1.718
19182WAT     H157788   6.739   9.276   1.797
19182WAT     H257789   6.804   9.364   1.676
19183WAT      O57790   8.077   2.825   7.069
19183WAT     H157791   8.004   2.835   7.001
19183WAT     H257792   8.036   2.814   7.160
19184WAT      O57793   8.552   1.058   1.054
19184WAT     H157794   8.480   1.100   1.109
19184WAT     H257795   8.523   0.968   1.023
19185WAT      O57796   7.160   2.396   7.443
19185WAT     H157797   7.250   2.434   7.462
19185WAT     H257798   7.170   2.309   7.394
19186WAT      O57799   2.048   2.935   0.153
19186WAT     H157800   2.129   2.946   0.210
19186WAT     H257801   2.071   2.883   0.071
19187WAT      O57802   6.561   5.129   5.692
19187WAT     H157803   6.563   5.109   5.790
19187WAT     H257804   6.603   5.053   5.643
19188WAT      O57805   6.218   1.096   5.789
19188WAT     H157806   6.134   1.081   5.736
19188WAT     H257807   6.288   1.135   5.729
19189WAT      O57808   5.353   9.485   8.348
19189WAT     H157809   5.334   9.411   8.284
19189WAT     H257810   5.271   9.540   8.361
19190WAT      O57811   1.550   6.220   6.936
19190WAT     H157812   1.460   6.215   6.893
19190WAT     H257813   1.610   6.277   6.880
19191WAT      O57814   3.535   2.283   7.944
19191WAT     H157815   3.540   2.183   7.946
19191WAT     H257816   3.466   2.314   8.009
19192WAT      O57817   6.590   1.056   6.558
19192WAT     H157818   6.501   1.012   6.545
19192WAT     H257819   6.611   1.113   6.479
19193WAT      O57820   1.754   5.524   5.385
19193WAT     H157821   1.702   5.535   5.300
19193WAT     H257822   1.846   5.562   5.372
19194WAT      O57823   0.618   0.320   3.493
19194WAT     H157824   0.700   0.346   3.543
19194WAT     H257825   0.587   0.231   3.524
19195WAT      O57826   6.117   0.935   2.241
19195WAT     H157827   6.097   0.895   2.152
19195WAT     H257828   6.144   1.031   2.230
19196WAT      O57829   3.845   8.413   1.505
19196WAT     H157830   3.911   8.376   1.571
19196WAT     H257831   3.780   8.342   1.479
19197WAT      O57832   6.293   9.767   2.983
19197WAT     H157833   6.296   9.764   3.083
19197WAT     H257834   6.214   9.716   2.951
19198WAT      O57835   7.342   3.487   4.604
19198WAT     H157836   7.249   3.463   4.578
19198WAT     H257837   7.357   3.466   4.700
19199WAT      O57838   1.955   4.273   8.313
19199WAT     H157839   2.026   4.289   8.245
19199WAT     H257840   1.940   4.356   8.366
19200WAT      O57841   1.807   6.133   0.815
19200WAT     H157842   1.862   6.216   0.816
19200WAT     H257843   1.834   6.076   0.737
19201WAT      O57844   0.931   3.663   1.755
19201WAT     H157845   0.932   3.736   1.823
19201WAT     H257846   0.924   3.575   1.801
19202WAT      O57847   1.996   5.304   8.006
19202WAT     H157848   2.085   5.288   8.049
19202WAT     H257849   2.004   5.295   7.907
19203WAT      O57850   0.710   9.716   5.623
19203WAT     H157851   0.633   9.771   5.592
19203WAT     H257852   0.795   9.766   5.605
19204WAT      O57853   6.707   2.114   4.495
19204WAT     H157854   6.664   2.190   4.543
19204WAT     H257855   6.716   2.036   4.556
19205WAT      O57856   6.122   6.953   9.436
19205WAT     H157857   6.203   6.934   9.491
19205WAT     H257858   6.145   6.949   9.339
19206WAT      O57859   4.655   3.235   9.523
19206WAT     H157860   4.654   3.141   9.558
19206WAT     H257861   4.562   3.271   9.520
19207WAT      O57862   0.703   8.457   1.705
19207WAT     H157863   0.745   8.466   1.795
19207WAT     H257864   0.610   8.422   1.715
19208WAT      O57865   2.635   0.237   0.991
19208WAT     H157866   2.712   0.253   0.929
19208WAT     H257867   2.550   0.231   0.938
19209WAT      O57868   4.773   9.405   3.837
19209WAT     H157869   4.830   9.426   3.758
19209WAT     H257870   4.682   9.376   3.806
19210WAT      O57871   9.367   9.716   4.735
19210WAT     H157872   9.430   9.639   4.735
19210WAT     H257873   9.284   9.691   4.784
19211WAT      O57874   0.057   7.552   4.317
19211WAT     H157875   0.124   7.484   4.288
19211WAT     H257876   0.069   7.636   4.263
19212WAT      O57877   1.550   8.913   4.627
19212WAT     H157878   1.486   8.985   4.652
19212WAT     H257879   1.509   8.855   4.556
19213WAT      O57880   5.378   7.218   0.625
19213WAT     H157881   5.396   7.133   0.675
19213WAT     H257882   5.451   7.234   0.559
19214WAT      O57883   6.386   9.136   7.376
19214WAT     H157884   6.397   9.037   7.367
19214WAT     H257885   6.300   9.155   7.424
19215WAT      O57886   8.674   0.811   5.645
19215WAT     H157887   8.701   0.839   5.737
19215WAT     H257888   8.665   0.711   5.643
19216WAT      O57889   3.886   8.149   3.214
19216WAT     H157890   3.834   8.114   3.292
19216WAT     H257891   3.979   8.114   3.218
19217WAT      O57892   7.073   6.956   1.799
19217WAT     H157893   7.171   6.951   1.816
19217WAT     H257894   7.056   6.962   1.701
19218WAT      O57895   7.088   7.902   3.797
19218WAT     H157896   7.114   7.806   3.800
19218WAT     H257897   7.132   7.946   3.718
19219WAT      O57898   2.660   7.909   2.586
19219WAT     H157899   2.649   7.841   2.514
19219WAT     H257900   2.698   7.864   2.668
19220WAT      O57901   6.603   3.628   9.691
19220WAT     H157902   6.508   3.598   9.703
19220WAT     H257903   6.639   3.660   9.779
19221WAT      O57904   5.123   7.326   6.120
19221WAT     H157905   5.039   7.380   6.120
19221WAT     H257906   5.106   7.237   6.162
19222WAT      O57907   0.289   9.503   6.532
19222WAT     H157908   0.274   9.439   6.608
19222WAT     H257909   0.359   9.570   6.559
19223WAT      O57910   3.965   4.810   9.415
19223WAT     H157911   3.998   4.724   9.452
19223WAT     H257912   3.982   4.814   9.317
19224WAT      O57913   8.330   9.646   1.262
19224WAT     H157914   8.255   9.695   1.218
19224WAT     H257915   8.295   9.592   1.339
19225WAT      O57916   6.867   0.181   0.271
19225WAT     H157917   6.803   0.253   0.247
19225WAT     H257918   6.906   0.141   0.188
19226WAT      O57919   7.266   8.031   3.604
19226WAT     H157920   7.241   8.060   3.511
19226WAT     H257921   7.298   7.936   3.602
19227WAT      O57922   5.068   4.989   9.049
19227WAT     H157923   5.067   5.045   8.966
19227WAT     H257924   5.031   4.898   9.029
19228WAT      O57925   9.082   8.758   8.220
19228WAT     H157926   9.162   8.699   8.226
19228WAT     H257927   9.072   8.809   8.305
19229WAT      O57928   7.216   4.587   6.435
19229WAT     H157929   7.177   4.573   6.526
19229WAT     H257930   7.143   4.616   6.372
19230WAT      O57931   4.187   4.113   2.824
19230WAT     H157932   4.259   4.067   2.875
19230WAT     H257933   4.097   4.091   2.863
19231WAT      O57934   9.514   0.769   2.050
19231WAT     H157935   9.564   0.836   1.995
19231WAT     H257936   9.499   0.687   1.995
19232WAT      O57937   6.559   5.755   7.990
19232WAT     H157938   6.601   5.825   8.048
19232WAT     H257939   6.618   5.674   7.987
19233WAT      O57940   0.607   5.293   8.243
19233WAT     H157941   0.589   5.208   8.193
19233WAT     H257942   0.695   5.286   8.290
19234WAT      O57943   8.447   4.107   1.924
19234WAT     H157944   8.418   4.012   1.915
19234WAT     H257945   8.473   4.125   2.019
19235WAT      O57946   1.204   1.369   5.756
19235WAT     H157947   1.299   1.338   5.760
19235WAT     H257948   1.180   1.415   5.842
19236WAT      O57949   1.949   4.411   3.447
19236WAT     H157950   1.942   4.311   3.442
19236WAT     H257951   1.949   4.449   3.355
19237WAT      O57952   0.710   4.464   5.884
19237WAT     H157953   0.791   4.415   5.915
19237WAT     H257954   0.634   4.400   5.875
19238WAT      O57955   1.063   6.282   4.812
19238WAT     H157956   1.072   6.198   4.864
19238WAT     H257957   0.970   6.319   4.825
19239WAT      O57958   3.527   6.671   4.666
19239WAT     H157959   3.590   6.617   4.721
19239WAT     H257960   3.452   6.704   4.724
19240WAT      O57961   1.924   0.724   6.934
19240WAT     H157962   1.997   0.744   6.868
19240WAT     H257963   1.835   0.733   6.890
19241WAT      O57964   1.412   1.305   3.309
19241WAT     H157965   1.501   1.267   3.336
19241WAT     H257966   1.393   1.386   3.364
19242WAT      O57967   1.861   5.691   0.708
19242WAT     H157968   1.786   5.635   0.670
19242WAT     H257969   1.869   5.775   0.654
19243WAT      O57970   3.031   7.992   3.384
19243WAT     H157971   3.099   7.932   3.341
19243WAT     H257972   2.951   7.937   3.411
19244WAT      O57973   4.696   6.653   8.062
19244WAT     H157974   4.713   6.556   8.080
19244WAT     H257975   4.783   6.699   8.047
19245WAT      O57976   8.850   9.536   3.465
19245WAT     H157977   8.940   9.567   3.434
19245WAT     H257978   8.788   9.614   3.467
19246WAT      O57979   2.794   7.673   1.899
19246WAT     H157980   2.762   7.744   1.836
19246WAT     H257981   2.755   7.585   1.873
19247WAT      O57982   0.270   7.675   3.331
19247WAT     H157983   0.356   7.624   3.337
19247WAT     H257984   0.248   7.692   3.235
19248WAT      O57985   8.359   4.662   6.387
19248WAT     H157986   8.261   4.680   6.375
19248WAT     H257987   8.372   4.592   6.457
19249WAT      O57988   0.836   3.494   1.118
19249WAT     H157989   0.805   3.417   1.062
19249WAT     H257990   0.876   3.564   1.059
19250WAT      O57991   6.224   1.951   8.874
19250WAT     H157992   6.293   1.927   8.806
19250WAT     H257993   6.150   1.884   8.872
19251WAT      O57994   2.851   8.142   2.157
19251WAT     H157995   2.861   8.236   2.187
19251WAT     H257996   2.830   8.140   2.059
19252WAT      O57997   1.570   9.201   2.382
19252WAT     H157998   1.483   9.215   2.428
19252WAT     H257999   1.604   9.289   2.349
19253WAT      O58000   0.745   6.875   6.773
19253WAT     H158001   0.750   6.927   6.688
19253WAT     H258002   0.805   6.795   6.767
19254WAT      O58003   5.403   1.402   5.068
19254WAT     H158004   5.364   1.412   5.160
19254WAT     H258005   5.479   1.337   5.072
19255WAT      O58006   6.358   8.164   0.584
19255WAT     H158007   6.371   8.263   0.580
19255WAT     H258008   6.391   8.129   0.672
19256WAT      O58009   2.753   0.975   7.265
19256WAT     H158010   2.777   0.915   7.189
19256WAT     H258011   2.723   1.064   7.229
19257WAT      O58012   7.616   7.750   2.851
19257WAT     H158013   7.594   7.693   2.772
19257WAT     H258014   7.659   7.693   2.922
19258WAT      O58015   9.085   3.729   3.840
19258WAT     H158016   9.179   3.696   3.830
19258WAT     H258017   9.022   3.653   3.824
19259WAT      O58018   6.362   5.331   1.617
19259WAT     H158019   6.426   5.281   1.559
19259WAT     H258020   6.365   5.294   1.710
19260WAT      O58021   5.347   6.122   3.020
19260WAT     H158022   5.269   6.164   2.973
19260WAT     H258023   5.360   6.028   2.987
19261WAT      O58024   9.029   9.378   0.573
19261WAT     H158025   8.974   9.460   0.586
19261WAT     H258026   8.971   9.297   0.578
19262WAT      O58027   5.795   5.473   5.520
19262WAT     H158028   5.867   5.458   5.588
19262WAT     H258029   5.709   5.494   5.567
19263WAT      O58030   3.681   8.070   8.434
19263WAT     H158031   3.590   8.075   8.475
19263WAT     H258032   3.746   8.032   8.499
19264WAT      O58033   6.004   7.075   3.487
19264WAT     H158034   5.932   7.030   3.434
19264WAT     H258035   6.046   7.008   3.549
19265WAT      O58036   0.386   9.239   8.227
19265WAT     H158037   0.451   9.233   8.151
19265WAT     H258038   0.342   9.330   8.226
19266WAT      O58039   1.002   4.724   1.366
19266WAT     H158040   1.082   4.782   1.350
19266WAT     H258041   1.031   4.632   1.389
19267WAT      O58042   7.309   9.812   4.578
19267WAT     H158043   7.370   9.736   4.552
19267WAT     H258044   7.219   9.798   4.536
19268WAT      O58045   7.949   9.325   0.644
19268WAT     H158046   7.863   9.290   0.683
19268WAT     H258047   8.022   9.315   0.711
19269WAT      O58048   0.683   6.334   5.866
19269WAT     H158049   0.684   6.264   5.794
19269WAT     H258050   0.595   6.331   5.913
19270WAT      O58051   8.034   7.463   9.789
19270WAT     H158052   8.106   7.451   9.721
19270WAT     H258053   8.009   7.559   9.796
19271WAT      O58054   7.037   7.660   4.056
19271WAT     H158055   7.038   7.642   3.958
19271WAT     H258056   7.080   7.583   4.104
19272WAT      O58057   9.581   7.153   9.463
19272WAT     H158058   9.615   7.138   9.370
19272WAT     H258059   9.498   7.099   9.477
19273WAT      O58060   4.777   2.316   4.775
19273WAT     H158061   4.819   2.389   4.830
19273WAT     H258062   4.679   2.333   4.767
19274WAT      O58063   1.535   4.761   0.393
19274WAT     H158064   1.455   4.711   0.362
19274WAT     H258065   1.614   4.737   0.337
19275WAT      O58066   0.041   3.619   6.770
19275WAT     H158067  -0.043   3.616   6.715
19275WAT     H258068   0.074   3.713   6.774
19276WAT      O58069   8.709   0.964   0.758
19276WAT     H158070   8.690   1.061   0.739
19276WAT     H258071   8.718   0.914   0.672
19277WAT      O58072   9.870   9.811   1.751
19277WAT     H158073   9.961   9.851   1.747
19277WAT     H258074   9.844   9.776   1.661
19278WAT      O58075   1.334   7.265   8.318
19278WAT     H158076   1.409   7.234   8.377
19278WAT     H258077   1.267   7.191   8.309
19279WAT      O58078   9.454   0.790   1.354
19279WAT     H158079   9.446   0.821   1.449
19279WAT     H258080   9.541   0.742   1.342
19280WAT      O58081   9.069   5.186   5.835
19280WAT     H158082   8.977   5.195   5.796
19280WAT     H258083   9.077   5.096   5.879
19281WAT      O58084   4.904   6.433   9.677
19281WAT     H158085   4.978   6.365   9.681
19281WAT     H258086   4.834   6.409   9.745
19282WAT      O58087   5.296   8.384   1.523
19282WAT     H158088   5.280   8.445   1.601
19282WAT     H258089   5.393   8.384   1.500
19283WAT      O58090   3.792   5.431   8.150
19283WAT     H158091   3.781   5.530   8.156
19283WAT     H258092   3.773   5.401   8.057
19284WAT      O58093   0.213   7.903   0.243
19284WAT     H158094   0.138   7.955   0.204
19284WAT     H258095   0.213   7.913   0.343
19285WAT      O58096   0.414   5.568   3.021
19285WAT     H158097   0.494   5.614   2.983
19285WAT     H258098   0.379   5.500   2.956
19286WAT      O58099   8.787   6.766   6.707
19286WAT     H158100   8.832   6.809   6.629
19286WAT     H258101   8.688   6.775   6.699
19287WAT      O58102   8.642   1.480   2.368
19287WAT     H158103   8.666   1.564   2.320
19287WAT     H258104   8.599   1.502   2.455
19288WAT      O58105   4.665   8.175   7.643
19288WAT     H158106   4.687   8.168   7.545
19288WAT     H258107   4.734   8.231   7.689
19289WAT      O58108   1.046   9.694   8.852
19289WAT     H158109   1.016   9.609   8.809
19289WAT     H258110   0.991   9.770   8.819
19290WAT      O58111   3.228   6.327   6.964
19290WAT     H158112   3.157   6.359   6.902
19290WAT     H258113   3.316   6.363   6.934
19291WAT      O58114   3.989   6.452   3.633
19291WAT     H158115   4.009   6.360   3.598
19291WAT     H258116   3.964   6.446   3.730
19292WAT      O58117   3.181   8.682   4.173
19292WAT     H158118   3.161   8.770   4.130
19292WAT     H258119   3.279   8.675   4.191
19293WAT      O58120   6.791   2.579   8.057
19293WAT     H158121   6.886   2.600   8.080
19293WAT     H258122   6.761   2.639   7.983
19294WAT      O58123   1.002   6.644   2.504
19294WAT     H158124   0.969   6.612   2.593
19294WAT     H258125   0.994   6.743   2.499
19295WAT      O58126   7.478   0.441   1.199
19295WAT     H158127   7.385   0.471   1.219
19295WAT     H258128   7.543   0.494   1.253
19296WAT      O58129   0.686   7.392   1.009
19296WAT     H158130   0.649   7.359   1.096
19296WAT     H258131   0.613   7.393   0.940
19297WAT      O58132   9.543   0.568   8.657
19297WAT     H158133   9.547   0.553   8.756
19297WAT     H258134   9.630   0.538   8.616
19298WAT      O58135   3.045   3.786   1.311
19298WAT     H158136   3.133   3.806   1.268
19298WAT     H258137   2.992   3.870   1.318
19299WAT      O58138   8.832   5.715   8.234
19299WAT     H158139   8.848   5.786   8.165
19299WAT     H258140   8.813   5.758   8.322
19300WAT      O58141   5.462   8.726   9.328
19300WAT     H158142   5.511   8.731   9.241
19300WAT     H258143   5.369   8.761   9.317
19301WAT      O58144   2.202   3.194   0.381
19301WAT     H158145   2.284   3.248   0.362
19301WAT     H258146   2.129   3.221   0.318
19302WAT      O58147   6.087   2.686   1.365
19302WAT     H158148   6.057   2.661   1.273
19302WAT     H258149   6.144   2.613   1.403
19303WAT      O58150   2.448   0.882   3.485
19303WAT     H158151   2.532   0.922   3.446
19303WAT     H258152   2.471   0.799   3.535
19304WAT      O58153   2.495   7.372   2.358
19304WAT     H158154   2.526   7.432   2.285
19304WAT     H258155   2.567   7.363   2.427
19305WAT      O58156   8.150   0.030   1.429
19305WAT     H158157   8.077   0.019   1.496
19305WAT     H258158   8.119  -0.006   1.340
19306WAT      O58159   1.079   2.431   5.498
19306WAT     H158160   1.116   2.388   5.416
19306WAT     H258161   1.149   2.434   5.569
19307WAT      O58162   8.436   8.286   9.446
19307WAT     H158163   8.371   8.214   9.468
19307WAT     H258164   8.520   8.246   9.409
19308WAT      O58165   6.884   9.481   6.865
19308WAT     H158166   6.908   9.392   6.903
19308WAT     H258167   6.872   9.547   6.939
19309WAT      O58168   7.251   7.977   9.658
19309WAT     H158169   7.161   7.932   9.653
19309WAT     H258170   7.257   8.029   9.743
19310WAT      O58171   0.440   2.283   2.904
19310WAT     H158172   0.397   2.209   2.956
19310WAT     H258173   0.410   2.278   2.809
19311WAT      O58174   6.269   2.498   1.448
19311WAT     H158175   6.274   2.407   1.408
19311WAT     H258176   6.345   2.553   1.415
19312WAT      O58177   7.563   9.428   8.561
19312WAT     H158178   7.637   9.372   8.524
19312WAT     H258179   7.537   9.395   8.652
19313WAT      O58180   0.573   6.125   4.360
19313WAT     H158181   0.656   6.141   4.306
19313WAT     H258182   0.543   6.212   4.399
19314WAT      O58183   1.972   6.255   1.855
19314WAT     H158184   2.060   6.240   1.811
19314WAT     H258185   1.898   6.226   1.794
19315WAT      O58186   0.443   9.460   4.107
19315WAT     H158187   0.430   9.381   4.167
19315WAT     H258188   0.515   9.440   4.041
19316WAT      O58189   0.703   3.469   0.685
19316WAT     H158190   0.739   3.376   0.682
19316WAT     H258191   0.778   3.534   0.673
19317WAT      O58192   4.515   3.561   1.526
19317WAT     H158193   4.463   3.620   1.464
19317WAT     H258194   4.476   3.469   1.525
19318WAT      O58195   7.518   5.605   6.961
19318WAT     H158196   7.612   5.598   6.993
19318WAT     H258197   7.503   5.696   6.922
19319WAT      O58198   0.232   1.171   6.216
19319WAT     H158199   0.243   1.074   6.193
19319WAT     H258200   0.149   1.182   6.271
19320WAT      O58201   9.468   4.683   4.390
19320WAT     H158202   9.550   4.739   4.379
19320WAT     H258203   9.492   4.586   4.384
19321WAT      O58204   3.415   5.257   7.898
19321WAT     H158205   3.426   5.196   7.976
19321WAT     H258206   3.318   5.283   7.889
19322WAT      O58207   7.233   5.473   3.895
19322WAT     H158208   7.317   5.472   3.840
19322WAT     H258209   7.154   5.461   3.836
19323WAT      O58210   8.620   5.287   8.482
19323WAT     H158211   8.655   5.367   8.433
19323WAT     H258212   8.667   5.279   8.570
19324WAT      O58213   6.012   7.804   0.555
19324WAT     H158214   6.013   7.728   0.619
19324WAT     H258215   6.050   7.886   0.599
19325WAT      O58216   7.201   0.093   1.700
19325WAT     H158217   7.134   0.021   1.678
19325WAT     H258218   7.174   0.138   1.785
19326WAT      O58219   2.393   3.009   0.008
19326WAT     H158220   2.387   2.999   0.107
19326WAT     H258221   2.404   2.919  -0.034
19327WAT      O58222   4.639   5.864   9.753
19327WAT     H158223   4.622   5.795   9.683
19327WAT     H258224   4.589   5.947   9.731
19328WAT      O58225   6.551   0.115   0.432
19328WAT     H158226   6.544   0.200   0.379
19328WAT     H258227   6.643   0.105   0.468
19329WAT      O58228   2.449   8.254   7.429
19329WAT     H158229   2.511   8.192   7.477
19329WAT     H258230   2.355   8.237   7.460
19330WAT      O58231   4.076   7.472   7.740
19330WAT     H158232   4.004   7.468   7.808
19330WAT     H258233   4.147   7.405   7.762
19331WAT      O58234   0.080   0.410   2.395
19331WAT     H158235   0.131   0.480   2.443
19331WAT     H258236   0.144   0.348   2.349
19332WAT      O58237   7.980   7.945   9.204
19332WAT     H158238   7.941   8.007   9.272
19332WAT     H258239   8.029   7.871   9.251
19333WAT      O58240   1.305   7.532   8.328
19333WAT     H158241   1.340   7.439   8.320
19333WAT     H258242   1.247   7.539   8.410
19334WAT      O58243   1.353   2.753   5.665
19334WAT     H158244   1.427   2.819   5.674
19334WAT     H258245   1.270   2.790   5.708
19335WAT      O58246   0.402   2.008   2.399
19335WAT     H158247   0.308   1.992   2.430
19335WAT     H258248   0.457   2.039   2.476
19336WAT      O58249   7.563   5.104   3.681
19336WAT     H158250   7.604   5.183   3.728
19336WAT     H258251   7.570   5.024   3.740
19337WAT      O58252   8.278   2.375   9.267
19337WAT     H158253   8.373   2.374   9.298
19337WAT     H258254   8.269   2.433   9.186
19338WAT      O58255   7.886   6.447   4.494
19338WAT     H158256   7.965   6.399   4.455
19338WAT     H258257   7.907   6.477   4.587
19339WAT      O58258   6.707   1.669   4.997
19339WAT     H158259   6.757   1.703   5.077
19339WAT     H258260   6.614   1.705   4.998
19340WAT      O58261   6.711   6.859   7.052
19340WAT     H158262   6.647   6.784   7.031
19340WAT     H258263   6.693   6.936   6.990
19341WAT      O58264   8.051   6.574   1.043
19341WAT     H158265   8.122   6.504   1.045
19341WAT     H258266   8.090   6.661   1.075
19342WAT      O58267   0.610   4.238   7.654
19342WAT     H158268   0.588   4.174   7.581
19342WAT     H258269   0.710   4.244   7.664
19343WAT      O58270   9.061   8.865   2.440
19343WAT     H158271   9.037   8.822   2.527
19343WAT     H258272   8.998   8.835   2.369
19344WAT      O58273   0.373   2.171   0.842
19344WAT     H158274   0.418   2.112   0.909
19344WAT     H258275   0.280   2.193   0.873
19345WAT      O58276   6.740   1.883   8.000
19345WAT     H158277   6.663   1.875   7.937
19345WAT     H258278   6.730   1.816   8.073
19346WAT      O58279   4.408   4.984   2.018
19346WAT     H158280   4.350   4.910   1.983
19346WAT     H258281   4.491   4.945   2.058
19347WAT      O58282   7.427   4.354   7.093
19347WAT     H158283   7.339   4.355   7.140
19347WAT     H258284   7.463   4.447   7.087
19348WAT      O58285   1.153   4.147   4.349
19348WAT     H158286   1.223   4.141   4.278
19348WAT     H258287   1.138   4.243   4.374
19349WAT      O58288   6.247   0.623   9.214
19349WAT     H158289   6.272   0.695   9.148
19349WAT     H258290   6.304   0.632   9.296
19350WAT      O58291   4.484   0.861   1.526
19350WAT     H158292   4.517   0.810   1.605
19350WAT     H258293   4.560   0.878   1.463
19351WAT      O58294   7.816   7.416   2.321
19351WAT     H158295   7.837   7.514   2.329
19351WAT     H258296   7.781   7.382   2.408
19352WAT      O58297   6.398   4.236   2.581
19352WAT     H158298   6.408   4.334   2.561
19352WAT     H258299   6.415   4.220   2.678
19353WAT      O58300   9.178   4.184   1.612
19353WAT     H158301   9.148   4.142   1.527
19353WAT     H258302   9.104   4.241   1.650
19354WAT      O58303   4.005   9.267   4.004
19354WAT     H158304   3.976   9.245   4.097
19354WAT     H258305   4.105   9.271   4.000
19355WAT      O58306   6.067   9.316   7.726
19355WAT     H158307   6.058   9.401   7.674
19355WAT     H258308   6.121   9.332   7.808
19356WAT      O58309   7.899   5.468   3.945
19356WAT     H158310   7.911   5.443   4.041
19356WAT     H258311   7.989   5.476   3.902
19357WAT      O58312   7.119   2.312   2.945
19357WAT     H158313   7.094   2.216   2.933
19357WAT     H258314   7.134   2.331   3.042
19358WAT      O58315   9.701   5.673   2.026
19358WAT     H158316   9.743   5.658   1.936
19358WAT     H258317   9.715   5.591   2.083
19359WAT      O58318   4.852   9.243   6.672
19359WAT     H158319   4.859   9.320   6.609
19359WAT     H258320   4.876   9.158   6.625
19360WAT      O58321   9.333   6.634   2.771
19360WAT     H158322   9.409   6.653   2.834
19360WAT     H258323   9.340   6.539   2.739
19361WAT      O58324   7.047   0.896   2.267
19361WAT     H158325   7.127   0.853   2.225
19361WAT     H258326   7.037   0.989   2.233
19362WAT      O58327   0.563   5.891   4.511
19362WAT     H158328   0.639   5.897   4.575
19362WAT     H258329   0.574   5.961   4.440
19363WAT      O58330   2.894   2.782   5.651
19363WAT     H158331   2.893   2.700   5.593
19363WAT     H258332   2.861   2.860   5.599
19364WAT      O58333   8.582   2.068   9.567
19364WAT     H158334   8.585   2.070   9.467
19364WAT     H258335   8.573   1.974   9.599
19365WAT      O58336   2.800   8.570   5.335
19365WAT     H158337   2.791   8.660   5.378
19365WAT     H258338   2.808   8.500   5.406
19366WAT      O58339   9.742   2.682   9.620
19366WAT     H158340   9.813   2.751   9.632
19366WAT     H258341   9.753   2.638   9.531
19367WAT      O58342   0.850   3.005   2.689
19367WAT     H158343   0.836   2.992   2.787
19367WAT     H258344   0.813   3.093   2.661
19368WAT      O58345   0.833   5.947   1.821
19368WAT     H158346   0.795   5.922   1.733
19368WAT     H258347   0.805   6.040   1.845
19369WAT      O58348   3.628   1.877   1.818
19369WAT     H158349   3.722   1.851   1.795
19369WAT     H258350   3.620   1.885   1.918
19370WAT      O58351   4.002   6.110   4.931
19370WAT     H158352   3.951   6.029   4.901
19370WAT     H258353   4.099   6.087   4.939
19371WAT      O58354   8.325   9.323   3.379
19371WAT     H158355   8.424   9.306   3.373
19371WAT     H258356   8.300   9.339   3.474
19372WAT      O58357   1.966   5.758   7.718
19372WAT     H158358   2.059   5.727   7.698
19372WAT     H258359   1.938   5.724   7.807
19373WAT      O58360   4.243   5.448   4.157
19373WAT     H158361   4.208   5.376   4.216
19373WAT     H258362   4.246   5.416   4.063
19374WAT      O58363   5.901   5.639   3.439
19374WAT     H158364   5.860   5.695   3.367
19374WAT     H258365   5.838   5.634   3.517
19375WAT      O58366   2.286   2.676   5.358
19375WAT     H158367   2.259   2.588   5.399
19375WAT     H258368   2.223   2.698   5.284
19376WAT      O58369   1.974   4.873   2.487
19376WAT     H158370   2.016   4.901   2.573
19376WAT     H258371   1.988   4.944   2.418
19377WAT      O58372   6.467   9.620   6.381
19377WAT     H158373   6.490   9.524   6.397
19377WAT     H258374   6.448   9.665   6.468
19378WAT      O58375   3.520   8.687   9.687
19378WAT     H158376   3.542   8.681   9.785
19378WAT     H258377   3.428   8.650   9.671
19379WAT      O58378   2.792   6.792   4.626
19379WAT     H158379   2.703   6.746   4.625
19379WAT     H258380   2.789   6.872   4.566
19380WAT      O58381   3.119   2.490   3.685
19380WAT     H158382   3.036   2.435   3.681
19380WAT     H258383   3.156   2.488   3.778
19381WAT      O58384   3.765   6.930   6.623
19381WAT     H158385   3.706   6.859   6.662
19381WAT     H258386   3.709   7.004   6.587
19382WAT      O58387   8.313   6.428   1.598
19382WAT     H158388   8.262   6.437   1.512
19382WAT     H258389   8.407   6.402   1.579
19383WAT      O58390   7.572   6.351   0.771
19383WAT     H158391   7.564   6.253   0.792
19383WAT     H258392   7.530   6.370   0.683
19384WAT      O58393   9.837   9.368   3.378
19384WAT     H158394   9.787   9.428   3.441
19384WAT     H258395   9.850   9.279   3.421
19385WAT      O58396   9.259   0.032   4.142
19385WAT     H158397   9.230   0.058   4.050
19385WAT     H258398   9.278   0.114   4.195
19386WAT      O58399   1.357   1.413   9.791
19386WAT     H158400   1.315   1.355   9.721
19386WAT     H258401   1.417   1.357   9.848
19387WAT      O58402   1.148   9.349   6.431
19387WAT     H158403   1.187   9.293   6.358
19387WAT     H258404   1.050   9.361   6.416
19388WAT      O58405   7.194   0.496   7.483
19388WAT     H158406   7.110   0.448   7.459
19388WAT     H258407   7.178   0.595   7.481
19389WAT      O58408   7.661   5.701   1.286
19389WAT     H158409   7.682   5.631   1.355
19389WAT     H258410   7.631   5.785   1.332
19390WAT      O58411   7.992   4.774   1.994
19390WAT     H158412   8.036   4.863   1.987
19390WAT     H258413   8.012   4.733   2.083
19391WAT      O58414   7.297   2.858   2.350
19391WAT     H158415   7.384   2.852   2.399
19391WAT     H258416   7.314   2.897   2.259
19392WAT      O58417   0.499   1.377   2.288
19392WAT     H158418   0.442   1.416   2.360
19392WAT     H258419   0.488   1.277   2.287
19393WAT      O58420   2.360   7.479   5.141
19393WAT     H158421   2.336   7.460   5.236
19393WAT     H258422   2.448   7.527   5.138
19394WAT      O58423   1.802   4.746   7.834
19394WAT     H158424   1.863   4.675   7.868
19394WAT     H258425   1.804   4.746   7.734
19395WAT      O58426   8.935   2.970   2.630
19395WAT     H158427   8.993   2.931   2.701
19395WAT     H258428   8.991   3.027   2.569
19396WAT      O58429   2.834   0.526   6.021
19396WAT     H158430   2.929   0.547   6.000
19396WAT     H258431   2.794   0.602   6.073
19397WAT      O58432   6.349   1.956   2.347
19397WAT     H158433   6.425   1.953   2.412
19397WAT     H258434   6.348   1.872   2.293
19398WAT      O58435   3.700   0.299   6.582
19398WAT     H158436   3.614   0.310   6.632
19398WAT     H258437   3.730   0.204   6.586
19399WAT      O58438   9.429   8.382   6.139
19399WAT     H158439   9.411   8.373   6.237
19399WAT     H258440   9.521   8.417   6.125
19400WAT      O58441   4.074   0.215   1.626
19400WAT     H158442   4.038   0.279   1.694
19400WAT     H258443   4.054   0.249   1.534
19401WAT      O58444   7.209   8.802   1.782
19401WAT     H158445   7.257   8.823   1.867
19401WAT     H258446   7.202   8.703   1.771
19402WAT      O58447   4.918   4.446   6.987
19402WAT     H158448   4.894   4.368   7.044
19402WAT     H258449   4.878   4.529   7.027
19403WAT      O58450   4.365   0.833   3.996
19403WAT     H158451   4.351   0.860   3.900
19403WAT     H258452   4.317   0.898   4.055
19404WAT      O58453   4.652   5.048   6.118
19404WAT     H158454   4.713   5.125   6.138
19404WAT     H258455   4.641   5.040   6.019
19405WAT      O58456   4.269   6.775   6.863
19405WAT     H158457   4.250   6.849   6.799
19405WAT     H258458   4.305   6.696   6.813
19406WAT      O58459   0.821   7.502   3.312
19406WAT     H158460   0.790   7.412   3.279
19406WAT     H258461   0.766   7.574   3.269
19407WAT      O58462   0.323   2.720   8.523
19407WAT     H158463   0.357   2.677   8.606
19407WAT     H258464   0.223   2.713   8.521
19408WAT      O58465   0.719   9.608   8.498
19408WAT     H158466   0.691   9.696   8.460
19408WAT     H258467   0.721   9.539   8.426
19409WAT      O58468   4.513   5.594   1.028
19409WAT     H158469   4.604   5.626   1.001
19409WAT     H258470   4.452   5.673   1.039
19410WAT      O58471   2.137   5.901   5.375
19410WAT     H158472   2.213   5.952   5.335
19410WAT     H258473   2.052   5.924   5.328
19411WAT      O58474   7.705   2.820   9.212
19411WAT     H158475   7.667   2.863   9.294
19411WAT     H258476   7.781   2.874   9.178
19412WAT      O58477   4.502   2.933   8.560
19412WAT     H158478   4.567   3.008   8.547
19412WAT     H258479   4.453   2.916   8.475
19413WAT      O58480   5.749   2.543   5.900
19413WAT     H158481   5.824   2.520   5.838
19413WAT     H258482   5.671   2.483   5.882
19414WAT      O58483   0.468   1.537   5.428
19414WAT     H158484   0.401   1.566   5.360
19414WAT     H258485   0.560   1.542   5.389
19415WAT      O58486   7.281   6.815   1.050
19415WAT     H158487   7.367   6.811   0.998
19415WAT     H258488   7.301   6.836   1.146
19416WAT      O58489   4.635   7.821   5.412
19416WAT     H158490   4.730   7.837   5.442
19416WAT     H258491   4.632   7.741   5.352
19417WAT      O58492   3.586   2.977   8.347
19417WAT     H158493   3.588   3.068   8.388
19417WAT     H258494   3.677   2.953   8.313
19418WAT      O58495   0.872   1.707   4.739
19418WAT     H158496   0.811   1.771   4.786
19418WAT     H258497   0.829   1.617   4.736
19419WAT      O58498   6.395   2.934   3.910
19419WAT     H158499   6.358   2.914   3.819
19419WAT     H258500   6.321   2.947   3.975
19420WAT      O58501   7.723   0.081   7.768
19420WAT     H158502   7.743  -0.004   7.718
19420WAT     H258503   7.666   0.140   7.711
19421WAT      O58504   9.404   8.372   1.328
19421WAT     H158505   9.340   8.346   1.256
19421WAT     H258506   9.476   8.302   1.336
19422WAT      O58507   2.704   8.952   9.622
19422WAT     H158508   2.684   8.854   9.615
19422WAT     H258509   2.634   9.004   9.573
19423WAT      O58510   4.546   4.821   4.481
19423WAT     H158511   4.645   4.811   4.495
19423WAT     H258512   4.499   4.740   4.516
19424WAT      O58513   9.382   8.894   8.100
19424WAT     H158514   9.363   8.803   8.136
19424WAT     H258515   9.317   8.915   8.026
19425WAT      O58516   7.235   4.324   9.200
19425WAT     H158517   7.137   4.325   9.179
19425WAT     H258518   7.259   4.239   9.246
19426WAT      O58519   9.280   6.972   1.829
19426WAT     H158520   9.344   6.905   1.868
19426WAT     H258521   9.315   7.064   1.844
19427WAT      O58522   5.595   3.567   5.405
19427WAT     H158523   5.599   3.626   5.485
19427WAT     H258524   5.588   3.471   5.434
19428WAT      O58525   2.422   0.521   1.359
19428WAT     H158526   2.423   0.485   1.452
19428WAT     H258527   2.331   0.509   1.319
19429WAT      O58528   2.719   9.541   2.430
19429WAT     H158529   2.780   9.575   2.501
19429WAT     H258530   2.631   9.514   2.470
19430WAT      O58531   5.287   0.892   3.837
19430WAT     H158532   5.211   0.925   3.781
19430WAT     H258533   5.326   0.968   3.889
19431WAT      O58534   5.220   1.012   7.793
19431WAT     H158535   5.229   0.929   7.739
19431WAT     H258536   5.309   1.056   7.802
19432WAT      O58537   7.761   3.830   0.181
19432WAT     H158538   7.723   3.819   0.090
19432WAT     H258539   7.689   3.861   0.244
19433WAT      O58540   8.075   5.073   1.954
19433WAT     H158541   8.134   5.153   1.939
19433WAT     H258542   8.000   5.099   2.015
19434WAT      O58543   2.345   1.925   5.150
19434WAT     H158544   2.355   1.906   5.248
19434WAT     H258545   2.307   1.845   5.104
19435WAT      O58546   1.065   7.046   8.673
19435WAT     H158547   1.069   6.953   8.708
19435WAT     H258548   0.972   7.066   8.640
19436WAT      O58549   8.813   1.907   3.618
19436WAT     H158550   8.796   1.942   3.526
19436WAT     H258551   8.895   1.949   3.656
19437WAT      O58552   1.526   4.760   7.649
19437WAT     H158553   1.626   4.760   7.639
19437WAT     H258554   1.483   4.763   7.559
19438WAT      O58555   5.775   4.666   1.437
19438WAT     H158556   5.855   4.625   1.480
19438WAT     H258557   5.692   4.632   1.480
19439WAT      O58558   6.033   9.366   3.780
19439WAT     H158559   6.042   9.325   3.689
19439WAT     H258560   6.055   9.463   3.775
19440WAT      O58561   7.967   7.344   3.159
19440WAT     H158562   8.017   7.302   3.083
19440WAT     H258563   7.963   7.443   3.145
19441WAT      O58564   4.492   0.830   4.250
19441WAT     H158565   4.580   0.877   4.244
19441WAT     H258566   4.448   0.830   4.160
19442WAT      O58567   2.660   7.757   9.225
19442WAT     H158568   2.723   7.726   9.154
19442WAT     H258569   2.566   7.749   9.192
19443WAT      O58570   9.770   3.882   5.548
19443WAT     H158571   9.737   3.967   5.590
19443WAT     H258572   9.727   3.804   5.594
19444WAT      O58573   9.478   1.851   9.121
19444WAT     H158574   9.401   1.870   9.060
19444WAT     H258575   9.542   1.928   9.118
19445WAT      O58576   2.051   5.461   7.280
19445WAT     H158577   2.074   5.376   7.232
19445WAT     H258578   1.994   5.518   7.220
19446WAT      O58579   6.246   7.475   6.541
19446WAT     H158580   6.249   7.389   6.592
19446WAT     H258581   6.321   7.534   6.571
19447WAT      O58582   8.486   7.558   8.326
19447WAT     H158583   8.437   7.492   8.269
19447WAT     H258584   8.516   7.513   8.410
19448WAT      O58585   7.247   5.554   8.229
19448WAT     H158586   7.272   5.490   8.156
19448WAT     H258587   7.317   5.625   8.237
19449WAT      O58588   2.223   0.545   4.304
19449WAT     H158589   2.321   0.529   4.310
19449WAT     H258590   2.176   0.487   4.370
19450WAT      O58591   6.012   2.934   1.628
19450WAT     H158592   5.948   3.011   1.627
19450WAT     H258593   5.995   2.877   1.547
19451WAT      O58594   6.984   4.525   1.786
19451WAT     H158595   6.937   4.608   1.815
19451WAT     H258596   6.926   4.475   1.721
19452WAT      O58597   6.980   2.708   2.219
19452WAT     H158598   7.022   2.780   2.164
19452WAT     H258599   6.989   2.731   2.316
19453WAT      O58600   0.122   7.292   0.492
19453WAT     H158601   0.194   7.306   0.424
19453WAT     H258602   0.089   7.198   0.487
19454WAT      O58603   8.091   3.870   3.818
19454WAT     H158604   8.015   3.859   3.882
19454WAT     H258605   8.124   3.964   3.821
19455WAT      O58606   7.320   6.535   7.634
19455WAT     H158607   7.390   6.593   7.675
19455WAT     H258608   7.278   6.582   7.557
19456WAT      O58609   0.604   9.240   0.620
19456WAT     H158610   0.660   9.219   0.700
19456WAT     H258611   0.561   9.330   0.631
19457WAT      O58612   2.886   2.724   5.921
19457WAT     H158613   2.823   2.790   5.960
19457WAT     H258614   2.872   2.720   5.822
19458WAT      O58615   5.225   6.453   8.995
19458WAT     H158616   5.317   6.461   9.033
19458WAT     H258617   5.223   6.492   8.903
19459WAT      O58618   4.817   4.163   0.804
19459WAT     H158619   4.858   4.248   0.837
19459WAT     H258620   4.889   4.095   0.789
19460WAT      O58621   6.608   1.991   5.407
19460WAT     H158622   6.692   2.046   5.401
19460WAT     H258623   6.569   2.001   5.499
19461WAT      O58624   5.786   1.092   4.535
19461WAT     H158625   5.820   1.026   4.602
19461WAT     H258626   5.795   1.184   4.572
19462WAT      O58627   2.010   4.875   6.646
19462WAT     H158628   2.096   4.837   6.614
19462WAT     H258629   1.980   4.826   6.728
19463WAT      O58630   4.829   8.224   1.042
19463WAT     H158631   4.873   8.304   1.081
19463WAT     H258632   4.878   8.141   1.069
19464WAT      O58633   5.238   4.240   7.052
19464WAT     H158634   5.223   4.310   6.983
19464WAT     H258635   5.334   4.211   7.049
19465WAT      O58636   1.593   1.984   8.793
19465WAT     H158637   1.517   1.938   8.747
19465WAT     H258638   1.578   1.983   8.892
19466WAT      O58639   2.205   7.022   3.467
19466WAT     H158640   2.139   7.096   3.479
19466WAT     H258641   2.274   7.027   3.539
19467WAT      O58642   1.228   3.097   2.696
19467WAT     H158643   1.198   3.011   2.739
19467WAT     H258644   1.277   3.153   2.763
19468WAT      O58645   5.456   7.412   7.730
19468WAT     H158646   5.370   7.377   7.768
19468WAT     H258647   5.533   7.374   7.782
19469WAT      O58648   0.134   2.276   5.398
19469WAT     H158649   0.218   2.330   5.403
19469WAT     H258650   0.148   2.199   5.335
19470WAT      O58651   4.364   8.150   9.080
19470WAT     H158652   4.303   8.169   9.157
19470WAT     H258653   4.456   8.131   9.114
19471WAT      O58654   5.163   4.381   0.327
19471WAT     H158655   5.104   4.461   0.310
19471WAT     H258656   5.126   4.302   0.278
19472WAT      O58657   2.470   2.318   5.361
19472WAT     H158658   2.497   2.275   5.448
19472WAT     H258659   2.398   2.385   5.379
19473WAT      O58660   6.879   0.688   2.011
19473WAT     H158661   6.962   0.664   2.061
19473WAT     H258662   6.881   0.644   1.921
19474WAT      O58663   6.859   7.612   2.076
19474WAT     H158664   6.857   7.658   2.165
19474WAT     H258665   6.779   7.553   2.067
19475WAT      O58666   0.083   4.999   0.325
19475WAT     H158667   0.066   4.953   0.412
19475WAT     H258668  -0.003   5.029   0.285
19476WAT      O58669   3.796   4.390   4.869
19476WAT     H158670   3.893   4.411   4.882
19476WAT     H258671   3.743   4.474   4.871
19477WAT      O58672   3.629   0.800   1.218
19477WAT     H158673   3.611   0.886   1.265
19477WAT     H258674   3.705   0.812   1.155
19478WAT      O58675   4.950   6.867   0.120
19478WAT     H158676   4.900   6.782   0.135
19478WAT     H258677   4.887   6.944   0.127
19479WAT      O58678   9.246   6.534   7.456
19479WAT     H158679   9.255   6.629   7.486
19479WAT     H258680   9.200   6.481   7.528
19480WAT      O58681   8.231   4.241   2.978
19480WAT     H158682   8.282   4.208   3.058
19480WAT     H258683   8.206   4.163   2.920
19481WAT      O58684   3.312   5.690   2.351
19481WAT     H158685   3.354   5.616   2.404
19481WAT     H258686   3.382   5.736   2.296
19482WAT      O58687   0.621   1.392   6.521
19482WAT     H158688   0.598   1.304   6.564
19482WAT     H258689   0.546   1.419   6.461
19483WAT      O58690   3.081   0.012   6.411
19483WAT     H158691   2.999   0.071   6.410
19483WAT     H258692   3.080  -0.045   6.493
19484WAT      O58693   5.434   5.789   7.561
19484WAT     H158694   5.453   5.857   7.490
19484WAT     H258695   5.347   5.744   7.541
19485WAT      O58696   0.708   7.999   4.557
19485WAT     H158697   0.710   8.038   4.464
19485WAT     H258698   0.675   8.068   4.621
19486WAT      O58699   0.817   4.193   0.213
19486WAT     H158700   0.730   4.180   0.166
19486WAT     H258701   0.808   4.165   0.308
19487WAT      O58702   8.646   1.548   8.211
19487WAT     H158703   8.586   1.545   8.291
19487WAT     H258704   8.722   1.484   8.225
19488WAT      O58705   3.607   3.903   3.117
19488WAT     H158706   3.586   3.833   3.185
19488WAT     H258707   3.574   3.992   3.149
19489WAT      O58708   5.077   2.680   5.300
19489WAT     H158709   5.006   2.628   5.346
19489WAT     H258710   5.151   2.699   5.365
19490WAT      O58711   0.431   8.260   9.226
19490WAT     H158712   0.419   8.161   9.224
19490WAT     H258713   0.355   8.305   9.179
19491WAT      O58714   1.787   8.058   0.650
19491WAT     H158715   1.829   8.037   0.561
19491WAT     H258716   1.771   8.157   0.656
19492WAT      O58717   5.276   4.368   6.146
19492WAT     H158718   5.297   4.465   6.130
19492WAT     H258719   5.203   4.361   6.215
19493WAT      O58720   0.727   5.499   5.202
19493WAT     H158721   0.768   5.407   5.206
19493WAT     H258722   0.699   5.519   5.109
19494WAT      O58723   2.888   6.300   9.551
19494WAT     H158724   2.798   6.279   9.514
19494WAT     H258725   2.895   6.266   9.644
19495WAT      O58726   2.276   8.483   9.172
19495WAT     H158727   2.198   8.491   9.110
19495WAT     H258728   2.335   8.409   9.142
19496WAT      O58729   1.890   4.709   4.101
19496WAT     H158730   1.881   4.627   4.045
19496WAT     H258731   1.804   4.761   4.097
19497WAT      O58732   0.344   7.801   1.046
19497WAT     H158733   0.409   7.852   0.991
19497WAT     H258734   0.305   7.862   1.116
19498WAT      O58735   9.875   9.022   6.101
19498WAT     H158736   9.926   9.100   6.064
19498WAT     H258737   9.778   9.047   6.110
19499WAT      O58738   2.891   3.949   5.254
19499WAT     H158739   2.846   3.921   5.170
19499WAT     H258740   2.986   3.916   5.254
19500WAT      O58741   7.957   3.293   7.648
19500WAT     H158742   7.880   3.328   7.595
19500WAT     H258743   7.962   3.341   7.736
19501WAT      O58744   1.100   9.673   1.872
19501WAT     H158745   1.098   9.731   1.954
19501WAT     H258746   1.195   9.654   1.847
19502WAT      O58747   8.394   5.613   4.481
19502WAT     H158748   8.480   5.642   4.441
19502WAT     H258749   8.356   5.536   4.428
19503WAT      O58750   3.404   2.898   7.131
19503WAT     H158751   3.379   2.888   7.035
19503WAT     H258752   3.500   2.870   7.143
19504WAT      O58753   7.961   2.048   6.707
19504WAT     H158754   7.923   1.959   6.732
19504WAT     H258755   7.982   2.049   6.609
19505WAT      O58756   8.948   6.884   8.847
19505WAT     H158757   8.881   6.839   8.787
19505WAT     H258758   9.040   6.872   8.809
19506WAT      O58759   2.211   3.658   8.720
19506WAT     H158760   2.227   3.750   8.684
19506WAT     H258761   2.118   3.629   8.699
19507WAT      O58762   1.689   1.336   4.898
19507WAT     H158763   1.786   1.330   4.871
19507WAT     H258764   1.632   1.334   4.816
19508WAT      O58765   0.625   4.551   9.751
19508WAT     H158766   0.670   4.572   9.837
19508WAT     H258767   0.603   4.636   9.703
19509WAT      O58768   2.753   0.052   7.398
19509WAT     H158769   2.682   0.003   7.449
19509WAT     H258770   2.814   0.098   7.462
19510WAT      O58771   3.164   6.643   6.781
19510WAT     H158772   3.205   6.681   6.864
19510WAT     H258773   3.229   6.647   6.706
19511WAT      O58774   9.630   8.455   9.777
19511WAT     H158775   9.657   8.541   9.734
19511WAT     H258776   9.552   8.416   9.728
19512WAT      O58777   8.915   8.341   8.914
19512WAT     H158778   8.877   8.276   8.849
19512WAT     H258779   9.012   8.324   8.926
19513WAT      O58780   9.262   9.638   6.913
19513WAT     H158781   9.252   9.737   6.922
19513WAT     H258782   9.204   9.592   6.980
19514WAT      O58783   2.715   0.590   0.463
19514WAT     H158784   2.785   0.589   0.391
19514WAT     H258785   2.673   0.681   0.468
19515WAT      O58786   3.801   2.262   1.645
19515WAT     H158787   3.838   2.355   1.644
19515WAT     H258788   3.864   2.200   1.598
19516WAT      O58789   1.343   2.903   1.611
19516WAT     H158790   1.361   3.001   1.601
19516WAT     H258791   1.338   2.861   1.520
19517WAT      O58792   3.033   4.686   0.082
19517WAT     H158793   3.068   4.679  -0.012
19517WAT     H258794   3.058   4.775   0.120
19518WAT      O58795   9.415   1.752   4.905
19518WAT     H158796   9.323   1.767   4.868
19518WAT     H258797   9.435   1.655   4.905
19519WAT      O58798   4.748   1.277   3.714
19519WAT     H158799   4.742   1.364   3.665
19519WAT     H258800   4.839   1.268   3.754
19520WAT      O58801   4.473   5.772   3.067
19520WAT     H158802   4.497   5.751   2.972
19520WAT     H258803   4.454   5.688   3.116
19521WAT      O58804   2.900   6.777   5.818
19521WAT     H158805   2.952   6.792   5.902
19521WAT     H258806   2.847   6.859   5.796
19522WAT      O58807   5.071   9.419   0.120
19522WAT     H158808   5.002   9.421   0.048
19522WAT     H258809   5.033   9.375   0.201
19523WAT      O58810   8.366   1.589   9.384
19523WAT     H158811   8.365   1.686   9.360
19523WAT     H258812   8.342   1.534   9.304
19524WAT      O58813   3.648   5.391   7.889
19524WAT     H158814   3.555   5.357   7.887
19524WAT     H258815   3.648   5.491   7.878
19525WAT      O58816   4.832   2.408   7.096
19525WAT     H158817   4.771   2.475   7.139
19525WAT     H258818   4.810   2.401   6.998
19526WAT      O58819   4.176   3.723   2.879
19526WAT     H158820   4.103   3.732   2.811
19526WAT     H258821   4.144   3.756   2.967
19527WAT      O58822   2.561   4.345   0.727
19527WAT     H158823   2.566   4.325   0.629
19527WAT     H258824   2.473   4.315   0.763
19528WAT      O58825   1.430   3.031   1.230
19528WAT     H158826   1.471   3.102   1.172
19528WAT     H258827   1.368   3.074   1.296
19529WAT      O58828   9.200   0.239   3.534
19529WAT     H158829   9.215   0.141   3.522
19529WAT     H258830   9.285   0.283   3.563
19530WAT      O58831   0.202   3.366   5.934
19530WAT     H158832   0.214   3.371   5.835
19530WAT     H258833   0.236   3.278   5.967
19531WAT      O58834   2.524   2.544   3.574
19531WAT     H158835   2.494   2.470   3.514
19531WAT     H258836   2.523   2.631   3.523
19532WAT      O58837   5.803   7.118   4.105
19532WAT     H158838   5.854   7.201   4.084
19532WAT     H258839   5.714   7.122   4.060
19533WAT      O58840   7.619   7.224   7.618
19533WAT     H158841   7.666   7.156   7.563
19533WAT     H258842   7.529   7.189   7.645
19534WAT      O58843   9.726   5.690   8.332
19534WAT     H158844   9.823   5.700   8.305
19534WAT     H258845   9.720   5.633   8.413
19535WAT      O58846   4.224   4.987   8.246
19535WAT     H158847   4.149   5.034   8.291
19535WAT     H258848   4.303   5.048   8.237
19536WAT      O58849   4.784   0.674   5.644
19536WAT     H158850   4.762   0.771   5.656
19536WAT     H258851   4.794   0.632   5.734
19537WAT      O58852   0.327   6.531   9.445
19537WAT     H158853   0.397   6.473   9.403
19537WAT     H258854   0.238   6.511   9.405
19538WAT      O58855   1.016   5.348   9.251
19538WAT     H158856   1.040   5.428   9.307
19538WAT     H258857   1.001   5.377   9.156
19539WAT      O58858   0.384   2.984   0.086
19539WAT     H158859   0.371   3.049   0.161
19539WAT     H258860   0.465   3.010   0.034
19540WAT      O58861   9.875   4.321   3.115
19540WAT     H158862   9.961   4.367   3.095
19540WAT     H258863   9.875   4.231   3.073
19541WAT      O58864   9.189   8.438   4.859
19541WAT     H158865   9.172   8.476   4.768
19541WAT     H258866   9.287   8.423   4.871
19542WAT      O58867   9.706   9.441   3.853
19542WAT     H158868   9.728   9.534   3.882
19542WAT     H258869   9.609   9.424   3.867
19543WAT      O58870   8.804   7.584   2.330
19543WAT     H158871   8.886   7.601   2.274
19543WAT     H258872   8.831   7.541   2.416
19544WAT      O58873   9.534   4.411   4.337
19544WAT     H158874   9.609   4.429   4.273
19544WAT     H258875   9.570   4.371   4.421
19545WAT      O58876   0.414   2.485   3.203
19545WAT     H158877   0.341   2.538   3.247
19545WAT     H258878   0.378   2.397   3.172
19546WAT      O58879   2.558   2.538   5.722
19546WAT     H158880   2.577   2.570   5.814
19546WAT     H258881   2.459   2.531   5.709
19547WAT      O58882   4.229   8.301   7.551
19547WAT     H158883   4.304   8.313   7.487
19547WAT     H258884   4.159   8.243   7.510
19548WAT      O58885   0.733   5.397   3.374
19548WAT     H158886   0.832   5.407   3.370
19548WAT     H258887   0.710   5.317   3.430
19549WAT      O58888   4.186   5.978   4.653
19549WAT     H158889   4.263   5.928   4.614
19549WAT     H258890   4.126   6.009   4.579
19550WAT      O58891   9.834   5.600   1.797
19550WAT     H158892   9.865   5.660   1.723
19550WAT     H258893   9.858   5.505   1.776
19551WAT      O58894   8.386   4.762   3.577
19551WAT     H158895   8.451   4.822   3.530
19551WAT     H258896   8.294   4.776   3.539
19552WAT      O58897   5.463   0.884   1.714
19552WAT     H158898   5.500   0.977   1.722
19552WAT     H258899   5.530   0.825   1.670
19553WAT      O58900   0.074   4.912   4.816
19553WAT     H158901  -0.006   4.880   4.867
19553WAT     H258902   0.058   5.007   4.787
19554WAT      O58903   3.188   1.672   2.991
19554WAT     H158904   3.091   1.686   2.969
19554WAT     H258905   3.241   1.750   2.960
19555WAT      O58906   5.018   6.494   3.052
19555WAT     H158907   5.032   6.592   3.036
19555WAT     H258908   5.031   6.475   3.150
19556WAT      O58909   1.671   1.680   7.520
19556WAT     H158910   1.753   1.699   7.574
19556WAT     H258911   1.629   1.766   7.491
19557WAT      O58912   1.843   3.641   8.674
19557WAT     H158913   1.830   3.577   8.750
19557WAT     H258914   1.791   3.725   8.692
19558WAT      O58915   9.562   2.978   5.675
19558WAT     H158916   9.610   2.914   5.735
19558WAT     H258917   9.597   2.971   5.582
19559WAT      O58918   6.000   9.117   2.572
19559WAT     H158919   5.958   9.084   2.656
19559WAT     H258920   5.992   9.047   2.501
19560WAT      O58921   1.266   5.898   7.118
19560WAT     H158922   1.281   5.908   7.217
19560WAT     H258923   1.189   5.956   7.090
19561WAT      O58924   6.482   4.167   9.851
19561WAT     H158925   6.569   4.215   9.860
19561WAT     H258926   6.435   4.169   9.940
19562WAT      O58927   9.593   8.525   2.820
19562WAT     H158928   9.532   8.594   2.782
19562WAT     H258929   9.683   8.532   2.777
19563WAT      O58930   3.113   3.936   6.523
19563WAT     H158931   3.033   3.950   6.464
19563WAT     H258932   3.155   4.024   6.545
19564WAT      O58933   3.452   3.980   2.195
19564WAT     H158934   3.478   4.052   2.259
19564WAT     H258935   3.439   3.894   2.244
19565WAT      O58936   3.284   9.434   1.832
19565WAT     H158937   3.202   9.415   1.779
19565WAT     H258938   3.365   9.417   1.776
19566WAT      O58939   4.347   2.109   7.725
19566WAT     H158940   4.259   2.157   7.726
19566WAT     H258941   4.392   2.120   7.813
19567WAT      O58942   6.842   7.678   1.165
19567WAT     H158943   6.917   7.676   1.231
19567WAT     H258944   6.879   7.668   1.072
19568WAT      O58945   1.296   3.120   8.205
19568WAT     H158946   1.359   3.044   8.213
19568WAT     H258947   1.207   3.094   8.243
19569WAT      O58948   5.076   5.310   6.027
19569WAT     H158949   5.048   5.272   5.939
19569WAT     H258950   5.071   5.410   6.023
19570WAT      O58951   5.874   9.207   6.581
19570WAT     H158952   5.915   9.281   6.527
19570WAT     H258953   5.942   9.136   6.597
19571WAT      O58954   2.506   0.603   2.123
19571WAT     H158955   2.578   0.553   2.171
19571WAT     H258956   2.426   0.543   2.112
19572WAT      O58957   2.021   3.528   8.494
19572WAT     H158958   2.019   3.430   8.510
19572WAT     H258959   1.956   3.574   8.555
19573WAT      O58960   2.866   5.118   0.812
19573WAT     H158961   2.780   5.163   0.837
19573WAT     H258962   2.942   5.180   0.832
19574WAT      O58963   7.706   3.214   7.357
19574WAT     H158964   7.662   3.135   7.399
19574WAT     H258965   7.805   3.201   7.359
19575WAT      O58966   9.266   2.115   9.836
19575WAT     H158967   9.264   2.206   9.794
19575WAT     H258968   9.229   2.120   9.928
19576WAT      O58969   8.854   9.266   4.266
19576WAT     H158970   8.832   9.281   4.363
19576WAT     H258971   8.874   9.169   4.251
19577WAT      O58972   2.859   3.437   5.394
19577WAT     H158973   2.797   3.380   5.341
19577WAT     H258974   2.833   3.533   5.385
19578WAT      O58975   1.799   6.543   5.590
19578WAT     H158976   1.812   6.493   5.676
19578WAT     H258977   1.764   6.481   5.521
19579WAT      O58978   8.440   5.703   1.269
19579WAT     H158979   8.370   5.745   1.327
19579WAT     H258980   8.397   5.642   1.203
19580WAT      O58981   2.914   2.184   0.742
19580WAT     H158982   2.927   2.128   0.661
19580WAT     H258983   2.995   2.180   0.800
19581WAT      O58984   4.929   7.597   5.664
19581WAT     H158985   4.895   7.542   5.587
19581WAT     H258986   5.009   7.648   5.634
19582WAT      O58987   2.932   9.050   9.493
19582WAT     H158988   2.909   9.124   9.429
19582WAT     H258989   2.851   9.026   9.547
19583WAT      O58990   3.494   7.858   8.695
19583WAT     H158991   3.580   7.902   8.718
19583WAT     H258992   3.418   7.916   8.724
19584WAT      O58993   2.752   4.159   6.749
19584WAT     H158994   2.708   4.095   6.685
19584WAT     H258995   2.741   4.252   6.715
19585WAT      O58996   3.949   5.861   4.338
19585WAT     H158997   3.876   5.827   4.398
19585WAT     H258998   3.991   5.784   4.290
19586WAT      O58999   0.778   9.446   3.299
19586WAT     H159000   0.731   9.531   3.274
19586WAT     H259001   0.721   9.395   3.363
19587WAT      O59002   3.020   9.320   5.910
19587WAT     H159003   3.043   9.307   5.813
19587WAT     H259004   3.090   9.276   5.967
19588WAT      O59005   7.956   2.356   4.535
19588WAT     H159006   7.985   2.278   4.481
19588WAT     H259007   8.013   2.435   4.514
19589WAT      O59008   8.198   2.472   4.971
19589WAT     H159009   8.268   2.421   5.021
19589WAT     H259010   8.120   2.489   5.031
19590WAT      O59011   2.124   5.606   8.908
19590WAT     H159012   2.218   5.596   8.876
19590WAT     H259013   2.106   5.702   8.929
19591WAT      O59014   2.002   7.498   4.483
19591WAT     H159015   1.973   7.565   4.551
19591WAT     H259016   2.052   7.424   4.528
19592WAT      O59017   2.317   2.541   9.579
19592WAT     H159018   2.319   2.494   9.490
19592WAT     H259019   2.256   2.491   9.641
19593WAT      O59020   9.132   2.988   1.550
19593WAT     H159021   9.222   3.013   1.584
19593WAT     H259022   9.142   2.938   1.464
19594WAT      O59023   2.180   9.116   9.804
19594WAT     H159024   2.172   9.212   9.831
19594WAT     H259025   2.255   9.073   9.856
19595WAT      O59026   4.450   6.466   0.295
19595WAT     H159027   4.422   6.560   0.277
19595WAT     H259028   4.369   6.408   0.303
19596WAT      O59029   3.362  -0.002   8.131
19596WAT     H159030   3.310   0.076   8.167
19596WAT     H259031   3.402   0.022   8.043
19597WAT      O59032   0.108   5.289   3.896
19597WAT     H159033   0.095   5.319   3.801
19597WAT     H259034   0.162   5.205   3.898
19598WAT      O59035   7.501   7.625   5.933
19598WAT     H159036   7.488   7.721   5.908
19598WAT     H259037   7.591   7.614   5.976
19599WAT      O59038   1.700   3.391   9.634
19599WAT     H159039   1.697   3.309   9.578
19599WAT     H259040   1.791   3.431   9.630
19600WAT      O59041   0.721   1.146   7.038
19600WAT     H159042   0.795   1.171   7.100
19600WAT     H259043   0.706   1.220   6.972
19601WAT      O59044   4.665   6.312   9.488
19601WAT     H159045   4.731   6.331   9.561
19601WAT     H259046   4.573   6.333   9.520
19602WAT      O59047   4.906   7.535   3.183
19602WAT     H159048   4.944   7.524   3.275
19602WAT     H259049   4.979   7.561   3.120
19603WAT      O59050   2.003   4.434   8.745
19603WAT     H159051   1.983   4.363   8.679
19603WAT     H259052   1.917   4.478   8.774
19604WAT      O59053   7.634   5.109   6.115
19604WAT     H159054   7.570   5.032   6.127
19604WAT     H259055   7.582   5.192   6.094
19605WAT      O59056   3.683   1.884   5.842
19605WAT     H159057   3.780   1.864   5.825
19605WAT     H259058   3.676   1.951   5.916
19606WAT      O59059   2.843   4.018   6.336
19606WAT     H159060   2.778   4.073   6.387
19606WAT     H259061   2.798   3.976   6.257
19607WAT      O59062   6.341   4.477   0.648
19607WAT     H159063   6.371   4.498   0.741
19607WAT     H259064   6.289   4.554   0.612
19608WAT      O59065   4.548   8.246   1.030
19608WAT     H159066   4.647   8.232   1.040
19608WAT     H259067   4.499   8.170   1.074
19609WAT      O59068   8.356   1.646   1.866
19609WAT     H159069   8.265   1.653   1.827
19609WAT     H259070   8.352   1.666   1.964
19610WAT      O59071   5.927   7.898   3.793
19610WAT     H159072   5.860   7.824   3.794
19610WAT     H259073   6.017   7.863   3.821
19611WAT      O59074   2.538   9.478   2.250
19611WAT     H159075   2.570   9.471   2.155
19611WAT     H259076   2.614   9.505   2.309
19612WAT      O59077   0.499   3.744   8.607
19612WAT     H159078   0.527   3.839   8.595
19612WAT     H259079   0.416   3.740   8.663
19613WAT      O59080   2.565   6.961   5.336
19613WAT     H159081   2.472   6.983   5.308
19613WAT     H259082   2.597   6.879   5.288
19614WAT      O59083   9.585   9.065   3.776
19614WAT     H159084   9.537   9.147   3.746
19614WAT     H259085   9.599   9.004   3.699
19615WAT      O59086   4.797   6.623   3.714
19615WAT     H159087   4.756   6.701   3.760
19615WAT     H259088   4.896   6.622   3.730
19616WAT      O59089   7.050   6.993   3.889
19616WAT     H159090   7.059   7.093   3.888
19616WAT     H259091   6.995   6.965   3.968
19617WAT      O59092   2.213   7.389   8.846
19617WAT     H159093   2.131   7.375   8.792
19617WAT     H259094   2.292   7.397   8.786
19618WAT      O59095   4.561   0.871   6.272
19618WAT     H159096   4.546   0.966   6.244
19618WAT     H259097   4.613   0.823   6.201
19619WAT      O59098   4.158   3.903   0.158
19619WAT     H159099   4.258   3.901   0.160
19619WAT     H259100   4.127   3.943   0.071
19620WAT      O59101   0.962   7.656   2.915
19620WAT     H159102   0.887   7.596   2.887
19620WAT     H259103   1.030   7.602   2.964
19621WAT      O59104   0.723   1.059   9.827
19621WAT     H159105   0.692   1.149   9.795
19621WAT     H259106   0.812   1.067   9.871
19622WAT      O59107   0.306   0.532   9.528
19622WAT     H159108   0.369   0.609   9.518
19622WAT     H259109   0.277   0.501   9.437
19623WAT      O59110   3.694   9.271   4.134
19623WAT     H159111   3.621   9.218   4.177
19623WAT     H259112   3.658   9.318   4.053
19624WAT      O59113   3.653   8.439   5.357
19624WAT     H159114   3.561   8.467   5.330
19624WAT     H259115   3.695   8.511   5.413
19625WAT      O59116   4.490   0.216   4.792
19625WAT     H159117   4.410   0.269   4.765
19625WAT     H259118   4.557   0.277   4.835
19626WAT      O59119   4.396   1.849   3.285
19626WAT     H159120   4.344   1.784   3.230
19626WAT     H259121   4.344   1.933   3.295
19627WAT      O59122   9.633   1.317   9.170
19627WAT     H159123   9.535   1.310   9.155
19627WAT     H259124   9.681   1.256   9.106
19628WAT      O59125   4.394   3.362   9.548
19628WAT     H159126   4.373   3.420   9.626
19628WAT     H259127   4.378   3.413   9.463
19629WAT      O59128   1.155   4.617   3.548
19629WAT     H159129   1.081   4.612   3.614
19629WAT     H259130   1.209   4.532   3.552
19630WAT      O59131   3.105   2.758   6.557
19630WAT     H159132   3.121   2.693   6.631
19630WAT     H259133   3.173   2.743   6.485
19631WAT      O59134   0.228   8.671   6.661
19631WAT     H159135   0.138   8.674   6.617
19631WAT     H259136   0.235   8.588   6.716
19632WAT      O59137   2.398   6.874   2.482
19632WAT     H159138   2.366   6.886   2.387
19632WAT     H259139   2.363   6.787   2.518
19633WAT      O59140   3.275   0.233   9.697
19633WAT     H159141   3.372   0.257   9.708
19633WAT     H259142   3.266   0.134   9.696
19634WAT      O59143   4.583   8.354   3.017
19634WAT     H159144   4.632   8.277   3.058
19634WAT     H259145   4.631   8.384   2.935
19635WAT      O59146   1.786   9.037   2.520
19635WAT     H159147   1.874   9.085   2.523
19635WAT     H259148   1.714   9.102   2.496
19636WAT      O59149   5.884   4.950   5.830
19636WAT     H159150   5.936   4.870   5.798
19636WAT     H259151   5.789   4.923   5.847
19637WAT      O59152   8.124   0.597   6.887
19637WAT     H159153   8.147   0.592   6.790
19637WAT     H259154   8.189   0.543   6.940
19638WAT      O59155   3.939   2.520   5.049
19638WAT     H159156   3.859   2.484   5.098
19638WAT     H259157   3.961   2.459   4.973
19639WAT      O59158   8.724   6.424   0.197
19639WAT     H159159   8.743   6.452   0.291
19639WAT     H259160   8.750   6.497   0.134
19640WAT      O59161   1.805   1.758   5.909
19640WAT     H159162   1.722   1.731   5.859
19640WAT     H259163   1.833   1.683   5.969
19641WAT      O59164   6.122   3.142   1.041
19641WAT     H159165   6.202   3.093   1.076
19641WAT     H259166   6.048   3.136   1.107
19642WAT      O59167   9.316   8.666   4.050
19642WAT     H159168   9.296   8.664   4.148
19642WAT     H259169   9.305   8.574   4.013
19643WAT      O59170   9.368   8.136   4.985
19643WAT     H159171   9.306   8.091   5.049
19643WAT     H259172   9.345   8.109   4.892
19644WAT      O59173   9.480   5.493   5.304
19644WAT     H159174   9.463   5.395   5.304
19644WAT     H259175   9.467   5.529   5.397
19645WAT      O59176   7.768   2.506   8.323
19645WAT     H159177   7.685   2.504   8.267
19645WAT     H259178   7.774   2.592   8.372
19646WAT      O59179   8.315   7.320   1.829
19646WAT     H159180   8.306   7.416   1.857
19646WAT     H259181   8.229   7.289   1.788
19647WAT      O59182   3.058   8.157   6.841
19647WAT     H159183   3.023   8.113   6.758
19647WAT     H259184   3.156   8.140   6.850
19648WAT      O59185   4.996   1.014   1.861
19648WAT     H159186   4.944   0.932   1.885
19648WAT     H259187   5.031   1.056   1.945
19649WAT      O59188   9.362   9.450   7.443
19649WAT     H159189   9.268   9.419   7.426
19649WAT     H259190   9.394   9.412   7.530
19650WAT      O59191   6.600   3.578   2.398
19650WAT     H159192   6.676   3.558   2.460
19650WAT     H259193   6.533   3.503   2.403
19651WAT      O59194   7.359   0.119   5.658
19651WAT     H159195   7.458   0.130   5.643
19651WAT     H259196   7.315   0.208   5.649
19652WAT      O59197   1.374   4.822   2.328
19652WAT     H159198   1.325   4.904   2.359
19652WAT     H259199   1.352   4.745   2.388
19653WAT      O59200   6.750   5.987   4.341
19653WAT     H159201   6.840   5.966   4.377
19653WAT     H259202   6.681   5.933   4.389
19654WAT      O59203   1.594   8.527   3.827
19654WAT     H159204   1.595   8.581   3.911
19654WAT     H259205   1.687   8.503   3.801
19655WAT      O59206   4.028   2.649   0.645
19655WAT     H159207   4.048   2.743   0.616
19655WAT     H259208   4.028   2.589   0.565
19656WAT      O59209   2.811   6.223   8.912
19656WAT     H159210   2.806   6.126   8.937
19656WAT     H259211   2.870   6.234   8.832
19657WAT      O59212   1.102   7.203   0.768
19657WAT     H159213   1.027   7.238   0.825
19657WAT     H259214   1.154   7.280   0.730
19658WAT      O59215   4.138   3.857   8.550
19658WAT     H159216   4.186   3.834   8.634
19658WAT     H259217   4.109   3.774   8.503
19659WAT      O59218   9.720   7.762   5.216
19659WAT     H159219   9.684   7.788   5.126
19659WAT     H259220   9.788   7.690   5.205
19660WAT      O59221   0.202   0.218   6.732
19660WAT     H159222   0.133   0.290   6.743
19660WAT     H259223   0.256   0.210   6.816
19661WAT      O59224   9.431   2.309   6.630
19661WAT     H159225   9.371   2.349   6.560
19661WAT     H259226   9.514   2.364   6.639
19662WAT      O59227   1.588   7.376   4.000
19662WAT     H159228   1.675   7.425   3.988
19662WAT     H259229   1.591   7.290   3.949
19663WAT      O59230   3.911   3.696   7.107
19663WAT     H159231   3.906   3.680   7.206
19663WAT     H259232   3.854   3.629   7.060
19664WAT      O59233   6.832   4.338   7.836
19664WAT     H159234   6.758   4.293   7.787
19664WAT     H259235   6.878   4.271   7.895
19665WAT      O59236   3.810   9.407   7.705
19665WAT     H159237   3.821   9.412   7.606
19665WAT     H259238   3.768   9.319   7.729
19666WAT      O59239   0.894   3.822   4.278
19666WAT     H159240   0.815   3.763   4.298
19666WAT     H259241   0.908   3.826   4.179
19667WAT      O59242   1.330   9.584   7.594
19667WAT     H159243   1.413   9.593   7.649
19667WAT     H259244   1.345   9.516   7.522
19668WAT      O59245   3.977   4.792   3.830
19668WAT     H159246   4.025   4.867   3.783
19668WAT     H259247   3.878   4.805   3.822
19669WAT      O59248   7.632   8.448   0.849
19669WAT     H159249   7.544   8.473   0.888
19669WAT     H259250   7.692   8.411   0.920
19670WAT      O59251   7.783   0.213   6.266
19670WAT     H159252   7.825   0.138   6.316
19670WAT     H259253   7.851   0.255   6.206
19671WAT      O59254   0.830   2.540   7.230
19671WAT     H159255   0.876   2.588   7.155
19671WAT     H259256   0.732   2.562   7.228
19672WAT      O59257   4.911   2.162   5.395
19672WAT     H159258   4.860   2.115   5.467
19672WAT     H259259   4.873   2.253   5.381
19673WAT      O59260   1.067   1.026   9.019
19673WAT     H159261   0.984   0.977   8.992
19673WAT     H259262   1.085   1.099   8.953
19674WAT      O59263   8.564   1.101   6.955
19674WAT     H159264   8.553   1.065   7.048
19674WAT     H259265   8.660   1.123   6.939
19675WAT      O59266   7.815   3.641   1.689
19675WAT     H159267   7.811   3.544   1.665
19675WAT     H259268   7.903   3.660   1.734
19676WAT      O59269   7.872   2.975   5.320
19676WAT     H159270   7.927   2.961   5.238
19676WAT     H259271   7.930   3.003   5.396
19677WAT      O59272   0.320   7.980   7.580
19677WAT     H159273   0.264   7.971   7.662
19677WAT     H259274   0.324   7.892   7.532
19678WAT      O59275   2.251   0.750   2.835
19678WAT     H159276   2.283   0.662   2.870
19678WAT     H259277   2.155   0.764   2.861
19679WAT      O59278   0.527   8.775   0.983
19679WAT     H159279   0.505   8.696   1.040
19679WAT     H259280   0.572   8.744   0.899
19680WAT      O59281   1.836   9.606   4.478
19680WAT     H159282   1.833   9.660   4.563
19680WAT     H259283   1.743   9.580   4.453
19681WAT      O59284   5.864   2.897   8.503
19681WAT     H159285   5.894   2.950   8.424
19681WAT     H259286   5.853   2.801   8.477
19682WAT      O59287   6.157   0.959   3.315
19682WAT     H159288   6.197   0.925   3.230
19682WAT     H259289   6.066   0.918   3.327
19683WAT      O59290   6.695   4.467   2.490
19683WAT     H159291   6.766   4.536   2.501
19683WAT     H259292   6.732   4.376   2.512
19684WAT      O59293   2.870   1.085   5.291
19684WAT     H159294   2.965   1.110   5.275
19684WAT     H259295   2.843   1.015   5.224
19685WAT      O59296   3.491   3.491   5.116
19685WAT     H159297   3.545   3.482   5.199
19685WAT     H259298   3.510   3.579   5.072
19686WAT      O59299   9.880   8.195   8.460
19686WAT     H159300   9.793   8.244   8.456
19686WAT     H259301   9.916   8.183   8.368
19687WAT      O59302   1.383   5.363   9.204
19687WAT     H159303   1.330   5.423   9.143
19687WAT     H259304   1.443   5.304   9.150
19688WAT      O59305   2.772   1.468   5.209
19688WAT     H159306   2.870   1.452   5.216
19688WAT     H259307   2.755   1.556   5.164
19689WAT      O59308   7.380   6.466   3.995
19689WAT     H159309   7.362   6.557   3.957
19689WAT     H259310   7.475   6.441   3.977
19690WAT      O59311   4.310   0.340   2.767
19690WAT     H159312   4.407   0.348   2.746
19690WAT     H259313   4.273   0.258   2.723
19691WAT      O59314   1.502   2.734   1.752
19691WAT     H159315   1.443   2.799   1.704
19691WAT     H259316   1.542   2.670   1.686
19692WAT      O59317   4.331   3.006   6.458
19692WAT     H159318   4.372   2.982   6.546
19692WAT     H259319   4.232   2.991   6.462
19693WAT      O59320   4.096   9.290   4.378
19693WAT     H159321   4.026   9.228   4.343
19693WAT     H259322   4.144   9.246   4.455
19694WAT      O59323   8.745   6.862   9.869
19694WAT     H159324   8.719   6.840   9.774
19694WAT     H259325   8.829   6.916   9.869
19695WAT      O59326   9.669   0.220   4.770
19695WAT     H159327   9.625   0.163   4.700
19695WAT     H259328   9.768   0.221   4.754
19696WAT      O59329   1.752   9.392   6.825
19696WAT     H159330   1.662   9.435   6.819
19696WAT     H259331   1.815   9.453   6.872
19697WAT      O59332   2.036   9.567   9.243
19697WAT     H159333   2.074   9.517   9.166
19697WAT     H259334   2.018   9.662   9.217
19698WAT      O59335   2.504   3.755   2.730
19698WAT     H159336   2.532   3.696   2.806
19698WAT     H259337   2.545   3.846   2.741
19699WAT      O59338   2.639   4.372   4.750
19699WAT     H159339   2.609   4.295   4.806
19699WAT     H259340   2.583   4.377   4.667
19700WAT      O59341   0.691   8.590   6.275
19700WAT     H159342   0.762   8.575   6.207
19700WAT     H259343   0.601   8.590   6.230
19701WAT      O59344   9.131   0.856   0.356
19701WAT     H159345   9.132   0.801   0.440
19701WAT     H259346   9.037   0.867   0.325
19702WAT      O59347   1.109   5.659   8.654
19702WAT     H159348   1.041   5.614   8.597
19702WAT     H259349   1.195   5.667   8.603
19703WAT      O59350   3.852   3.382   6.229
19703WAT     H159351   3.937   3.431   6.246
19703WAT     H259352   3.777   3.447   6.218
19704WAT      O59353   8.154   5.170   7.796
19704WAT     H159354   8.148   5.200   7.700
19704WAT     H259355   8.241   5.124   7.811
19705WAT      O59356   6.911   1.340   5.527
19705WAT     H159357   7.004   1.307   5.513
19705WAT     H259358   6.862   1.341   5.440
19706WAT      O59359   2.381   3.310   3.752
19706WAT     H159360   2.386   3.227   3.696
19706WAT     H259361   2.450   3.305   3.824
19707WAT      O59362   1.570   3.171   4.055
19707WAT     H159363   1.630   3.241   4.018
19707WAT     H259364   1.575   3.089   3.997
19708WAT      O59365   9.020   0.109   8.536
19708WAT     H159366   9.032   0.158   8.450
19708WAT     H259367   9.044   0.170   8.612
19709WAT      O59368   0.080   2.724   2.242
19709WAT     H159369   0.169   2.682   2.263
19709WAT     H259370   0.095   2.813   2.198
19710WAT      O59371   0.937   4.454   7.468
19710WAT     H159372   0.862   4.409   7.418
19710WAT     H259373   1.011   4.475   7.405
19711WAT      O59374   2.713   2.759   2.159
19711WAT     H159375   2.795   2.710   2.188
19711WAT     H259376   2.643   2.752   2.230
19712WAT      O59377   9.805   7.303   4.985
19712WAT     H159378   9.857   7.359   4.920
19712WAT     H259379   9.727   7.355   5.020
19713WAT      O59380   9.127   3.937   6.989
19713WAT     H159381   9.044   3.886   6.965
19713WAT     H259382   9.126   3.958   7.086
19714WAT      O59383   9.528   6.266   6.226
19714WAT     H159384   9.469   6.189   6.203
19714WAT     H259385   9.589   6.241   6.301
19715WAT      O59386   6.830   3.730   8.088
19715WAT     H159387   6.778   3.814   8.072
19715WAT     H259388   6.802   3.661   8.021
19716WAT      O59389   2.759   7.683   6.703
19716WAT     H159390   2.718   7.593   6.683
19716WAT     H259391   2.811   7.714   6.624
19717WAT      O59392   5.268   8.266   5.005
19717WAT     H159393   5.212   8.216   5.072
19717WAT     H259394   5.316   8.201   4.947
19718WAT      O59395   6.423   7.162   9.509
19718WAT     H159396   6.511   7.125   9.539
19718WAT     H259397   6.437   7.215   9.425
19719WAT      O59398   3.436   9.235   4.252
19719WAT     H159399   3.413   9.153   4.199
19719WAT     H259400   3.361   9.301   4.244
19720WAT      O59401   1.648   6.361   4.062
19720WAT     H159402   1.567   6.392   4.111
19720WAT     H259403   1.642   6.390   3.966
19721WAT      O59404   6.382   1.837   8.092
19721WAT     H159405   6.355   1.862   8.185
19721WAT     H259406   6.450   1.764   8.095
19722WAT      O59407   6.844   0.477   7.479
19722WAT     H159408   6.772   0.535   7.441
19722WAT     H259409   6.806   0.388   7.503
19723WAT      O59410   3.575   6.820   5.827
19723WAT     H159411   3.557   6.723   5.838
19723WAT     H259412   3.519   6.872   5.891
19724WAT      O59413   7.360   2.851   1.414
19724WAT     H159414   7.430   2.851   1.485
19724WAT     H259415   7.397   2.890   1.330
19725WAT      O59416   7.924   9.254   4.082
19725WAT     H159417   7.975   9.172   4.054
19725WAT     H259418   7.886   9.299   4.001
19726WAT      O59419   9.484   4.296   0.097
19726WAT     H159420   9.448   4.381   0.136
19726WAT     H259421   9.471   4.222   0.162
19727WAT      O59422   6.081   3.446   1.240
19727WAT     H159423   6.089   3.372   1.307
19727WAT     H259424   6.000   3.501   1.261
19728WAT      O59425   5.881   3.633   8.577
19728WAT     H159426   5.855   3.729   8.564
19728WAT     H259427   5.806   3.573   8.549
19729WAT      O59428   8.921   3.533   3.809
19729WAT     H159429   8.913   3.454   3.871
19729WAT     H259430   8.837   3.542   3.755
19730WAT      O59431   0.249   1.018   3.540
19730WAT     H159432   0.260   1.117   3.539
19730WAT     H259433   0.339   0.974   3.535
19731WAT      O59434   6.496   3.371   3.515
19731WAT     H159435   6.455   3.457   3.546
19731WAT     H259436   6.576   3.391   3.458
19732WAT      O59437   7.602   8.855   5.896
19732WAT     H159438   7.516   8.869   5.848
19732WAT     H259439   7.594   8.886   5.990
19733WAT      O59440   7.338   5.902   6.608
19733WAT     H159441   7.392   5.819   6.595
19733WAT     H259442   7.279   5.891   6.688
19734WAT      O59443   6.422   8.915   8.878
19734WAT     H159444   6.387   9.007   8.860
19734WAT     H259445   6.346   8.851   8.883
19735WAT      O59446   1.096   2.015   3.385
19735WAT     H159447   1.069   1.968   3.469
19735WAT     H259448   1.191   1.993   3.363
19736WAT      O59449   8.106   0.142   5.847
19736WAT     H159450   8.059   0.163   5.761
19736WAT     H259451   8.187   0.087   5.829
19737WAT      O59452   2.176   7.782   2.027
19737WAT     H159453   2.094   7.729   2.009
19737WAT     H259454   2.251   7.721   2.053
19738WAT      O59455   7.185   7.448   4.154
19738WAT     H159456   7.209   7.407   4.242
19738WAT     H259457   7.134   7.382   4.099
19739WAT      O59458   0.802   1.702   2.560
19739WAT     H159459   0.869   1.662   2.498
19739WAT     H259460   0.710   1.688   2.524
19740WAT      O59461   8.838   3.626   1.198
19740WAT     H159462   8.770   3.671   1.140
19740WAT     H259463   8.915   3.597   1.143
19741WAT      O59464   0.910   4.336   9.553
19741WAT     H159465   0.951   4.270   9.616
19741WAT     H259466   0.950   4.326   9.462
19742WAT      O59467   9.019   6.188   3.813
19742WAT     H159468   9.079   6.267   3.801
19742WAT     H259469   8.959   6.202   3.891
19743WAT      O59470   3.354   4.900   2.247
19743WAT     H159471   3.406   4.818   2.221
19743WAT     H259472   3.391   4.979   2.197
19744WAT      O59473   1.110   8.714   2.932
19744WAT     H159474   1.183   8.756   2.987
19744WAT     H259475   1.026   8.766   2.942
19745WAT      O59476   0.128   9.109   5.123
19745WAT     H159477   0.198   9.179   5.109
19745WAT     H259478   0.082   9.090   5.036
19746WAT      O59479   6.607   5.182   1.199
19746WAT     H159480   6.706   5.200   1.196
19746WAT     H259481   6.579   5.135   1.115
19747WAT      O59482   5.717   1.484   6.505
19747WAT     H159483   5.729   1.568   6.558
19747WAT     H259484   5.641   1.431   6.543
19748WAT      O59485   9.003   0.178   6.960
19748WAT     H159486   9.094   0.137   6.955
19748WAT     H259487   9.011   0.278   6.952
19749WAT      O59488   0.376   8.457   7.761
19749WAT     H159489   0.372   8.551   7.795
19749WAT     H259490   0.323   8.450   7.677
19750WAT      O59491   4.395   1.115   1.636
19750WAT     H159492   4.452   1.034   1.653
19750WAT     H259493   4.328   1.093   1.565
19751WAT      O59494   0.481   6.765   0.670
19751WAT     H159495   0.493   6.676   0.627
19751WAT     H259496   0.556   6.781   0.734
19752WAT      O59497   6.692   3.928   4.047
19752WAT     H159498   6.783   3.947   4.083
19752WAT     H259499   6.626   3.929   4.122
19753WAT      O59500   7.011   0.598   1.243
19753WAT     H159501   7.005   0.528   1.315
19753WAT     H259502   7.085   0.575   1.180
19754WAT      O59503   4.103   8.512   8.832
19754WAT     H159504   4.139   8.421   8.816
19754WAT     H259505   4.177   8.579   8.826
19755WAT      O59506   3.862   8.431   8.043
19755WAT     H159507   3.842   8.491   7.965
19755WAT     H259508   3.950   8.458   8.084
19756WAT      O59509   6.501   6.319   3.700
19756WAT     H159510   6.442   6.350   3.625
19756WAT     H259511   6.497   6.384   3.775
19757WAT      O59512   1.809   7.960   5.959
19757WAT     H159513   1.826   8.031   5.891
19757WAT     H259514   1.715   7.926   5.949
19758WAT      O59515   9.714   1.460   6.975
19758WAT     H159516   9.626   1.498   7.001
19758WAT     H259517   9.704   1.362   6.957
19759WAT      O59518   3.244   5.830   7.432
19759WAT     H159519   3.262   5.769   7.509
19759WAT     H259520   3.249   5.777   7.346
19760WAT      O59521   0.432   4.643   1.707
19760WAT     H159522   0.503   4.709   1.732
19760WAT     H259523   0.362   4.640   1.779
19761WAT      O59524   6.188   6.296   0.191
19761WAT     H159525   6.110   6.356   0.169
19761WAT     H259526   6.164   6.201   0.170
19762WAT      O59527   2.694   2.530   1.460
19762WAT     H159528   2.662   2.581   1.539
19762WAT     H259529   2.774   2.475   1.486
19763WAT      O59530   2.675   1.616   4.138
19763WAT     H159531   2.590   1.618   4.190
19763WAT     H259532   2.733   1.692   4.168
19764WAT      O59533   7.356   5.525   8.652
19764WAT     H159534   7.280   5.578   8.614
19764WAT     H259535   7.325   5.432   8.671
19765WAT      O59536   0.269   8.644   5.566
19765WAT     H159537   0.289   8.639   5.468
19765WAT     H259538   0.200   8.713   5.583
19766WAT      O59539   4.313   7.240   7.505
19766WAT     H159540   4.242   7.241   7.435
19766WAT     H259541   4.396   7.198   7.468
19767WAT      O59542   8.691   3.191   3.175
19767WAT     H159543   8.616   3.130   3.201
19767WAT     H259544   8.676   3.224   3.081
19768WAT      O59545   8.044   9.615   9.678
19768WAT     H159546   8.011   9.683   9.743
19768WAT     H259547   8.040   9.524   9.719
19769WAT      O59548   4.620   2.014   3.816
19769WAT     H159549   4.656   2.106   3.804
19769WAT     H259550   4.675   1.965   3.885
19770WAT      O59551   2.231   6.226   1.771
19770WAT     H159552   2.242   6.147   1.711
19770WAT     H259553   2.317   6.242   1.820
19771WAT      O59554   9.628   2.329   4.073
19771WAT     H159555   9.600   2.384   4.152
19771WAT     H259556   9.555   2.265   4.050
19772WAT      O59557   8.076   8.432   7.806
19772WAT     H159558   8.065   8.454   7.709
19772WAT     H259559   7.987   8.414   7.847
19773WAT      O59560   4.460   4.547   4.356
19773WAT     H159561   4.488   4.464   4.405
19773WAT     H259562   4.515   4.556   4.272
19774WAT      O59563   7.438   7.889   8.079
19774WAT     H159564   7.398   7.847   7.997
19774WAT     H259565   7.392   7.853   8.160
19775WAT      O59566   4.700   9.107   4.583
19775WAT     H159567   4.621   9.169   4.587
19775WAT     H259568   4.772   9.148   4.527
19776WAT      O59569   9.320   3.174   6.678
19776WAT     H159570   9.247   3.243   6.682
19776WAT     H259571   9.350   3.153   6.771
19777WAT      O59572   9.783   7.657   2.523
19777WAT     H159573   9.708   7.692   2.579
19777WAT     H259574   9.770   7.558   2.508
19778WAT      O59575   9.833   3.532   6.298
19778WAT     H159576   9.926   3.512   6.268
19778WAT     H259577   9.826   3.628   6.325
19779WAT      O59578   7.503   7.332   9.091
19779WAT     H159579   7.547   7.391   9.022
19779WAT     H259580   7.570   7.311   9.163
19780WAT      O59581   8.172   5.215   3.251
19780WAT     H159582   8.207   5.239   3.342
19780WAT     H259583   8.189   5.118   3.234
19781WAT      O59584   3.335   1.174   2.198
19781WAT     H159585   3.368   1.203   2.288
19781WAT     H259586   3.388   1.220   2.127
19782WAT      O59587   4.876   0.686   6.317
19782WAT     H159588   4.917   0.640   6.396
19782WAT     H259589   4.873   0.784   6.333
19783WAT      O59590   3.516   5.141   1.674
19783WAT     H159591   3.485   5.050   1.703
19783WAT     H259592   3.614   5.150   1.694
19784WAT      O59593   7.930   9.824   1.611
19784WAT     H159594   7.918   9.818   1.710
19784WAT     H259595   7.869   9.894   1.574
19785WAT      O59596   1.956   6.868   7.680
19785WAT     H159597   1.949   6.947   7.619
19785WAT     H259598   2.047   6.867   7.721
19786WAT      O59599   0.360   9.616   7.966
19786WAT     H159600   0.335   9.560   7.888
19786WAT     H259601   0.331   9.571   8.051
19787WAT      O59602   3.875   2.797   7.981
19787WAT     H159603   3.881   2.701   7.954
19787WAT     H259604   3.800   2.841   7.932
19788WAT      O59605   3.084   1.625   2.142
19788WAT     H159606   2.989   1.606   2.165
19788WAT     H259607   3.089   1.665   2.051
19789WAT      O59608   1.152   6.408   7.848
19789WAT     H159609   1.217   6.415   7.924
19789WAT     H259610   1.170   6.481   7.782
19790WAT      O59611   8.381   5.744   6.599
19790WAT     H159612   8.474   5.764   6.569
19790WAT     H259613   8.339   5.828   6.635
19791WAT      O59614   6.719   2.541   1.539
19791WAT     H159615   6.729   2.640   1.529
19791WAT     H259616   6.671   2.520   1.624
19792WAT      O59617   9.777   6.973   3.897
19792WAT     H159618   9.700   6.910   3.906
19792WAT     H259619   9.783   7.007   3.803
19793WAT      O59620   9.575   1.950   5.004
19793WAT     H159621   9.512   1.891   4.954
19793WAT     H259622   9.667   1.910   5.003
19794WAT      O59623   4.333   7.146   8.183
19794WAT     H159624   4.251   7.113   8.136
19794WAT     H259625   4.363   7.078   8.249
19795WAT      O59626   6.226   0.353   5.866
19795WAT     H159627   6.323   0.330   5.874
19795WAT     H259628   6.181   0.341   5.954
19796WAT      O59629   4.100   2.251   7.173
19796WAT     H159630   4.035   2.326   7.160
19796WAT     H259631   4.186   2.274   7.128
19797WAT      O59632   2.349   6.914   8.556
19797WAT     H159633   2.402   6.832   8.536
19797WAT     H259634   2.268   6.917   8.498
19798WAT      O59635   1.521   9.778   9.796
19798WAT     H159636   1.450   9.847   9.816
19798WAT     H259637   1.477   9.693   9.768
19799WAT      O59638   1.421   4.542   6.242
19799WAT     H159639   1.458   4.589   6.161
19799WAT     H259640   1.324   4.564   6.251
19800WAT      O59641   4.590   3.622   9.230
19800WAT     H159642   4.562   3.534   9.192
19800WAT     H259643   4.657   3.608   9.302
19801WAT      O59644   9.177   4.606   9.033
19801WAT     H159645   9.265   4.613   8.987
19801WAT     H259646   9.106   4.646   8.976
19802WAT      O59647   8.754   0.217   7.368
19802WAT     H159648   8.843   0.194   7.409
19802WAT     H259649   8.769   0.255   7.277
19803WAT      O59650   6.097   6.061   0.105
19803WAT     H159651   6.177   6.023   0.059
19803WAT     H259652   6.036   6.104   0.038
19804WAT      O59653   1.651   6.756   4.193
19804WAT     H159654   1.556   6.785   4.183
19804WAT     H259655   1.670   6.736   4.289
19805WAT      O59656   4.020   8.272   4.349
19805WAT     H159657   4.058   8.351   4.396
19805WAT     H259658   3.958   8.223   4.410
19806WAT      O59659   1.859   5.144   0.891
19806WAT     H159660   1.947   5.182   0.919
19806WAT     H259661   1.801   5.218   0.856
19807WAT      O59662   3.282   3.199   3.770
19807WAT     H159663   3.378   3.170   3.762
19807WAT     H259664   3.240   3.155   3.850
19808WAT      O59665   7.927   3.441   5.076
19808WAT     H159666   7.952   3.412   5.169
19808WAT     H259667   7.969   3.380   5.009
19809WAT      O59668   0.259   9.633   8.624
19809WAT     H159669   0.289   9.639   8.529
19809WAT     H259670   0.233   9.539   8.646
19810WAT      O59671   9.674   5.302   5.443
19810WAT     H159672   9.654   5.350   5.358
19810WAT     H259673   9.607   5.228   5.456
19811WAT      O59674   9.556   2.187   2.093
19811WAT     H159675   9.581   2.277   2.057
19811WAT     H259676   9.568   2.185   2.192
19812WAT      O59677   9.861   3.167   8.495
19812WAT     H159678   9.885   3.078   8.457
19812WAT     H259679   9.918   3.238   8.452
19813WAT      O59680   8.731   8.471   8.603
19813WAT     H159681   8.733   8.425   8.692
19813WAT     H259682   8.660   8.542   8.605
19814WAT      O59683   8.958   1.790   2.210
19814WAT     H159684   8.927   1.847   2.285
19814WAT     H259685   8.939   1.835   2.123
19815WAT      O59686   5.359   4.777   7.988
19815WAT     H159687   5.260   4.785   8.001
19815WAT     H259688   5.378   4.742   7.896
19816WAT      O59689   8.110   8.907   3.808
19816WAT     H159690   8.186   8.963   3.839
19816WAT     H259691   8.071   8.946   3.725
19817WAT      O59692   7.458   4.168   1.515
19817WAT     H159693   7.393   4.093   1.511
19817WAT     H259694   7.409   4.254   1.534
19818WAT      O59695   1.682   4.915   8.814
19818WAT     H159696   1.644   4.904   8.722
19818WAT     H259697   1.609   4.935   8.878
19819WAT      O59698   7.534   0.642   1.961
19819WAT     H159699   7.476   0.598   2.030
19819WAT     H259700   7.502   0.735   1.946
19820WAT      O59701   5.844   5.457   2.950
19820WAT     H159702   5.796   5.458   2.862
19820WAT     H259703   5.777   5.457   3.024
19821WAT      O59704   7.907   4.541   9.519
19821WAT     H159705   7.871   4.633   9.500
19821WAT     H259706   7.988   4.549   9.576
19822WAT      O59707   2.938   2.407   2.577
19822WAT     H159708   2.973   2.430   2.486
19822WAT     H259709   2.912   2.491   2.624
19823WAT      O59710   4.240   8.412   5.531
19823WAT     H159711   4.311   8.435   5.597
19823WAT     H259712   4.232   8.312   5.523
19824WAT      O59713   6.538   5.848   4.522
19824WAT     H159714   6.446   5.873   4.491
19824WAT     H259715   6.579   5.925   4.571
19825WAT      O59716   9.179   0.900   6.302
19825WAT     H159717   9.149   0.849   6.221
19825WAT     H259718   9.278   0.913   6.298
19826WAT      O59719   5.014   7.068   1.793
19826WAT     H159720   5.104   7.027   1.778
19826WAT     H259721   4.945   7.012   1.748
19827WAT      O59722   3.613   9.161   3.714
19827WAT     H159723   3.632   9.172   3.617
19827WAT     H259724   3.547   9.230   3.743
19828WAT      O59725   3.243   6.397   4.507
19828WAT     H159726   3.227   6.298   4.505
19828WAT     H259727   3.338   6.415   4.484
19829WAT      O59728   9.113   1.465   6.696
19829WAT     H159729   9.033   1.487   6.641
19829WAT     H259730   9.140   1.370   6.682
19830WAT      O59731   3.530   6.455   4.476
19830WAT     H159732   3.530   6.514   4.556
19830WAT     H259733   3.511   6.510   4.394
19831WAT      O59734   5.155   1.095   3.389
19831WAT     H159735   5.083   1.035   3.355
19831WAT     H259736   5.242   1.045   3.390
19832WAT      O59737   5.120   4.540   3.848
19832WAT     H159738   5.151   4.502   3.936
19832WAT     H259739   5.198   4.574   3.797
19833WAT      O59740   5.901   3.922   8.436
19833WAT     H159741   5.802   3.929   8.450
19833WAT     H259742   5.920   3.872   8.352
19834WAT      O59743   0.798   9.684   2.876
19834WAT     H159744   0.843   9.771   2.895
19834WAT     H259745   0.701   9.690   2.900
19835WAT      O59746   9.823   9.560   8.447
19835WAT     H159747   9.723   9.560   8.446
19835WAT     H259748   9.856   9.629   8.511
19836WAT      O59749   9.709   2.953   0.489
19836WAT     H159750   9.709   2.986   0.395
19836WAT     H259751   9.752   3.021   0.548
19837WAT      O59752   3.134   8.790   1.470
19837WAT     H159753   3.220   8.751   1.436
19837WAT     H259754   3.136   8.795   1.569
19838WAT      O59755   3.923   2.979   0.021
19838WAT     H159756   4.014   3.019   0.031
19838WAT     H259757   3.903   2.920   0.099
19839WAT      O59758   2.755   7.263   2.922
19839WAT     H159759   2.681   7.248   2.857
19839WAT     H259760   2.768   7.361   2.937
19840WAT      O59761   8.110   5.392   2.199
19840WAT     H159762   8.073   5.356   2.114
19840WAT     H259763   8.154   5.319   2.251
19841WAT      O59764   9.474   9.507   1.806
19841WAT     H159765   9.481   9.420   1.757
19841WAT     H259766   9.431   9.575   1.748
19842WAT      O59767   9.237   7.466   6.460
19842WAT     H159768   9.187   7.486   6.376
19842WAT     H259769   9.251   7.367   6.468
19843WAT      O59770   6.081   0.837   8.871
19843WAT     H159771   5.987   0.819   8.898
19843WAT     H259772   6.098   0.801   8.780
19844WAT      O59773   8.849   0.326   1.463
19844WAT     H159774   8.850   0.243   1.520
19844WAT     H259775   8.894   0.307   1.376
19845WAT      O59776   1.793   2.544   2.381
19845WAT     H159777   1.695   2.537   2.360
19845WAT     H259778   1.837   2.606   2.315
19846WAT      O59779   1.405   1.383   1.955
19846WAT     H159780   1.422   1.466   1.903
19846WAT     H259781   1.480   1.318   1.940
19847WAT      O59782   2.994   4.990   9.270
19847WAT     H159783   2.995   5.053   9.348
19847WAT     H259784   2.908   4.940   9.269
19848WAT      O59785   9.303   0.598   9.807
19848WAT     H159786   9.281   0.675   9.747
19848WAT     H259787   9.221   0.571   9.858
19849WAT      O59788   2.026   6.017   8.449
19849WAT     H159789   1.970   5.935   8.463
19849WAT     H259790   2.055   6.053   8.538
19850WAT      O59791   6.914   4.662   0.150
19850WAT     H159792   6.914   4.748   0.202
19850WAT     H259793   6.918   4.585   0.213
19851WAT      O59794   8.316   0.454   7.021
19851WAT     H159795   8.401   0.505   7.031
19851WAT     H259796   8.335   0.364   6.982
19852WAT      O59797   5.537   4.739   5.471
19852WAT     H159798   5.596   4.807   5.428
19852WAT     H259799   5.448   4.780   5.491
19853WAT      O59800   1.624   5.893   3.948
19853WAT     H159801   1.649   5.815   3.890
19853WAT     H259802   1.700   5.958   3.950
19854WAT      O59803   0.655   4.997   7.176
19854WAT     H159804   0.700   4.931   7.237
19854WAT     H259805   0.649   4.958   7.084
19855WAT      O59806   6.434   4.676   6.407
19855WAT     H159807   6.379   4.716   6.480
19855WAT     H259808   6.523   4.721   6.404
19856WAT      O59809   4.510   4.033   8.639
19856WAT     H159810   4.542   4.046   8.733
19856WAT     H259811   4.440   3.962   8.637
19857WAT      O59812   2.356   2.868   2.807
19857WAT     H159813   2.441   2.861   2.756
19857WAT     H259814   2.343   2.786   2.862
19858WAT      O59815   1.872   4.083   5.000
19858WAT     H159816   1.794   4.028   5.031
19858WAT     H259817   1.847   4.134   4.917
19859WAT      O59818   5.455   4.564   1.949
19859WAT     H159819   5.416   4.556   1.857
19859WAT     H259820   5.472   4.661   1.970
19860WAT      O59821   4.982   2.746   1.038
19860WAT     H159822   4.947   2.795   1.118
19860WAT     H259823   4.935   2.658   1.031
19861WAT      O59824   5.177   3.337   9.453
19861WAT     H159825   5.221   3.257   9.411
19861WAT     H259826   5.178   3.413   9.388
19862WAT      O59827   0.799   1.999   3.786
19862WAT     H159828   0.728   2.022   3.852
19862WAT     H259829   0.886   2.040   3.814
19863WAT      O59830   9.519   5.708   9.775
19863WAT     H159831   9.480   5.735   9.864
19863WAT     H259832   9.574   5.783   9.739
19864WAT      O59833   7.130   4.321   4.994
19864WAT     H159834   7.067   4.290   4.923
19864WAT     H259835   7.088   4.395   5.046
19865WAT      O59836   6.256   3.504   5.618
19865WAT     H159837   6.315   3.466   5.689
19865WAT     H259838   6.281   3.464   5.530
19866WAT      O59839   8.957   7.889   3.123
19866WAT     H159840   9.025   7.893   3.195
19866WAT     H259841   8.886   7.822   3.147
19867WAT      O59842   9.142   9.032   3.631
19867WAT     H159843   9.058   9.038   3.685
19867WAT     H259844   9.194   8.951   3.658
19868WAT      O59845   9.008   4.840   0.927
19868WAT     H159846   9.037   4.931   0.900
19868WAT     H259847   8.909   4.833   0.922
19869WAT      O59848   2.891   6.276   5.660
19869WAT     H159849   2.913   6.179   5.651
19869WAT     H259850   2.854   6.294   5.751
19870WAT      O59851   8.195   9.028   4.712
19870WAT     H159852   8.253   9.108   4.696
19870WAT     H259853   8.171   9.023   4.809
19871WAT      O59854   0.605   4.874   6.844
19871WAT     H159855   0.642   4.893   6.754
19871WAT     H259856   0.664   4.811   6.893
19872WAT      O59857   4.176   0.740   3.647
19872WAT     H159858   4.102   0.776   3.591
19872WAT     H259859   4.222   0.816   3.694
19873WAT      O59860   3.087   1.899   4.592
19873WAT     H159861   3.169   1.894   4.535
19873WAT     H259862   3.063   1.807   4.623
19874WAT      O59863   9.484   1.316   4.112
19874WAT     H159864   9.525   1.331   4.022
19874WAT     H259865   9.413   1.384   4.127
19875WAT      O59866   8.705   3.070   6.034
19875WAT     H159867   8.665   3.032   6.118
19875WAT     H259868   8.656   3.033   5.955
19876WAT      O59869   8.694   1.531   1.328
19876WAT     H159870   8.708   1.630   1.334
19876WAT     H259871   8.737   1.486   1.405
19877WAT      O59872   8.700   0.299   8.335
19877WAT     H159873   8.703   0.317   8.237
19877WAT     H259874   8.734   0.207   8.354
19878WAT      O59875   0.681   9.413   3.912
19878WAT     H159876   0.671   9.438   3.816
19878WAT     H259877   0.775   9.430   3.942
19879WAT      O59878   0.372   5.423   3.792
19879WAT     H159879   0.409   5.475   3.715
19879WAT     H259880   0.282   5.458   3.815
19880WAT      O59881   4.521   8.246   8.390
19880WAT     H159882   4.527   8.150   8.361
19880WAT     H259883   4.431   8.263   8.432
19881WAT      O59884   2.507   1.911   9.642
19881WAT     H159885   2.433   1.935   9.706
19881WAT     H259886   2.591   1.957   9.670
19882WAT      O59887   7.462   7.266   6.173
19882WAT     H159888   7.389   7.241   6.110
19882WAT     H259889   7.539   7.302   6.121
19883WAT      O59890   9.871   1.809   9.856
19883WAT     H159891   9.940   1.772   9.793
19883WAT     H259892   9.782   1.768   9.836
19884WAT      O59893   2.124   1.801   2.664
19884WAT     H159894   2.101   1.737   2.591
19884WAT     H259895   2.125   1.753   2.752
19885WAT      O59896   9.848   9.709   0.256
19885WAT     H159897   9.788   9.752   0.324
19885WAT     H259898   9.935   9.685   0.299
19886WAT      O59899   8.684   3.319   7.542
19886WAT     H159900   8.700   3.417   7.536
19886WAT     H259901   8.697   3.277   7.452
19887WAT      O59902   5.696   1.267   9.097
19887WAT     H159903   5.783   1.220   9.084
19887WAT     H259904   5.621   1.208   9.068
19888WAT      O59905   2.572   1.692   2.946
19888WAT     H159906   2.604   1.616   3.002
19888WAT     H259907   2.543   1.657   2.856
19889WAT      O59908   4.633   0.982   2.066
19889WAT     H159909   4.551   1.010   2.115
19889WAT     H259910   4.708   1.044   2.090
19890WAT      O59911   9.780   4.753   0.839
19890WAT     H159912   9.737   4.842   0.821
19890WAT     H259913   9.758   4.690   0.764
19891WAT      O59914   5.358   9.241   0.583
19891WAT     H159915   5.385   9.262   0.677
19891WAT     H259916   5.407   9.300   0.519
19892WAT      O59917   3.855   5.626   8.673
19892WAT     H159918   3.779   5.626   8.609
19892WAT     H259919   3.826   5.586   8.760
19893WAT      O59920   9.163   6.777   3.210
19893WAT     H159921   9.082   6.732   3.171
19893WAT     H259922   9.244   6.726   3.184
19894WAT      O59923   4.418   6.970   3.219
19894WAT     H159924   4.320   6.954   3.204
19894WAT     H259925   4.447   6.925   3.303
19895WAT      O59926   7.557   5.274   7.351
19895WAT     H159927   7.612   5.322   7.282
19895WAT     H259928   7.563   5.175   7.336
19896WAT      O59929   3.542   5.447   5.697
19896WAT     H159930   3.551   5.467   5.599
19896WAT     H259931   3.609   5.502   5.748
19897WAT      O59932   7.260   2.326   0.780
19897WAT     H159933   7.344   2.287   0.816
19897WAT     H259934   7.281   2.410   0.730
19898WAT      O59935   4.978   2.618   7.605
19898WAT     H159936   4.956   2.524   7.577
19898WAT     H259937   5.067   2.644   7.567
19899WAT      O59938   6.340   2.340   4.336
19899WAT     H159939   6.391   2.258   4.312
19899WAT     H259940   6.256   2.344   4.281
19900WAT      O59941   1.974   3.938   0.342
19900WAT     H159942   2.036   3.941   0.262
19900WAT     H259943   1.892   3.990   0.321
19901WAT      O59944   0.523   0.967   2.933
19901WAT     H159945   0.577   0.906   2.991
19901WAT     H259946   0.537   0.943   2.837
19902WAT      O59947   6.616   3.121   5.090
19902WAT     H159948   6.587   3.064   5.013
19902WAT     H259949   6.542   3.127   5.157
19903WAT      O59950   2.042   5.244   0.526
19903WAT     H159951   2.076   5.327   0.481
19903WAT     H259952   1.943   5.251   0.537
19904WAT      O59953   7.304   3.881   2.797
19904WAT     H159954   7.374   3.817   2.765
19904WAT     H259955   7.213   3.841   2.783
19905WAT      O59956   2.474   3.897   1.564
19905WAT     H159957   2.464   3.872   1.660
19905WAT     H259958   2.569   3.885   1.536
19906WAT      O59959   0.037   6.460   8.161
19906WAT     H159960   0.077   6.370   8.139
19906WAT     H259961   0.048   6.521   8.082
19907WAT      O59962   8.669   6.928   0.964
19907WAT     H159963   8.755   6.895   1.004
19907WAT     H259964   8.647   7.018   1.000
19908WAT      O59965   5.742   8.210   8.483
19908WAT     H159966   5.787   8.298   8.464
19908WAT     H259967   5.663   8.200   8.422
19909WAT      O59968   4.309   1.778   8.313
19909WAT     H159969   4.390   1.751   8.260
19909WAT     H259970   4.273   1.864   8.277
19910WAT      O59971   7.263   3.726   7.503
19910WAT     H159972   7.352   3.695   7.470
19910WAT     H259973   7.225   3.792   7.438
19911WAT      O59974   7.705   0.143   3.031
19911WAT     H159975   7.699   0.183   2.940
19911WAT     H259976   7.796   0.104   3.045
19912WAT      O59977   0.118   9.397   4.341
19912WAT     H159978   0.159   9.460   4.275
19912WAT     H259979   0.185   9.374   4.412
19913WAT      O59980   8.676   8.292   9.723
19913WAT     H159981   8.758   8.254   9.679
19913WAT     H259982   8.653   8.379   9.681
19914WAT      O59983   2.884   4.647   3.568
19914WAT     H159984   2.805   4.699   3.539
19914WAT     H259985   2.900   4.661   3.666
19915WAT      O59986   4.606   4.882   0.296
19915WAT     H159987   4.644   4.970   0.266
19915WAT     H259988   4.626   4.868   0.393
19916WAT      O59989   8.005   6.674   1.856
19916WAT     H159990   7.956   6.758   1.878
19916WAT     H259991   7.955   6.595   1.892
19917WAT      O59992   4.401   3.755   9.367
19917WAT     H159993   4.312   3.752   9.322
19917WAT     H259994   4.463   3.691   9.321
19918WAT      O59995   4.329   8.584   6.099
19918WAT     H159996   4.250   8.619   6.148
19918WAT     H259997   4.327   8.617   6.004
19919WAT      O59998   0.966   6.323   5.845
19919WAT     H159999   0.874   6.357   5.825
19919WAT     H260000   1.026   6.400   5.867
19920WAT      O60001   8.433   0.083   9.281
19920WAT     H160002   8.453   0.064   9.378
19920WAT     H260003   8.349   0.036   9.255
19921WAT      O60004   1.490   7.182   8.518
19921WAT     H160005   1.547   7.260   8.542
19921WAT     H260006   1.539   7.097   8.537
19922WAT      O60007   5.954   5.930   3.140
19922WAT     H160008   5.870   5.880   3.159
19922WAT     H260009   6.015   5.874   3.085
19923WAT      O60010   3.794   5.496   7.593
19923WAT     H160011   3.768   5.399   7.602
19923WAT     H260012   3.755   5.547   7.670
19924WAT      O60013   8.379   6.387   2.817
19924WAT     H160014   8.367   6.452   2.892
19924WAT     H260015   8.353   6.431   2.731
19925WAT      O60016   0.126   9.567   7.416
19925WAT     H160017   0.212   9.612   7.391
19925WAT     H260018   0.064   9.634   7.455
19926WAT      O60019   3.655   7.969   4.910
19926WAT     H160020   3.752   7.956   4.930
19926WAT     H260021   3.631   7.921   4.826
19927WAT      O60022   2.515   9.124   9.484
19927WAT     H160023   2.573   9.115   9.402
19927WAT     H260024   2.481   9.218   9.491
19928WAT      O60025   0.642   0.635   7.614
19928WAT     H160026   0.697   0.583   7.679
19928WAT     H260027   0.582   0.573   7.564
19929WAT      O60028   5.182   0.703   4.221
19929WAT     H160029   5.127   0.667   4.146
19929WAT     H260030   5.122   0.738   4.293
19930WAT      O60031   3.335   7.735   8.039
19930WAT     H160032   3.258   7.774   8.088
19930WAT     H260033   3.420   7.766   8.081
19931WAT      O60034   7.732   8.591   6.250
19931WAT     H160035   7.659   8.529   6.221
19931WAT     H260036   7.772   8.635   6.169
19932WAT      O60037   1.886   0.421   5.889
19932WAT     H160038   1.853   0.487   5.957
19932WAT     H260039   1.838   0.334   5.900
19933WAT      O60040   7.858   8.036   5.096
19933WAT     H160041   7.844   8.103   5.023
19933WAT     H260042   7.783   7.969   5.095
19934WAT      O60043   8.782   5.386   3.365
19934WAT     H160044   8.723   5.327   3.309
19934WAT     H260045   8.728   5.462   3.401
19935WAT      O60046   6.553   6.904   4.656
19935WAT     H160047   6.653   6.903   4.663
19935WAT     H260048   6.524   6.989   4.614
19936WAT      O60049   9.890   3.263   4.956
19936WAT     H160050   9.834   3.287   5.035
19936WAT     H260051   9.858   3.177   4.916
19937WAT      O60052   0.574   0.867   4.070
19937WAT     H160053   0.498   0.914   4.025
19937WAT     H260054   0.540   0.786   4.117
19938WAT      O60055   7.272   6.902   1.317
19938WAT     H160056   7.358   6.904   1.367
19938WAT     H260057   7.223   6.988   1.329
19939WAT      O60058   4.351   0.447   7.337
19939WAT     H160059   4.254   0.424   7.340
19939WAT     H260060   4.403   0.379   7.389
19940WAT      O60061   7.564   2.562   7.694
19940WAT     H160062   7.541   2.586   7.788
19940WAT     H260063   7.663   2.550   7.685
19941WAT      O60064   8.562   3.522   7.043
19941WAT     H160065   8.641   3.465   7.067
19941WAT     H260066   8.496   3.467   6.993
19942WAT      O60067   6.485   9.591   8.837
19942WAT     H160068   6.436   9.656   8.779
19942WAT     H260069   6.581   9.616   8.842
19943WAT      O60070   1.540   7.486   5.855
19943WAT     H160071   1.527   7.418   5.783
19943WAT     H260072   1.637   7.504   5.867
19944WAT      O60073   6.584   0.248   9.891
19944WAT     H160074   6.497   0.267   9.846
19944WAT     H260075   6.611   0.326   9.947
19945WAT      O60076   2.939   9.571   5.911
19945WAT     H160077   2.964   9.477   5.935
19945WAT     H260078   2.845   9.588   5.940
19946WAT      O60079   3.326   2.430   2.056
19946WAT     H160080   3.352   2.354   2.116
19946WAT     H260081   3.336   2.516   2.106
19947WAT      O60082   1.143   9.628   9.499
19947WAT     H160083   1.175   9.721   9.486
19947WAT     H260084   1.044   9.626   9.500
19948WAT      O60085   1.345   3.716   0.812
19948WAT     H160086   1.412   3.642   0.812
19948WAT     H260087   1.384   3.797   0.768
19949WAT      O60088   5.537   5.029   2.662
19949WAT     H160089   5.537   5.084   2.578
19949WAT     H260090   5.630   4.999   2.683
19950WAT      O60091   8.127   4.842   3.493
19950WAT     H160092   8.042   4.863   3.541
19950WAT     H260093   8.108   4.781   3.416
19951WAT      O60094   1.468   0.443   0.123
19951WAT     H160095   1.485   0.446   0.025
19951WAT     H260096   1.466   0.348   0.154
19952WAT      O60097   9.311   8.237   5.491
19952WAT     H160098   9.334   8.267   5.583
19952WAT     H260099   9.240   8.167   5.496
19953WAT      O60100   5.984   5.702   2.962
19953WAT     H160101   5.919   5.626   2.958
19953WAT     H260102   5.952   5.777   2.905
19954WAT      O60103   5.902   1.972   6.844
19954WAT     H160104   5.928   2.008   6.755
19954WAT     H260105   5.858   2.043   6.898
19955WAT      O60106   1.985   0.709   2.929
19955WAT     H160107   1.946   0.744   2.845
19955WAT     H260108   1.934   0.628   2.958
19956WAT      O60109   1.968   1.080   3.855
19956WAT     H160110   2.002   0.998   3.903
19956WAT     H260111   1.985   1.070   3.757
19957WAT      O60112   2.085   0.448   0.109
19957WAT     H160113   2.107   0.516   0.039
19957WAT     H260114   2.090   0.490   0.199
19958WAT      O60115   3.801   6.112   8.566
19958WAT     H160116   3.777   6.020   8.534
19958WAT     H260117   3.719   6.159   8.597
19959WAT      O60118   6.714   9.306   2.111
19959WAT     H160119   6.768   9.293   2.027
19959WAT     H260120   6.621   9.334   2.087
19960WAT      O60121   7.924   7.141   1.992
19960WAT     H160122   7.847   7.205   1.993
19960WAT     H260123   7.997   7.175   2.052
19961WAT      O60124   5.005   8.521   2.265
19961WAT     H160125   4.912   8.514   2.231
19961WAT     H260126   5.065   8.461   2.212
19962WAT      O60127   3.122   1.891   1.378
19962WAT     H160128   3.159   1.984   1.369
19962WAT     H260129   3.062   1.888   1.458
19963WAT      O60130   0.958   1.776   3.843
19963WAT     H160131   0.989   1.836   3.916
19963WAT     H260132   0.900   1.828   3.779
19964WAT      O60133   8.556   6.665   3.546
19964WAT     H160134   8.502   6.674   3.629
19964WAT     H260135   8.533   6.579   3.500
19965WAT      O60136   6.681   9.063   7.315
19965WAT     H160137   6.591   9.071   7.358
19965WAT     H260138   6.692   9.137   7.248
19966WAT      O60139   7.485   9.368   8.097
19966WAT     H160140   7.414   9.315   8.143
19966WAT     H260141   7.565   9.309   8.081
19967WAT      O60142   9.492   0.993   6.312
19967WAT     H160143   9.551   0.924   6.269
19967WAT     H260144   9.509   1.082   6.270
19968WAT      O60145   3.759   1.955   8.186
19968WAT     H160146   3.737   2.009   8.268
19968WAT     H260147   3.820   2.009   8.127
19969WAT      O60148   7.546   3.144   8.950
19969WAT     H160149   7.488   3.206   8.896
19969WAT     H260150   7.507   3.052   8.947
19970WAT      O60151   5.798   0.219   9.830
19970WAT     H160152   5.747   0.161   9.894
19970WAT     H260153   5.828   0.163   9.752
19971WAT      O60154   0.847   0.222   9.798
19971WAT     H160155   0.905   0.282   9.744
19971WAT     H260156   0.865   0.127   9.773
19972WAT      O60157   5.584   0.488   9.081
19972WAT     H160158   5.489   0.515   9.095
19972WAT     H260159   5.635   0.499   9.166
19973WAT      O60160   6.467   5.917   7.137
19973WAT     H160161   6.538   5.958   7.194
19973WAT     H260162   6.437   5.984   7.069
19974WAT      O60163   7.476   9.317   6.418
19974WAT     H160164   7.437   9.314   6.510
19974WAT     H260165   7.535   9.238   6.404
19975WAT      O60166   7.382   1.860   1.419
19975WAT     H160167   7.307   1.917   1.452
19975WAT     H260168   7.460   1.917   1.394
19976WAT      O60169   3.250   0.998   5.867
19976WAT     H160170   3.347   0.986   5.845
19976WAT     H260171   3.223   0.931   5.937
19977WAT      O60172   6.220   7.905   6.145
19977WAT     H160173   6.168   7.936   6.225
19977WAT     H260174   6.314   7.885   6.173
19978WAT      O60175   5.496   6.559   1.785
19978WAT     H160176   5.530   6.648   1.754
19978WAT     H260177   5.464   6.507   1.706
19979WAT      O60178   3.680   7.697   0.715
19979WAT     H160179   3.636   7.683   0.804
19979WAT     H260180   3.611   7.727   0.649
19980WAT      O60181   6.685   4.596   4.009
19980WAT     H160182   6.698   4.502   3.979
19980WAT     H260183   6.634   4.647   3.940
19981WAT      O60184   6.405   0.657   9.421
19981WAT     H160185   6.477   0.589   9.408
19981WAT     H260186   6.409   0.691   9.515
19982WAT      O60187   6.593   5.511   4.180
19982WAT     H160188   6.504   5.556   4.173
19982WAT     H260189   6.581   5.413   4.190
19983WAT      O60190   6.936   8.013   3.257
19983WAT     H160191   6.953   8.006   3.158
19983WAT     H260192   6.840   8.035   3.273
19984WAT      O60193   5.228   9.405   9.143
19984WAT     H160194   5.261   9.487   9.188
19984WAT     H260195   5.164   9.357   9.204
19985WAT      O60196   0.614   4.141   6.201
19985WAT     H160197   0.577   4.230   6.175
19985WAT     H260198   0.639   4.142   6.298
19986WAT      O60199   2.368   0.823   0.174
19986WAT     H160200   2.354   0.849   0.269
19986WAT     H260201   2.329   0.894   0.114
19987WAT      O60202   3.528   6.730   0.171
19987WAT     H160203   3.500   6.763   0.081
19987WAT     H260204   3.469   6.770   0.241
19988WAT      O60205   6.635   3.059   3.900
19988WAT     H160206   6.557   2.996   3.902
19988WAT     H260207   6.648   3.091   3.806
19989WAT      O60208   1.629   8.084   2.535
19989WAT     H160209   1.645   8.178   2.506
19989WAT     H260210   1.693   8.060   2.608
19990WAT      O60211   0.815   6.408   4.817
19990WAT     H160212   0.797   6.434   4.912
19990WAT     H260213   0.736   6.358   4.781
19991WAT      O60214   5.321   1.241   0.969
19991WAT     H160215   5.409   1.283   0.992
19991WAT     H260216   5.322   1.145   0.997
19992WAT      O60217   1.821   7.914   9.761
19992WAT     H160218   1.783   7.954   9.678
19992WAT     H260219   1.903   7.964   9.788
19993WAT      O60220   3.362   6.101   7.069
19993WAT     H160221   3.304   6.162   7.013
19993WAT     H260222   3.322   6.009   7.070
19994WAT      O60223   1.161   8.809   6.903
19994WAT     H160224   1.083   8.746   6.897
19994WAT     H260225   1.166   8.847   6.995
19995WAT      O60226   0.266   0.918   2.053
19995WAT     H160227   0.258   1.011   2.086
19995WAT     H260228   0.333   0.915   1.978
19996WAT      O60229   0.750   1.541   3.923
19996WAT     H160230   0.825   1.607   3.924
19996WAT     H260231   0.774   1.461   3.979
19997WAT      O60232   1.555   6.645   7.006
19997WAT     H160233   1.555   6.563   7.063
19997WAT     H260234   1.464   6.660   6.967
19998WAT      O60235   4.335   4.541   7.118
19998WAT     H160236   4.355   4.616   7.056
19998WAT     H260237   4.317   4.577   7.210
19999WAT      O60238   6.879   1.838   6.643
19999WAT     H160239   6.925   1.917   6.683
19999WAT     H260240   6.899   1.834   6.545
20000WAT      O60241   4.281   6.080   4.952
20000WAT     H160242   4.314   6.031   4.871
20000WAT     H260243   4.356   6.090   5.017
20001WAT      O60244   3.833   2.705   2.697
20001WAT     H160245   3.912   2.731   2.641
20001WAT     H260246   3.781   2.635   2.649
20002WAT      O60247   7.332   8.225   8.679
20002WAT     H160248   7.239   8.258   8.664
20002WAT     H260249   7.394   8.273   8.617
20003WAT      O60250   4.248   6.425   9.360
20003WAT     H160251   4.205   6.351   9.411
20003WAT     H260252   4.200   6.438   9.273
20004WAT      O60253   1.949   2.130   8.875
20004WAT     H160254   1.976   2.168   8.787
20004WAT     H260255   2.013   2.160   8.945
20005WAT      O60256   6.130   2.419   2.626
20005WAT     H160257   6.146   2.394   2.531
20005WAT     H260258   6.117   2.336   2.680
20006WAT      O60259   4.421   7.966   6.285
20006WAT     H160260   4.334   7.931   6.320
20006WAT     H260261   4.485   7.979   6.361
20007WAT      O60262   4.352   3.379   8.861
20007WAT     H160263   4.351   3.281   8.879
20007WAT     H260264   4.297   3.399   8.779
20008WAT      O60265   0.969   8.900   3.052
20008WAT     H160266   0.954   8.940   3.142
20008WAT     H260267   1.049   8.940   3.009
20009WAT      O60268   3.603   9.842   9.710
20009WAT     H160269   3.592   9.925   9.656
20009WAT     H260270   3.569   9.763   9.658
20010WAT      O60271   0.758   6.098   3.073
20010WAT     H160272   0.688   6.168   3.062
20010WAT     H260273   0.805   6.082   2.986
20011WAT      O60274   4.570   7.494   1.578
20011WAT     H160275   4.627   7.436   1.521
20011WAT     H260276   4.498   7.439   1.621
20012WAT      O60277   7.903   8.096   6.394
20012WAT     H160278   7.928   8.188   6.364
20012WAT     H260279   7.944   8.029   6.334
20013WAT      O60280   9.585   9.718   6.245
20013WAT     H160281   9.675   9.742   6.209
20013WAT     H260282   9.517   9.783   6.211
20014WAT      O60283   6.794   9.616   7.297
20014WAT     H160284   6.864   9.545   7.292
20014WAT     H260285   6.725   9.590   7.365
20015WAT      O60286   0.676   5.579   0.968
20015WAT     H160287   0.747   5.627   0.918
20015WAT     H260288   0.693   5.587   1.066
20016WAT      O60289   6.144   2.229   4.938
20016WAT     H160290   6.156   2.211   5.036
20016WAT     H260291   6.108   2.147   4.894
20017WAT      O60292   8.923   1.481   8.870
20017WAT     H160293   8.960   1.553   8.811
20017WAT     H260294   8.823   1.484   8.868
20018WAT      O60295   2.265   0.687   3.178
20018WAT     H160296   2.328   0.764   3.167
20018WAT     H260297   2.171   0.721   3.187
20019WAT      O60298   3.104   7.537   9.682
20019WAT     H160299   3.152   7.577   9.760
20019WAT     H260300   3.079   7.609   9.618
20020WAT      O60301   2.295   4.334   6.728
20020WAT     H160302   2.317   4.261   6.791
20020WAT     H260303   2.197   4.351   6.729
20021WAT      O60304   8.260   5.136   5.369
20021WAT     H160305   8.313   5.143   5.454
20021WAT     H260306   8.243   5.040   5.349
20022WAT      O60307   0.259   2.722   7.543
20022WAT     H160308   0.210   2.649   7.591
20022WAT     H260309   0.193   2.791   7.513
20023WAT      O60310   2.184   5.618   9.272
20023WAT     H160311   2.127   5.551   9.224
20023WAT     H260312   2.234   5.674   9.205
20024WAT      O60313   2.307   0.331   3.470
20024WAT     H160314   2.236   0.398   3.447
20024WAT     H260315   2.370   0.372   3.537
20025WAT      O60316   7.270   2.816   2.844
20025WAT     H160317   7.324   2.749   2.794
20025WAT     H260318   7.298   2.908   2.816
20026WAT      O60319   0.738   9.053   2.438
20026WAT     H160320   0.654   9.103   2.416
20026WAT     H260321   0.775   9.088   2.525
20027WAT      O60322   4.255   3.716   2.417
20027WAT     H160323   4.239   3.776   2.495
20027WAT     H260324   4.223   3.760   2.333
20028WAT      O60325   0.079   6.372   8.585
20028WAT     H160326   0.133   6.454   8.606
20028WAT     H260327   0.130   6.290   8.611
20029WAT      O60328   5.102   3.084   1.300
20029WAT     H160329   5.035   3.039   1.242
20029WAT     H260330   5.130   3.021   1.373
20030WAT      O60331   0.238   2.214   6.950
20030WAT     H160332   0.246   2.120   6.915
20030WAT     H260333   0.160   2.259   6.906
20031WAT      O60334   6.586   7.860   5.222
20031WAT     H160335   6.654   7.860   5.150
20031WAT     H260336   6.603   7.936   5.284
20032WAT      O60337   8.573   6.097   1.439
20032WAT     H160338   8.562   6.172   1.505
20032WAT     H260339   8.626   6.130   1.361
20033WAT      O60340   6.750   4.495   6.244
20033WAT     H160341   6.790   4.404   6.247
20033WAT     H260342   6.698   4.512   6.328
20034WAT      O60343   0.489   9.036   5.475
20034WAT     H160344   0.531   8.959   5.427
20034WAT     H260345   0.412   9.071   5.421
20035WAT      O60346   5.083   7.041   6.202
20035WAT     H160347   5.096   7.081   6.293
20035WAT     H260348   5.046   6.948   6.211
20036WAT      O60349   0.158   4.208   7.005
20036WAT     H160350   0.059   4.203   6.992
20036WAT     H260351   0.197   4.116   6.996
20037WAT      O60352   0.507   3.783   9.163
20037WAT     H160353   0.464   3.846   9.227
20037WAT     H260354   0.591   3.746   9.203
20038WAT      O60355   6.177   0.950   7.641
20038WAT     H160356   6.114   0.900   7.701
20038WAT     H260357   6.125   1.017   7.587
20039WAT      O60358   0.732   1.104   4.960
20039WAT     H160359   0.705   1.019   5.005
20039WAT     H260360   0.674   1.119   4.880
20040WAT      O60361   2.836   3.470   7.011
20040WAT     H160362   2.915   3.497   7.066
20040WAT     H260363   2.784   3.400   7.060
20041WAT      O60364   4.446   6.866   2.913
20041WAT     H160365   4.417   6.898   2.823
20041WAT     H260366   4.406   6.924   2.984
20042WAT      O60367   6.356   1.293   7.498
20042WAT     H160368   6.423   1.358   7.462
20042WAT     H260369   6.268   1.339   7.507
20043WAT      O60370   2.128   8.777   1.337
20043WAT     H160371   2.172   8.860   1.371
20043WAT     H260372   2.165   8.698   1.385
20044WAT      O60373   3.378   1.325   4.323
20044WAT     H160374   3.417   1.331   4.415
20044WAT     H260375   3.434   1.265   4.267
20045WAT      O60376   3.345   9.223   2.009
20045WAT     H160377   3.257   9.178   2.021
20045WAT     H260378   3.339   9.290   1.935
20046WAT      O60379   0.541   7.280   9.265
20046WAT     H160380   0.527   7.313   9.172
20046WAT     H260381   0.452   7.272   9.311
20047WAT      O60382   6.389   9.291   4.389
20047WAT     H160383   6.482   9.278   4.354
20047WAT     H260384   6.377   9.235   4.471
20048WAT      O60385   5.340   5.541   5.140
20048WAT     H160386   5.389   5.463   5.178
20048WAT     H260387   5.272   5.509   5.074
20049WAT      O60388   6.012   4.428   6.784
20049WAT     H160389   6.039   4.518   6.750
20049WAT     H260390   6.089   4.365   6.778
20050WAT      O60391   8.621   3.685   8.671
20050WAT     H160392   8.699   3.735   8.708
20050WAT     H260393   8.555   3.666   8.744
20051WAT      O60394   2.616   7.247   0.254
20051WAT     H160395   2.562   7.304   0.192
20051WAT     H260396   2.568   7.237   0.341
20052WAT      O60397   8.561   7.815   4.503
20052WAT     H160398   8.651   7.836   4.541
20052WAT     H260399   8.571   7.778   4.411
20053WAT      O60400   5.795   5.714   4.380
20053WAT     H160401   5.862   5.643   4.403
20053WAT     H260402   5.734   5.681   4.308
20054WAT      O60403   6.381   2.918   2.529
20054WAT     H160404   6.339   2.985   2.591
20054WAT     H260405   6.311   2.879   2.470
20055WAT      O60406   3.926   5.322   8.351
20055WAT     H160407   3.866   5.360   8.281
20055WAT     H260408   3.874   5.310   8.436
20056WAT      O60409   8.461   7.030   4.689
20056WAT     H160410   8.560   7.045   4.688
20056WAT     H260411   8.417   7.095   4.627
20057WAT      O60412   3.843   9.701   4.168
20057WAT     H160413   3.804   9.619   4.209
20057WAT     H260414   3.911   9.676   4.099
20058WAT      O60415   8.425   2.387   2.212
20058WAT     H160416   8.462   2.357   2.300
20058WAT     H260417   8.408   2.486   2.216
20059WAT      O60418   0.938   7.399   8.115
20059WAT     H160419   0.963   7.367   8.024
20059WAT     H260420   0.987   7.485   8.134
20060WAT      O60421   2.583   5.111   1.363
20060WAT     H160422   2.515   5.178   1.394
20060WAT     H260423   2.666   5.119   1.418
20061WAT      O60424   6.498   6.478   1.561
20061WAT     H160425   6.521   6.446   1.653
20061WAT     H260426   6.572   6.535   1.526
20062WAT      O60427   6.591   3.150   8.901
20062WAT     H160428   6.643   3.213   8.959
20062WAT     H260429   6.503   3.191   8.876
20063WAT      O60430   1.718   4.376   7.952
20063WAT     H160431   1.785   4.448   7.935
20063WAT     H260432   1.731   4.303   7.885
20064WAT      O60433   6.660   1.378   2.767
20064WAT     H160434   6.575   1.374   2.714
20064WAT     H260435   6.731   1.326   2.719
20065WAT      O60436   8.685   3.096   8.321
20065WAT     H160437   8.620   3.171   8.313
20065WAT     H260438   8.635   3.009   8.324
20066WAT      O60439   3.006   8.691   5.792
20066WAT     H160440   3.031   8.644   5.708
20066WAT     H260441   2.954   8.774   5.770
20067WAT      O60442   7.176   6.185   1.479
20067WAT     H160443   7.213   6.253   1.542
20067WAT     H260444   7.131   6.112   1.531
20068WAT      O60445   0.019   0.622   1.175
20068WAT     H160446   0.095   0.607   1.238
20068WAT     H260447   0.036   0.573   1.089
20069WAT      O60448   3.964   0.330   0.940
20069WAT     H160449   3.865   0.321   0.942
20069WAT     H260450   4.007   0.240   0.954
20070WAT      O60451   1.350   0.435   2.110
20070WAT     H160452   1.343   0.468   2.015
20070WAT     H260453   1.424   0.369   2.117
20071WAT      O60454   7.196   0.031   8.266
20071WAT     H160455   7.271   0.024   8.200
20071WAT     H260456   7.115  -0.015   8.229
20072WAT      O60457   4.101   1.245   1.167
20072WAT     H160458   4.027   1.204   1.222
20072WAT     H260459   4.177   1.269   1.227
20073WAT      O60460   8.854   5.306   0.877
20073WAT     H160461   8.900   5.238   0.934
20073WAT     H260462   8.756   5.308   0.900
20074WAT      O60463   4.598   6.067   5.208
20074WAT     H160464   4.548   5.981   5.194
20074WAT     H260465   4.544   6.128   5.266
20075WAT      O60466   0.304   1.165   9.162
20075WAT     H160467   0.310   1.114   9.248
20075WAT     H260468   0.387   1.151   9.108
20076WAT      O60469   8.446   0.212   6.376
20076WAT     H160470   8.489   0.302   6.383
20076WAT     H260471   8.453   0.179   6.282
20077WAT      O60472   2.309   2.650   2.423
20077WAT     H160473   2.279   2.744   2.403
20077WAT     H260474   2.239   2.586   2.392
20078WAT      O60475   9.023   7.453   3.058
20078WAT     H160476   9.069   7.475   3.144
20078WAT     H260477   9.071   7.378   3.013
20079WAT      O60478   9.169   9.794   5.403
20079WAT     H160479   9.179   9.695   5.400
20079WAT     H260480   9.259   9.837   5.403
20080WAT      O60481   8.332   8.951   4.401
20080WAT     H160482   8.371   8.878   4.346
20080WAT     H260483   8.380   9.037   4.381
20081WAT      O60484   0.488   8.556   1.156
20081WAT     H160485   0.498   8.460   1.180
20081WAT     H260486   0.496   8.612   1.238
20082WAT      O60487   0.509   8.836   6.781
20082WAT     H160488   0.499   8.825   6.682
20082WAT     H260489   0.565   8.917   6.800
20083WAT      O60490   2.737   6.958   7.314
20083WAT     H160491   2.747   6.949   7.214
20083WAT     H260492   2.672   6.889   7.347
20084WAT      O60493   7.892   9.842   4.911
20084WAT     H160494   7.940   9.777   4.969
20084WAT     H260495   7.842   9.907   4.968
20085WAT      O60496   7.673   2.476   6.202
20085WAT     H160497   7.627   2.389   6.220
20085WAT     H260498   7.655   2.539   6.278
20086WAT      O60499   0.272   3.387   2.124
20086WAT     H160500   0.256   3.289   2.125
20086WAT     H260501   0.315   3.413   2.037
20087WAT      O60502   0.236   9.134   3.111
20087WAT     H160503   0.204   9.098   3.023
20087WAT     H260504   0.248   9.233   3.104
20088WAT      O60505   7.906   7.772   4.269
20088WAT     H160506   7.910   7.815   4.360
20088WAT     H260507   7.996   7.733   4.248
20089WAT      O60508   6.593   6.439   7.391
20089WAT     H160509   6.543   6.452   7.305
20089WAT     H260510   6.671   6.501   7.394
20090WAT      O60511   8.973   8.165   2.666
20090WAT     H160512   8.905   8.105   2.708
20090WAT     H260513   8.954   8.260   2.691
20091WAT      O60514   3.988   3.981   4.754
20091WAT     H160515   3.920   3.909   4.772
20091WAT     H260516   3.977   4.054   4.821
20092WAT      O60517   2.913   1.678   5.483
20092WAT     H160518   2.983   1.703   5.415
20092WAT     H260519   2.956   1.669   5.573
20093WAT      O60520   7.643   9.285   0.389
20093WAT     H160521   7.622   9.196   0.348
20093WAT     H260522   7.696   9.271   0.473
20094WAT      O60523   9.856   4.949   3.958
20094WAT     H160524   9.808   5.024   3.914
20094WAT     H260525   9.954   4.967   3.958
20095WAT      O60526   8.302   1.248   0.174
20095WAT     H160527   8.330   1.176   0.110
20095WAT     H260528   8.232   1.305   0.130
20096WAT      O60529   7.622   3.750   2.072
20096WAT     H160530   7.620   3.707   2.162
20096WAT     H260531   7.556   3.825   2.070
20097WAT      O60532   5.271   0.331   7.694
20097WAT     H160533   5.351   0.376   7.655
20097WAT     H260534   5.293   0.236   7.716
20098WAT      O60535   8.880   2.417   8.647
20098WAT     H160536   8.935   2.336   8.668
20098WAT     H260537   8.811   2.430   8.718
20099WAT      O60538   8.141   8.900   3.245
20099WAT     H160539   8.203   8.978   3.249
20099WAT     H260540   8.158   8.848   3.161
20100WAT      O60541   3.441   3.904   8.013
20100WAT     H160542   3.463   3.811   7.985
20100WAT     H260543   3.494   3.969   7.958
20101WAT      O60544   4.467   8.532   1.485
20101WAT     H160545   4.514   8.620   1.485
20101WAT     H260546   4.515   8.468   1.545
20102WAT      O60547   3.388   8.821   6.341
20102WAT     H160548   3.465   8.864   6.388
20102WAT     H260549   3.410   8.725   6.321
20103WAT      O60550   3.201   9.103   9.539
20103WAT     H160551   3.102   9.088   9.540
20103WAT     H260552   3.236   9.087   9.447
20104WAT      O60553   0.919   9.063   0.532
20104WAT     H160554   0.957   9.153   0.553
20104WAT     H260555   0.900   9.057   0.434
20105WAT      O60556   5.426   2.234   0.914
20105WAT     H160557   5.462   2.310   0.859
20105WAT     H260558   5.328   2.226   0.900
20106WAT      O60559   1.071   6.857   5.051
20106WAT     H160560   0.981   6.829   5.017
20106WAT     H260561   1.139   6.847   4.979
20107WAT      O60562   0.736   7.635   1.625
20107WAT     H160563   0.636   7.636   1.636
20107WAT     H260564   0.769   7.729   1.611
20108WAT      O60565   3.403   9.721   7.369
20108WAT     H160566   3.452   9.636   7.350
20108WAT     H260567   3.356   9.713   7.457
20109WAT      O60568   1.159   1.708   5.766
20109WAT     H160569   1.111   1.742   5.846
20109WAT     H260570   1.232   1.645   5.795
20110WAT      O60571   2.474   1.156   6.583
20110WAT     H160572   2.509   1.091   6.516
20110WAT     H260573   2.417   1.108   6.649
20111WAT      O60574   3.680   1.868   1.235
20111WAT     H160575   3.624   1.950   1.224
20111WAT     H260576   3.652   1.799   1.169
20112WAT      O60577   5.647   7.873   2.080
20112WAT     H160578   5.722   7.934   2.053
20112WAT     H260579   5.664   7.839   2.172
20113WAT      O60580   9.277   4.196   6.864
20113WAT     H160581   9.223   4.112   6.867
20113WAT     H260582   9.244   4.259   6.935
20114WAT      O60583   6.563   5.809   0.158
20114WAT     H160584   6.617   5.727   0.137
20114WAT     H260585   6.596   5.850   0.243
20115WAT      O60586   7.594   2.483   0.707
20115WAT     H160587   7.571   2.402   0.760
20115WAT     H260588   7.642   2.548   0.765
20116WAT      O60589   3.671   1.467   6.455
20116WAT     H160590   3.707   1.482   6.547
20116WAT     H260591   3.746   1.440   6.394
20117WAT      O60592   5.256   6.732   7.821
20117WAT     H160593   5.347   6.698   7.798
20117WAT     H260594   5.262   6.829   7.844
20118WAT      O60595   4.923   0.797   4.689
20118WAT     H160596   4.934   0.877   4.748
20118WAT     H260597   4.827   0.789   4.662
20119WAT      O60598   4.140   2.646   7.306
20119WAT     H160599   4.235   2.622   7.285
20119WAT     H260600   4.138   2.716   7.377
20120WAT      O60601   9.877   0.466   6.380
20120WAT     H160602   9.812   0.536   6.408
20120WAT     H260603   9.827   0.389   6.340
20121WAT      O60604   4.254   4.031   9.215
20121WAT     H160605   4.207   4.072   9.293
20121WAT     H260606   4.227   3.935   9.207
20122WAT      O60607   2.176   6.979   8.366
20122WAT     H160608   2.209   7.039   8.292
20122WAT     H260609   2.084   6.947   8.345
20123WAT      O60610   0.938   6.377   0.837
20123WAT     H160611   0.880   6.327   0.773
20123WAT     H260612   0.907   6.472   0.844
20124WAT      O60613   9.438   6.341   3.321
20124WAT     H160614   9.396   6.252   3.334
20124WAT     H260615   9.529   6.342   3.362
20125WAT      O60616   9.508   4.549   8.588
20125WAT     H160617   9.470   4.470   8.635
20125WAT     H260618   9.605   4.557   8.609
20126WAT      O60619   7.673   4.209   1.080
20126WAT     H160620   7.660   4.155   0.997
20126WAT     H260621   7.711   4.298   1.056
20127WAT      O60622   6.294   4.814   0.340
20127WAT     H160623   6.254   4.895   0.297
20127WAT     H260624   6.283   4.736   0.280
20128WAT      O60625   9.624   8.765   7.258
20128WAT     H160626   9.721   8.753   7.280
20128WAT     H260627   9.579   8.814   7.332
20129WAT      O60628   2.710   5.660   7.098
20129WAT     H160629   2.755   5.679   7.185
20129WAT     H260630   2.769   5.602   7.042
20130WAT      O60631   7.177   2.859   5.612
20130WAT     H160632   7.256   2.819   5.657
20130WAT     H260633   7.207   2.912   5.532
20131WAT      O60634   1.796   6.329   0.317
20131WAT     H160635   1.857   6.370   0.249
20131WAT     H260636   1.738   6.260   0.273
20132WAT      O60637   0.588   4.175   2.055
20132WAT     H160638   0.683   4.147   2.063
20132WAT     H260639   0.532   4.122   2.119
20133WAT      O60640   8.961   6.606   1.666
20133WAT     H160641   8.991   6.525   1.715
20133WAT     H260642   9.015   6.685   1.694
20134WAT      O60643   6.562   9.565   0.356
20134WAT     H160644   6.661   9.565   0.345
20134WAT     H260645   6.539   9.593   0.449
20135WAT      O60646   0.593   7.402   4.878
20135WAT     H160647   0.508   7.356   4.854
20135WAT     H260648   0.610   7.390   4.976
20136WAT      O60649   7.899   5.017   4.635
20136WAT     H160650   7.860   5.006   4.727
20136WAT     H260651   7.924   5.113   4.621
20137WAT      O60652   9.717   0.657   8.099
20137WAT     H160653   9.667   0.636   8.183
20137WAT     H260654   9.652   0.681   8.027
20138WAT      O60655   2.893   8.796   8.081
20138WAT     H160656   2.912   8.872   8.019
20138WAT     H260657   2.957   8.800   8.159
20139WAT      O60658   6.087   4.723   8.096
20139WAT     H160659   6.180   4.739   8.129
20139WAT     H260660   6.049   4.643   8.142
20140WAT      O60661   0.776   2.491   4.193
20140WAT     H160662   0.788   2.435   4.112
20140WAT     H260663   0.845   2.466   4.262
20141WAT      O60664   5.483   8.871   1.855
20141WAT     H160665   5.423   8.818   1.914
20141WAT     H260666   5.480   8.967   1.882
20142WAT      O60667   3.841   6.878   9.504
20142WAT     H160668   3.917   6.920   9.454
20142WAT     H260669   3.832   6.922   9.594
20143WAT      O60670   6.517   4.747   1.085
20143WAT     H160671   6.590   4.815   1.078
20143WAT     H260672   6.429   4.791   1.070
20144WAT      O60673   3.861   3.588   4.298
20144WAT     H160674   3.820   3.500   4.321
20144WAT     H260675   3.906   3.581   4.208
20145WAT      O60676   2.246   7.698   3.685
20145WAT     H160677   2.245   7.797   3.699
20145WAT     H260678   2.217   7.651   3.768
20146WAT      O60679   4.158   9.803   4.679
20146WAT     H160680   4.155   9.830   4.583
20146WAT     H260681   4.138   9.705   4.686
20147WAT      O60682   0.192   3.414   4.810
20147WAT     H160683   0.151   3.493   4.765
20147WAT     H260684   0.127   3.376   4.876
20148WAT      O60685   0.455   4.598   5.190
20148WAT     H160686   0.502   4.521   5.147
20148WAT     H260687   0.357   4.580   5.194
20149WAT      O60688   5.615   0.090   7.165
20149WAT     H160689   5.695   0.147   7.147
20149WAT     H260690   5.545   0.144   7.212
20150WAT      O60691   9.195   9.278   6.585
20150WAT     H160692   9.264   9.276   6.658
20150WAT     H260693   9.108   9.311   6.622
20151WAT      O60694   7.327   6.981   2.815
20151WAT     H160695   7.321   6.982   2.914
20151WAT     H260696   7.423   6.987   2.787
20152WAT      O60697   4.600   1.547   6.107
20152WAT     H160698   4.622   1.629   6.160
20152WAT     H260699   4.576   1.574   6.014
20153WAT      O60700   2.567   4.449   2.626
20153WAT     H160701   2.525   4.509   2.694
20153WAT     H260702   2.498   4.421   2.559
20154WAT      O60703   7.186   2.557   2.588
20154WAT     H160704   7.226   2.510   2.668
20154WAT     H260705   7.099   2.515   2.565
20155WAT      O60706   5.881   4.515   9.562
20155WAT     H160707   5.792   4.531   9.520
20155WAT     H260708   5.898   4.416   9.566
20156WAT      O60709   8.523   6.788   6.708
20156WAT     H160710   8.467   6.778   6.626
20156WAT     H260711   8.478   6.742   6.785
20157WAT      O60712   7.307   6.699   5.828
20157WAT     H160713   7.251   6.632   5.778
20157WAT     H260714   7.260   6.788   5.828
20158WAT      O60715   4.513   0.590   4.348
20158WAT     H160716   4.489   0.686   4.333
20158WAT     H260717   4.595   0.585   4.405
20159WAT      O60718   5.471   8.630   1.258
20159WAT     H160719   5.537   8.704   1.240
20159WAT     H260720   5.516   8.558   1.310
20160WAT      O60721   6.795   7.739   4.566
20160WAT     H160722   6.888   7.772   4.583
20160WAT     H260723   6.795   7.640   4.559
20161WAT      O60724   5.583   4.113   7.385
20161WAT     H160725   5.654   4.103   7.455
20161WAT     H260726   5.620   4.165   7.308
20162WAT      O60727   1.505   0.050   1.577
20162WAT     H160728   1.558   0.021   1.656
20162WAT     H260729   1.561   0.111   1.520
20163WAT      O60730   9.075   5.622   2.881
20163WAT     H160731   9.015   5.569   2.942
20163WAT     H260732   9.022   5.655   2.803
20164WAT      O60733   1.559   7.720   5.428
20164WAT     H160734   1.575   7.712   5.330
20164WAT     H260735   1.484   7.784   5.444
20165WAT      O60736   4.229   3.909   2.613
20165WAT     H160737   4.177   3.969   2.674
20165WAT     H260738   4.303   3.865   2.665
20166WAT      O60739   8.563   9.138   0.997
20166WAT     H160740   8.597   9.222   1.039
20166WAT     H260741   8.630   9.065   1.008
20167WAT      O60742   2.122   8.713   2.549
20167WAT     H160743   2.024   8.712   2.570
20167WAT     H260744   2.150   8.624   2.515
20168WAT      O60745   7.788   3.387   0.622
20168WAT     H160746   7.780   3.446   0.703
20168WAT     H260747   7.777   3.291   0.650
20169WAT      O60748   4.560   6.704   5.382
20169WAT     H160749   4.566   6.661   5.292
20169WAT     H260750   4.617   6.654   5.447
20170WAT      O60751   4.564   1.016   9.332
20170WAT     H160752   4.500   0.966   9.273
20170WAT     H260753   4.603   1.093   9.281
20171WAT      O60754   5.331   4.955   0.815
20171WAT     H160755   5.284   4.867   0.804
20171WAT     H260756   5.292   5.004   0.893
20172WAT      O60757   5.864   3.458   1.799
20172WAT     H160758   5.771   3.489   1.819
20172WAT     H260759   5.887   3.381   1.859
20173WAT      O60760   2.793   7.868   3.516
20173WAT     H160761   2.778   7.933   3.591
20173WAT     H260762   2.734   7.893   3.438
20174WAT      O60763   3.458   8.826   2.808
20174WAT     H160764   3.381   8.883   2.840
20174WAT     H260765   3.430   8.730   2.808
20175WAT      O60766   4.606   8.993   2.804
20175WAT     H160767   4.574   8.936   2.880
20175WAT     H260768   4.532   9.003   2.737
20176WAT      O60769   9.211   5.457   7.347
20176WAT     H160770   9.305   5.446   7.315
20176WAT     H260771   9.211   5.483   7.444
20177WAT      O60772   2.086   5.879   3.250
20177WAT     H160773   2.148   5.946   3.208
20177WAT     H260774   2.107   5.873   3.348
20178WAT      O60775   7.452   3.681   5.845
20178WAT     H160776   7.482   3.674   5.940
20178WAT     H260777   7.530   3.666   5.784
20179WAT      O60778   5.465   8.279   4.723
20179WAT     H160779   5.520   8.225   4.786
20179WAT     H260780   5.416   8.219   4.660
20180WAT      O60781   3.523   8.263   6.161
20180WAT     H160782   3.459   8.270   6.084
20180WAT     H260783   3.571   8.350   6.173
20181WAT      O60784   6.261   7.427   2.877
20181WAT     H160785   6.216   7.369   2.945
20181WAT     H260786   6.208   7.428   2.793
20182WAT      O60787   5.655   4.276   5.373
20182WAT     H160788   5.666   4.329   5.456
20182WAT     H260789   5.725   4.302   5.307
20183WAT      O60790   4.432   0.080   3.740
20183WAT     H160791   4.401   0.171   3.712
20183WAT     H260792   4.436   0.020   3.660
20184WAT      O60793   7.334   6.778   0.604
20184WAT     H160794   7.299   6.786   0.510
20184WAT     H260795   7.297   6.696   0.646
20185WAT      O60796   0.739   0.532   4.839
20185WAT     H160797   0.794   0.616   4.836
20185WAT     H260798   0.708   0.516   4.933
20186WAT      O60799   4.556   9.761   3.243
20186WAT     H160800   4.474   9.766   3.301
20186WAT     H260801   4.531   9.783   3.149
20187WAT      O60802   4.039   9.625   5.823
20187WAT     H160803   3.959   9.565   5.827
20187WAT     H260804   4.040   9.674   5.736
20188WAT      O60805   5.153   8.995   3.862
20188WAT     H160806   5.154   9.084   3.815
20188WAT     H260807   5.247   8.966   3.880
20189WAT      O60808   0.163   6.213   6.789
20189WAT     H160809   0.193   6.127   6.749
20189WAT     H260810   0.128   6.197   6.882
20190WAT      O60811   0.033   4.068   3.876
20190WAT     H160812   0.065   4.134   3.808
20190WAT     H260813   0.095   3.990   3.879
20191WAT      O60814   2.708   6.833   3.822
20191WAT     H160815   2.700   6.903   3.751
20191WAT     H260816   2.791   6.779   3.807
20192WAT      O60817   3.381   4.978   4.528
20192WAT     H160818   3.430   5.008   4.610
20192WAT     H260819   3.427   5.013   4.446
20193WAT      O60820   0.048   5.802   1.608
20193WAT     H160821  -0.029   5.838   1.661
20193WAT     H260822   0.096   5.877   1.564
20194WAT      O60823   9.737   4.231   6.854
20194WAT     H160824   9.769   4.326   6.851
20194WAT     H260825   9.662   4.223   6.920
20195WAT      O60826   1.188   4.028   6.131
20195WAT     H160827   1.111   3.968   6.155
20195WAT     H260828   1.174   4.118   6.174
20196WAT      O60829   2.917   0.358   9.153
20196WAT     H160830   2.914   0.298   9.232
20196WAT     H260831   2.901   0.304   9.070
20197WAT      O60832   6.706   7.094   9.138
20197WAT     H160833   6.779   7.045   9.090
20197WAT     H260834   6.643   7.134   9.072
20198WAT      O60835   6.878   3.252   3.354
20198WAT     H160836   6.918   3.177   3.406
20198WAT     H260837   6.941   3.281   3.282
20199WAT      O60838   6.764   8.336   9.354
20199WAT     H160839   6.839   8.394   9.386
20199WAT     H260840   6.676   8.378   9.377
20200WAT      O60841   4.460   0.886   2.607
20200WAT     H160842   4.363   0.907   2.612
20200WAT     H260843   4.505   0.915   2.692
20201WAT      O60844   0.008   0.848   5.509
20201WAT     H160845   0.063   0.846   5.425
20201WAT     H260846  -0.077   0.797   5.494
20202WAT      O60847   5.650   2.558   6.475
20202WAT     H160848   5.683   2.492   6.542
20202WAT     H260849   5.727   2.611   6.440
20203WAT      O60850   7.929   4.834   7.346
20203WAT     H160851   7.987   4.759   7.312
20203WAT     H260852   7.835   4.819   7.317
20204WAT      O60853   4.028   7.466   3.903
20204WAT     H160854   3.956   7.511   3.956
20204WAT     H260855   4.044   7.374   3.940
20205WAT      O60856   7.027   5.744   1.574
20205WAT     H160857   6.931   5.721   1.558
20205WAT     H260858   7.078   5.734   1.489
20206WAT      O60859   6.672   9.277   7.133
20206WAT     H160860   6.765   9.283   7.096
20206WAT     H260861   6.606   9.275   7.057
20207WAT      O60862   5.505   0.167   0.488
20207WAT     H160863   5.539   0.109   0.562
20207WAT     H260864   5.461   0.248   0.527
20208WAT      O60865   2.994   5.586   8.435
20208WAT     H160866   2.990   5.606   8.533
20208WAT     H260867   2.912   5.536   8.408
20209WAT      O60868   6.917   5.134   1.399
20209WAT     H160869   6.902   5.207   1.332
20209WAT     H260870   6.895   5.168   1.491
20210WAT      O60871   0.926   2.223   9.337
20210WAT     H160872   0.854   2.155   9.350
20210WAT     H260873   0.902   2.307   9.384
20211WAT      O60874   1.729   6.038   2.729
20211WAT     H160875   1.811   5.994   2.693
20211WAT     H260876   1.684   6.089   2.656
20212WAT      O60877   8.285   6.164   6.442
20212WAT     H160878   8.237   6.252   6.450
20212WAT     H260879   8.233   6.104   6.380
20213WAT      O60880   5.835   0.944   9.707
20213WAT     H160881   5.756   1.002   9.690
20213WAT     H260882   5.843   0.926   9.805
20214WAT      O60883   0.179   9.600   9.075
20214WAT     H160884   0.116   9.589   8.999
20214WAT     H260885   0.160   9.686   9.122
20215WAT      O60886   6.741   2.160   9.142
20215WAT     H160887   6.776   2.087   9.200
20215WAT     H260888   6.769   2.249   9.179
20216WAT      O60889   4.314   1.969   0.532
20216WAT     H160890   4.261   1.971   0.447
20216WAT     H260891   4.267   2.022   0.603
20217WAT      O60892   6.308   0.945   8.080
20217WAT     H160893   6.362   0.943   7.996
20217WAT     H260894   6.370   0.942   8.159
20218WAT      O60895   1.873   7.257   7.248
20218WAT     H160896   1.954   7.283   7.300
20218WAT     H260897   1.878   7.160   7.225
20219WAT      O60898   8.221   3.830   8.768
20219WAT     H160899   8.157   3.897   8.731
20219WAT     H260900   8.196   3.738   8.736
20220WAT      O60901   6.501   3.001   8.104
20220WAT     H160902   6.491   2.948   8.020
20220WAT     H260903   6.454   3.088   8.095
20221WAT      O60904   8.696   5.390   5.872
20221WAT     H160905   8.781   5.425   5.911
20221WAT     H260906   8.717   5.323   5.801
20222WAT      O60907   7.263   9.530   5.953
20222WAT     H160908   7.336   9.563   6.013
20222WAT     H260909   7.262   9.583   5.868
20223WAT      O60910   2.604   8.039   7.580
20223WAT     H160911   2.668   7.963   7.587
20223WAT     H260912   2.579   8.070   7.672
20224WAT      O60913   3.291   8.251   2.238
20224WAT     H160914   3.259   8.156   2.237
20224WAT     H260915   3.212   8.312   2.243
20225WAT      O60916   6.027   1.024   2.745
20225WAT     H160917   6.058   0.933   2.773
20225WAT     H260918   6.045   1.037   2.648
20226WAT      O60919   0.731   8.783   2.063
20226WAT     H160920   0.636   8.758   2.083
20226WAT     H260921   0.776   8.708   2.014
20227WAT      O60922   0.284   7.387   5.573
20227WAT     H160923   0.382   7.380   5.557
20227WAT     H260924   0.266   7.389   5.672
20228WAT      O60925   6.698   1.338   3.671
20228WAT     H160926   6.655   1.379   3.591
20228WAT     H260927   6.757   1.406   3.715
20229WAT      O60928   9.593   2.607   8.413
20229WAT     H160929   9.679   2.576   8.372
20229WAT     H260930   9.592   2.585   8.510
20230WAT      O60931   3.302   0.196   3.628
20230WAT     H160932   3.378   0.243   3.583
20230WAT     H260933   3.333   0.108   3.663
20231WAT      O60934   7.780   5.407   0.373
20231WAT     H160935   7.849   5.339   0.398
20231WAT     H260936   7.825   5.493   0.349
20232WAT      O60937   7.761   2.668   6.047
20232WAT     H160938   7.860   2.680   6.057
20232WAT     H260939   7.730   2.596   6.109
20233WAT      O60940   2.899   1.577   1.148
20233WAT     H160941   2.994   1.604   1.132
20233WAT     H260942   2.840   1.657   1.139
20234WAT      O60943   1.310   9.227   2.483
20234WAT     H160944   1.317   9.155   2.552
20234WAT     H260945   1.248   9.197   2.410
20235WAT      O60946   8.700   9.198   4.828
20235WAT     H160947   8.698   9.294   4.857
20235WAT     H260948   8.649   9.142   4.893
20236WAT      O60949   6.266   4.273   0.482
20236WAT     H160950   6.250   4.182   0.521
20236WAT     H260951   6.290   4.336   0.555
20237WAT      O60952   3.454   6.907   3.132
20237WAT     H160953   3.355   6.901   3.117
20237WAT     H260954   3.497   6.950   3.053
20238WAT      O60955   8.900   6.267   4.042
20238WAT     H160956   8.939   6.358   4.054
20238WAT     H260957   8.860   6.237   4.129
20239WAT      O60958   4.960   4.966   7.142
20239WAT     H160959   4.950   4.889   7.205
20239WAT     H260960   4.980   4.932   7.050
20240WAT      O60961   8.103   5.823   0.575
20240WAT     H160962   8.130   5.910   0.535
20240WAT     H260963   8.145   5.812   0.665
20241WAT      O60964   6.465   2.916   7.390
20241WAT     H160965   6.448   3.014   7.396
20241WAT     H260966   6.387   2.865   7.427
20242WAT      O60967   6.937   9.488   9.850
20242WAT     H160968   6.936   9.556   9.923
20242WAT     H260969   6.918   9.398   9.889
20243WAT      O60970   6.744   8.739   1.021
20243WAT     H160971   6.842   8.720   1.012
20243WAT     H260972   6.713   8.709   1.112
20244WAT      O60973   2.608   8.815   1.687
20244WAT     H160974   2.524   8.769   1.717
20244WAT     H260975   2.607   8.910   1.717
20245WAT      O60976   5.582   3.554   5.878
20245WAT     H160977   5.601   3.642   5.834
20245WAT     H260978   5.517   3.502   5.822
20246WAT      O60979   4.733   3.367   9.749
20246WAT     H160980   4.709   3.320   9.664
20246WAT     H260981   4.727   3.466   9.736
20247WAT      O60982   8.158   4.232   1.478
20247WAT     H160983   8.143   4.143   1.435
20247WAT     H260984   8.255   4.255   1.475
20248WAT      O60985   2.841   0.721   4.384
20248WAT     H160986   2.840   0.749   4.288
20248WAT     H260987   2.912   0.772   4.433
20249WAT      O60988   8.892   2.132   1.711
20249WAT     H160989   8.961   2.158   1.779
20249WAT     H260990   8.845   2.214   1.678
20250WAT      O60991   8.307   2.041   2.604
20250WAT     H160992   8.354   2.108   2.662
20250WAT     H260993   8.359   1.955   2.606
20251WAT      O60994   1.017   8.608   6.536
20251WAT     H160995   0.955   8.686   6.535
20251WAT     H260996   1.104   8.633   6.494
20252WAT      O60997   4.317   9.484   4.382
20252WAT     H160998   4.321   9.560   4.318
20252WAT     H260999   4.244   9.421   4.356
20253WAT      O61000   7.839   8.339   7.924
20253WAT     H161001   7.834   8.303   8.017
20253WAT     H261002   7.749   8.372   7.897
20254WAT      O61003   3.191   8.564   7.085
20254WAT     H161004   3.195   8.659   7.056
20254WAT     H261005   3.131   8.513   7.024
20255WAT      O61006   0.300   0.494   9.235
20255WAT     H161007   0.341   0.405   9.255
20255WAT     H261008   0.367   0.566   9.256
20256WAT      O61009   4.354   0.330   3.687
20256WAT     H161010   4.379   0.388   3.610
20256WAT     H261011   4.255   0.337   3.703
20257WAT      O61012   4.876   6.831   9.454
20257WAT     H161013   4.852   6.760   9.521
20257WAT     H261014   4.893   6.917   9.503
20258WAT      O61015   4.356   7.851   2.545
20258WAT     H161016   4.320   7.915   2.612
20258WAT     H261017   4.281   7.810   2.493
20259WAT      O61018   0.266   6.404   3.353
20259WAT     H161019   0.227   6.380   3.443
20259WAT     H261020   0.359   6.368   3.347
20260WAT      O61021   9.470   4.047   1.231
20260WAT     H161022   9.490   4.090   1.142
20260WAT     H261023   9.549   3.993   1.260
20261WAT      O61024   3.276   1.112   0.727
20261WAT     H161025   3.352   1.133   0.666
20261WAT     H261026   3.266   1.184   0.795
20262WAT      O61027   0.391   9.730   6.071
20262WAT     H161028   0.459   9.724   6.144
20262WAT     H261029   0.352   9.639   6.055
20263WAT      O61030   1.404   0.130   7.164
20263WAT     H161031   1.401   0.115   7.065
20263WAT     H261032   1.416   0.227   7.182
20264WAT      O61033   2.486   2.602   7.466
20264WAT     H161034   2.523   2.541   7.396
20264WAT     H261035   2.495   2.697   7.435
20265WAT      O61036   9.026   6.113   9.875
20265WAT     H161037   8.990   6.154   9.960
20265WAT     H261038   8.973   6.031   9.854
20266WAT      O61039   6.657   6.927   2.076
20266WAT     H161040   6.593   6.871   2.128
20266WAT     H261041   6.751   6.901   2.098
20267WAT      O61042   6.937   0.208   6.686
20267WAT     H161043   6.945   0.208   6.785
20267WAT     H261044   7.009   0.266   6.647
20268WAT      O61045   3.204   2.351   7.926
20268WAT     H161046   3.218   2.432   7.869
20268WAT     H261047   3.168   2.378   8.015
20269WAT      O61048   2.731   2.457   2.900
20269WAT     H161049   2.830   2.474   2.896
20269WAT     H261050   2.714   2.359   2.890
20270WAT      O61051   4.933   0.351   0.791
20270WAT     H161052   4.958   0.370   0.885
20270WAT     H261053   4.869   0.274   0.788
20271WAT      O61054   0.467   8.546   4.983
20271WAT     H161055   0.418   8.460   4.968
20271WAT     H261056   0.424   8.618   4.928
20272WAT      O61057   5.701   9.114   9.085
20272WAT     H161058   5.750   9.200   9.101
20272WAT     H261059   5.608   9.133   9.057
20273WAT      O61060   0.857   3.307   3.807
20273WAT     H161061   0.787   3.369   3.772
20273WAT     H261062   0.875   3.328   3.903
20274WAT      O61063   9.742   4.394   5.555
20274WAT     H161064   9.797   4.385   5.472
20274WAT     H261065   9.800   4.378   5.635
20275WAT      O61066   9.436   3.738   0.280
20275WAT     H161067   9.350   3.703   0.317
20275WAT     H261068   9.418   3.789   0.195
20276WAT      O61069   0.976   0.230   5.553
20276WAT     H161070   0.881   0.250   5.530
20276WAT     H261071   0.987   0.132   5.570
20277WAT      O61072   8.266   3.651   9.352
20277WAT     H161073   8.274   3.750   9.354
20277WAT     H261074   8.172   3.624   9.373
20278WAT      O61075   6.884   2.499   2.997
20278WAT     H161076   6.921   2.528   3.085
20278WAT     H261077   6.956   2.453   2.944
20279WAT      O61078   2.136   2.073   2.677
20279WAT     H161079   2.142   1.976   2.703
20279WAT     H261080   2.204   2.125   2.728
20280WAT      O61081   2.484   2.941   3.835
20280WAT     H161082   2.435   2.854   3.822
20280WAT     H261083   2.481   2.994   3.751
20281WAT      O61084   8.152   1.882   7.158
20281WAT     H161085   8.200   1.967   7.179
20281WAT     H261086   8.054   1.901   7.150
20282WAT      O61087   0.589   1.770   2.377
20282WAT     H161088   0.518   1.834   2.350
20282WAT     H261089   0.566   1.678   2.344
20283WAT      O61090   0.530   0.103   6.798
20283WAT     H161091   0.508   0.005   6.791
20283WAT     H261092   0.504   0.148   6.712
20284WAT      O61093   5.794   3.886   7.339
20284WAT     H161094   5.799   3.936   7.425
20284WAT     H261095   5.880   3.836   7.324
20285WAT      O61096   1.399   3.842   2.366
20285WAT     H161097   1.377   3.926   2.415
20285WAT     H261098   1.359   3.845   2.275
20286WAT      O61099   9.330   2.358   7.649
20286WAT     H161100   9.321   2.260   7.668
20286WAT     H261101   9.266   2.410   7.706
20287WAT      O61102   8.733   7.812   5.976
20287WAT     H161103   8.661   7.750   5.944
20287WAT     H261104   8.725   7.900   5.929
20288WAT      O61105   2.374   0.346   4.897
20288WAT     H161106   2.468   0.313   4.886
20288WAT     H261107   2.310   0.279   4.859
20289WAT      O61108   2.486   2.005   7.537
20289WAT     H161109   2.398   2.017   7.492
20289WAT     H261110   2.560   2.015   7.470
20290WAT      O61111   8.082   7.889   2.980
20290WAT     H161112   7.995   7.913   3.023
20290WAT     H261113   8.135   7.973   2.966
20291WAT      O61114   1.336   3.132   9.603
20291WAT     H161115   1.322   3.227   9.629
20291WAT     H261116   1.410   3.093   9.659
20292WAT      O61117   4.605   1.705   4.290
20292WAT     H161118   4.579   1.776   4.355
20292WAT     H261119   4.530   1.641   4.279
20293WAT      O61120   2.428   7.896   1.124
20293WAT     H161121   2.379   7.982   1.136
20293WAT     H261122   2.367   7.820   1.145
20294WAT      O61123   1.434   2.856   8.287
20294WAT     H161124   1.378   2.774   8.298
20294WAT     H261125   1.418   2.918   8.364
20295WAT      O61126   9.779   2.023   5.201
20295WAT     H161127   9.799   1.927   5.178
20295WAT     H261128   9.769   2.032   5.300
20296WAT      O61129   3.135   8.032   7.292
20296WAT     H161130   3.078   8.071   7.220
20296WAT     H261131   3.111   8.073   7.380
20297WAT      O61132   5.640   7.781   7.641
20297WAT     H161133   5.697   7.862   7.657
20297WAT     H261134   5.571   7.773   7.713
20298WAT      O61135   4.664   5.730   6.612
20298WAT     H161136   4.709   5.709   6.698
20298WAT     H261137   4.691   5.663   6.543
20299WAT      O61138   1.317   1.710   9.028
20299WAT     H161139   1.299   1.663   8.942
20299WAT     H261140   1.391   1.775   9.016
20300WAT      O61141   2.662   5.734   2.213
20300WAT     H161142   2.610   5.657   2.176
20300WAT     H261143   2.736   5.700   2.271
20301WAT      O61144   4.651   5.463   0.743
20301WAT     H161145   4.692   5.535   0.801
20301WAT     H261146   4.653   5.376   0.793
20302WAT      O61147   7.287   3.040   4.569
20302WAT     H161148   7.251   3.132   4.558
20302WAT     H261149   7.386   3.041   4.555
20303WAT      O61150   1.597   3.863   1.881
20303WAT     H161151   1.500   3.836   1.881
20303WAT     H261152   1.606   3.953   1.838
20304WAT      O61153   9.845   2.078   7.032
20304WAT     H161154   9.833   2.167   7.075
20304WAT     H261155   9.756   2.034   7.021
20305WAT      O61156   2.619   6.158   5.530
20305WAT     H161157   2.711   6.153   5.568
20305WAT     H261158   2.562   6.087   5.572
20306WAT      O61159   2.105   3.656   2.964
20306WAT     H161160   2.097   3.688   2.870
20306WAT     H261161   2.113   3.734   3.025
20307WAT      O61162   2.459   9.655   5.583
20307WAT     H161163   2.401   9.694   5.512
20307WAT     H261164   2.404   9.637   5.665
20308WAT      O61165   6.357   8.988   1.101
20308WAT     H161166   6.338   9.043   1.020
20308WAT     H261167   6.295   9.013   1.174
20309WAT      O61168   4.007   1.041   5.972
20309WAT     H161169   3.971   1.025   6.064
20309WAT     H261170   3.956   1.116   5.929
20310WAT      O61171   6.652   6.626   0.823
20310WAT     H161172   6.741   6.585   0.841
20310WAT     H261173   6.639   6.706   0.881
20311WAT      O61174   5.909   1.412   9.255
20311WAT     H161175   5.832   1.360   9.217
20311WAT     H261176   5.986   1.351   9.271
20312WAT      O61177   4.116   1.537   0.484
20312WAT     H161178   4.153   1.449   0.515
20312WAT     H261179   4.038   1.521   0.423
20313WAT      O61180   5.507   6.639   7.751
20313WAT     H161181   5.555   6.690   7.822
20313WAT     H261182   5.553   6.551   7.736
20314WAT      O61183   5.749   6.630   2.446
20314WAT     H161184   5.816   6.681   2.501
20314WAT     H261185   5.786   6.540   2.423
20315WAT      O61186   1.916   3.014   7.494
20315WAT     H161187   2.001   2.972   7.462
20315WAT     H261188   1.867   2.949   7.553
20316WAT      O61189   6.906   7.298   2.487
20316WAT     H161190   6.875   7.267   2.577
20316WAT     H261191   6.842   7.267   2.417
20317WAT      O61192   4.111   0.464   2.513
20317WAT     H161193   4.203   0.500   2.500
20317WAT     H261194   4.101   0.378   2.464
20318WAT      O61195   6.093   2.463   7.722
20318WAT     H161196   6.095   2.460   7.622
20318WAT     H261197   6.172   2.413   7.758
20319WAT      O61198   4.660   4.867   6.976
20319WAT     H161199   4.643   4.950   7.029
20319WAT     H261200   4.745   4.877   6.926
20320WAT      O61201   9.710   3.800   0.143
20320WAT     H161202   9.663   3.813   0.231
20320WAT     H261203   9.803   3.766   0.160
20321WAT      O61204   3.954   7.504   1.010
20321WAT     H161205   3.942   7.500   0.911
20321WAT     H261206   3.894   7.437   1.054
20322WAT      O61207   0.533   7.516   2.777
20322WAT     H161208   0.474   7.581   2.823
20322WAT     H261209   0.590   7.563   2.710
20323WAT      O61210   3.873   1.020   8.152
20323WAT     H161211   3.810   0.970   8.092
20323WAT     H261212   3.873   1.117   8.126
20324WAT      O61213   2.643   6.230   9.502
20324WAT     H161214   2.573   6.159   9.516
20324WAT     H261215   2.599   6.319   9.491
20325WAT      O61216   0.023   9.247   4.812
20325WAT     H161217  -0.010   9.161   4.773
20325WAT     H261218  -0.055   9.301   4.844
20326WAT      O61219   9.556   6.908   9.208
20326WAT     H161220   9.559   6.808   9.211
20326WAT     H261221   9.477   6.938   9.154
20327WAT      O61222   2.721   6.423   2.667
20327WAT     H161223   2.820   6.430   2.677
20327WAT     H261224   2.679   6.514   2.675
20328WAT      O61225   4.477   2.383   8.561
20328WAT     H161226   4.408   2.455   8.564
20328WAT     H261227   4.541   2.395   8.637
20329WAT      O61228   7.003   1.563   1.669
20329WAT     H161229   7.059   1.480   1.680
20329WAT     H261230   7.029   1.630   1.740
20330WAT      O61231   1.276   8.246   0.610
20330WAT     H161232   1.208   8.218   0.678
20330WAT     H261233   1.287   8.345   0.612
20331WAT      O61234   0.131   2.562   0.997
20331WAT     H161235   0.039   2.592   0.973
20331WAT     H261236   0.178   2.530   0.915
20332WAT      O61237   0.966   8.285   9.698
20332WAT     H161238   0.936   8.368   9.745
20332WAT     H261239   1.013   8.310   9.613
20333WAT      O61240   9.878   8.724   7.312
20333WAT     H161241   9.886   8.810   7.362
20333WAT     H261242   9.946   8.722   7.238
20334WAT      O61243   3.656   9.242   1.186
20334WAT     H161244   3.733   9.306   1.176
20334WAT     H261245   3.680   9.155   1.142
20335WAT      O61246   8.549   1.253   8.710
20335WAT     H161247   8.456   1.221   8.689
20335WAT     H261248   8.558   1.264   8.809
20336WAT      O61249   0.017   4.988   6.814
20336WAT     H161250   0.046   4.895   6.792
20336WAT     H261251   0.085   5.030   6.875
20337WAT      O61252   4.812   1.922   4.004
20337WAT     H161253   4.827   2.000   4.063
20337WAT     H261254   4.893   1.907   3.946
20338WAT      O61255   5.187   6.790   7.139
20338WAT     H161256   5.160   6.806   7.234
20338WAT     H261257   5.140   6.855   7.080
20339WAT      O61258   9.290   4.942   9.016
20339WAT     H161259   9.279   5.038   8.990
20339WAT     H261260   9.225   4.885   8.965
20340WAT      O61261   8.451   1.147   1.803
20340WAT     H161262   8.426   1.218   1.868
20340WAT     H261263   8.412   1.169   1.713
20341WAT      O61264   4.452   1.157   0.879
20341WAT     H161265   4.456   1.256   0.895
20341WAT     H261266   4.367   1.135   0.831
20342WAT      O61267   4.050   5.734   4.699
20342WAT     H161268   4.070   5.672   4.623
20342WAT     H261269   4.094   5.822   4.683
20343WAT      O61270   0.618   7.115   0.640
20343WAT     H161271   0.705   7.093   0.684
20343WAT     H261272   0.543   7.092   0.702
20344WAT      O61273   5.066   3.577   2.917
20344WAT     H161274   4.972   3.595   2.946
20344WAT     H261275   5.121   3.659   2.935
20345WAT      O61276   1.352   3.435   4.171
20345WAT     H161277   1.405   3.511   4.209
20345WAT     H261278   1.395   3.348   4.198
20346WAT      O61279   3.316   3.482   1.489
20346WAT     H161280   3.244   3.421   1.523
20346WAT     H261281   3.297   3.508   1.395
20347WAT      O61282   3.778   2.609   9.250
20347WAT     H161283   3.746   2.678   9.314
20347WAT     H261284   3.760   2.518   9.287
20348WAT      O61285   0.685   7.416   5.692
20348WAT     H161286   0.615   7.397   5.760
20348WAT     H261287   0.650   7.396   5.601
20349WAT      O61288   2.084   4.906   4.652
20349WAT     H161289   2.132   4.895   4.566
20349WAT     H261290   2.056   4.816   4.686
20350WAT      O61291   8.504   7.717   7.335
20350WAT     H161292   8.527   7.634   7.387
20350WAT     H261293   8.430   7.696   7.271
20351WAT      O61294   3.728   1.724   7.438
20351WAT     H161295   3.749   1.668   7.519
20351WAT     H261296   3.720   1.664   7.358
20352WAT      O61297   4.270   7.285   4.026
20352WAT     H161298   4.242   7.309   4.119
20352WAT     H261299   4.190   7.275   3.968
20353WAT      O61300   2.729   2.862   0.110
20353WAT     H161301   2.790   2.867   0.031
20353WAT     H261302   2.690   2.953   0.128
20354WAT      O61303   8.066   6.460   9.474
20354WAT     H161304   7.976   6.494   9.500
20354WAT     H261305   8.071   6.362   9.490
20355WAT      O61306   2.205   4.046   5.385
20355WAT     H161307   2.233   3.952   5.364
20355WAT     H261308   2.107   4.055   5.370
20356WAT      O61309   5.803   5.755   6.563
20356WAT     H161310   5.742   5.806   6.624
20356WAT     H261311   5.749   5.688   6.510
20357WAT      O61312   5.961   4.229   3.806
20357WAT     H161313   5.873   4.206   3.848
20357WAT     H261314   5.947   4.302   3.739
20358WAT      O61315   6.924   5.063   9.761
20358WAT     H161316   6.988   5.108   9.698
20358WAT     H261317   6.885   5.131   9.823
20359WAT      O61318   5.481   6.804   5.697
20359WAT     H161319   5.402   6.746   5.716
20359WAT     H261320   5.509   6.793   5.602
20360WAT      O61321   7.133   0.048   4.077
20360WAT     H161322   7.215   0.075   4.128
20360WAT     H261323   7.067   0.123   4.078
20361WAT      O61324   2.286   0.825   5.128
20361WAT     H161325   2.250   0.873   5.048
20361WAT     H261326   2.381   0.801   5.112
20362WAT      O61327   5.735   9.594   0.012
20362WAT     H161328   5.768   9.536   0.086
20362WAT     H261329   5.806   9.601  -0.058
20363WAT      O61330   9.217   8.349   1.139
20363WAT     H161331   9.199   8.408   1.061
20363WAT     H261332   9.145   8.279   1.145
20364WAT      O61333   6.732   0.741   9.641
20364WAT     H161334   6.787   0.727   9.559
20364WAT     H261335   6.715   0.839   9.653
20365WAT      O61336   0.449   6.261   2.115
20365WAT     H161337   0.383   6.312   2.170
20365WAT     H261338   0.507   6.325   2.065
20366WAT      O61339   8.103   5.924   5.695
20366WAT     H161340   8.174   5.859   5.722
20366WAT     H261341   8.022   5.874   5.664
20367WAT      O61342   6.555   7.782   7.449
20367WAT     H161343   6.589   7.707   7.392
20367WAT     H261344   6.624   7.855   7.453
20368WAT      O61345   8.279   0.484   4.965
20368WAT     H161346   8.253   0.495   5.061
20368WAT     H261347   8.360   0.426   4.958
20369WAT      O61348   6.252   7.261   6.979
20369WAT     H161349   6.192   7.182   6.992
20369WAT     H261350   6.204   7.344   7.006
20370WAT      O61351   2.824   0.845   5.936
20370WAT     H161352   2.895   0.838   5.865
20370WAT     H261353   2.822   0.938   5.971
20371WAT      O61354   4.172   3.254   0.059
20371WAT     H161355   4.203   3.340   0.019
20371WAT     H261356   4.204   3.178   0.004
20372WAT      O61357   2.490   6.213   2.987
20372WAT     H161358   2.476   6.307   3.020
20372WAT     H261359   2.540   6.214   2.901
20373WAT      O61360   5.735   4.297   7.241
20373WAT     H161361   5.713   4.391   7.216
20373WAT     H261362   5.829   4.291   7.274
20374WAT      O61363   1.703   8.049   2.815
20374WAT     H161364   1.752   8.122   2.862
20374WAT     H261365   1.607   8.049   2.846
20375WAT      O61366   0.139   3.672   3.649
20375WAT     H161367   0.185   3.730   3.716
20375WAT     H261368   0.049   3.710   3.628
20376WAT      O61369   1.127   7.248   9.878
20376WAT     H161370   1.030   7.227   9.891
20376WAT     H261371   1.153   7.323   9.938
20377WAT      O61372   0.309   9.656   3.740
20377WAT     H161373   0.238   9.724   3.722
20377WAT     H261374   0.276   9.592   3.810
20378WAT      O61375   0.471   4.810   9.711
20378WAT     H161376   0.377   4.779   9.724
20378WAT     H261377   0.474   4.880   9.639
20379WAT      O61378   1.214   2.119   2.502
20379WAT     H161379   1.136   2.057   2.513
20379WAT     H261380   1.183   2.213   2.509
20380WAT      O61381   6.681   0.743   0.232
20380WAT     H161382   6.741   0.796   0.172
20380WAT     H261383   6.716   0.748   0.326
20381WAT      O61384   6.091   3.237   1.404
20381WAT     H161385   6.066   3.144   1.374
20381WAT     H261386   6.009   3.284   1.436
20382WAT      O61387   7.798   0.825   2.295
20382WAT     H161388   7.794   0.924   2.309
20382WAT     H261389   7.798   0.779   2.384
20383WAT      O61390   7.991   6.541   5.145
20383WAT     H161391   7.997   6.577   5.238
20383WAT     H261392   8.075   6.491   5.123
20384WAT      O61393   3.843   4.350   8.604
20384WAT     H161394   3.783   4.270   8.603
20384WAT     H261395   3.825   4.406   8.523
20385WAT      O61396   1.088   1.350   4.677
20385WAT     H161397   1.010   1.297   4.643
20385WAT     H261398   1.166   1.289   4.691
20386WAT      O61399   9.336   9.595   0.086
20386WAT     H161400   9.374   9.581   0.177
20386WAT     H261401   9.241   9.626   0.093
20387WAT      O61402   4.530   3.108   1.052
20387WAT     H161403   4.445   3.081   1.006
20387WAT     H261404   4.571   3.184   1.002
20388WAT      O61405   7.748   5.689   3.884
20388WAT     H161406   7.809   5.611   3.901
20388WAT     H261407   7.658   5.656   3.857
20389WAT      O61408   3.657   3.686   7.556
20389WAT     H161409   3.622   3.600   7.595
20389WAT     H261410   3.605   3.708   7.474
20390WAT      O61411   0.366   4.322   2.522
20390WAT     H161412   0.405   4.317   2.431
20390WAT     H261413   0.308   4.242   2.538
20391WAT      O61414   5.295   2.559   6.689
20391WAT     H161415   5.226   2.517   6.748
20391WAT     H261416   5.316   2.496   6.613
20392WAT      O61417   6.153   3.138   6.482
20392WAT     H161418   6.087   3.187   6.426
20392WAT     H261419   6.243   3.141   6.438
20393WAT      O61420   7.645   2.550   2.771
20393WAT     H161421   7.577   2.574   2.701
20393WAT     H261422   7.708   2.481   2.735
20394WAT      O61423   2.188   2.396   7.695
20394WAT     H161424   2.180   2.368   7.791
20394WAT     H261425   2.123   2.470   7.676
20395WAT      O61426   8.882   3.531   9.175
20395WAT     H161427   8.860   3.485   9.261
20395WAT     H261428   8.940   3.610   9.193
20396WAT      O61429   0.800   6.237   8.855
20396WAT     H161430   0.755   6.161   8.902
20396WAT     H261431   0.735   6.311   8.841
20397WAT      O61432   9.795   5.184   7.062
20397WAT     H161433   9.742   5.122   7.120
20397WAT     H261434   9.749   5.195   6.974
20398WAT      O61435   4.409   0.915   7.835
20398WAT     H161436   4.397   1.003   7.790
20398WAT     H261437   4.504   0.906   7.866
20399WAT      O61438   6.643   2.583   7.617
20399WAT     H161439   6.592   2.638   7.683
20399WAT     H261440   6.739   2.581   7.642
20400WAT      O61441   2.549   8.563   6.548
20400WAT     H161442   2.477   8.544   6.614
20400WAT     H261443   2.599   8.478   6.527
20401WAT      O61444   6.913   6.580   6.749
20401WAT     H161445   6.907   6.611   6.655
20401WAT     H261446   6.939   6.657   6.808
20402WAT      O61447   3.459   8.660   3.592
20402WAT     H161448   3.557   8.645   3.604
20402WAT     H261449   3.415   8.574   3.566
20403WAT      O61450   3.843   0.260   3.305
20403WAT     H161451   3.769   0.210   3.351
20403WAT     H261452   3.867   0.341   3.358
20404WAT      O61453   1.096   4.967   6.965
20404WAT     H161454   1.105   4.871   6.993
20404WAT     H261455   1.059   5.020   7.041
20405WAT      O61456   9.520   3.295   9.076
20405WAT     H161457   9.582   3.315   9.152
20405WAT     H261458   9.513   3.375   9.016
20406WAT      O61459   4.285   0.071   2.652
20406WAT     H161460   4.345   0.003   2.693
20406WAT     H261461   4.196   0.070   2.699
20407WAT      O61462   5.970   6.534   0.438
20407WAT     H161463   5.996   6.603   0.505
20407WAT     H261464   6.028   6.544   0.357
20408WAT      O61465   9.830   7.471   3.000
20408WAT     H161466   9.862   7.536   2.931
20408WAT     H261467   9.881   7.483   3.084
20409WAT      O61468   7.195   3.050   3.233
20409WAT     H161469   7.197   2.972   3.170
20409WAT     H261470   7.117   3.042   3.295
20410WAT      O61471   1.034   7.679   6.347
20410WAT     H161472   0.979   7.604   6.310
20410WAT     H261473   1.023   7.760   6.290
20411WAT      O61474   1.872   6.817   2.654
20411WAT     H161475   1.928   6.812   2.571
20411WAT     H261476   1.781   6.852   2.630
20412WAT      O61477   9.502   1.684   4.525
20412WAT     H161478   9.449   1.602   4.504
20412WAT     H261479   9.530   1.729   4.440
20413WAT      O61480   1.935   5.074   4.493
20413WAT     H161481   1.894   5.022   4.417
20413WAT     H261482   1.985   5.012   4.553
20414WAT      O61483   0.024   4.873   7.195
20414WAT     H161484   0.051   4.884   7.291
20414WAT     H261485   0.081   4.932   7.138
20415WAT      O61486   8.270   0.280   1.357
20415WAT     H161487   8.229   0.190   1.370
20415WAT     H261488   8.335   0.275   1.281
20416WAT      O61489   7.978   0.200   7.705
20416WAT     H161490   7.880   0.185   7.717
20416WAT     H261491   8.007   0.277   7.763
20417WAT      O61492   8.161   7.057   6.952
20417WAT     H161493   8.101   7.135   6.968
20417WAT     H261494   8.201   7.064   6.861
20418WAT      O61495   0.279   8.076   8.447
20418WAT     H161496   0.297   8.054   8.543
20418WAT     H261497   0.207   8.016   8.412
20419WAT      O61498   9.658   5.355   3.676
20419WAT     H161499   9.593   5.395   3.741
20419WAT     H261500   9.741   5.411   3.673
20420WAT      O61501   3.019   0.439   1.414
20420WAT     H161502   3.018   0.509   1.486
20420WAT     H261503   3.031   0.349   1.455
20421WAT      O61504   1.838   1.806   3.913
20421WAT     H161505   1.854   1.732   3.979
20421WAT     H261506   1.921   1.861   3.903
20422WAT      O61507   9.260   3.582   5.477
20422WAT     H161508   9.273   3.533   5.563
20422WAT     H261509   9.162   3.589   5.458
20423WAT      O61510   5.227   2.675   1.703
20423WAT     H161511   5.269   2.759   1.669
20423WAT     H261512   5.198   2.618   1.626
20424WAT      O61513   5.967   3.819   8.893
20424WAT     H161514   6.025   3.755   8.842
20424WAT     H261515   5.905   3.865   8.829
20425WAT      O61516   3.841   8.867   1.872
20425WAT     H161517   3.927   8.909   1.901
20425WAT     H261518   3.802   8.816   1.949
20426WAT      O61519   3.841   0.428   2.441
20426WAT     H161520   3.849   0.359   2.369
20426WAT     H261521   3.932   0.452   2.475
20427WAT      O61522   3.553   8.223   6.562
20427WAT     H161523   3.548   8.158   6.486
20427WAT     H261524   3.636   8.206   6.614
20428WAT      O61525   8.857   8.594   9.593
20428WAT     H161526   8.771   8.613   9.546
20428WAT     H261527   8.884   8.499   9.575
20429WAT      O61528   3.737   7.224   6.107
20429WAT     H161529   3.665   7.292   6.093
20429WAT     H261530   3.705   7.153   6.170
20430WAT      O61531   2.320   1.149   2.612
20430WAT     H161532   2.401   1.143   2.671
20430WAT     H261533   2.339   1.207   2.534
20431WAT      O61534   3.311   4.741   8.411
20431WAT     H161535   3.302   4.707   8.317
20431WAT     H261536   3.221   4.762   8.448
20432WAT      O61537   0.250   2.887   2.466
20432WAT     H161538   0.227   2.898   2.369
20432WAT     H261539   0.194   2.815   2.505
20433WAT      O61540   1.589   7.226   6.305
20433WAT     H161541   1.681   7.194   6.283
20433WAT     H261542   1.545   7.260   6.222
20434WAT      O61543   9.065   5.055   9.558
20434WAT     H161544   9.090   4.994   9.483
20434WAT     H261545   9.055   5.149   9.523
20435WAT      O61546   0.377   1.537   1.718
20435WAT     H161547   0.423   1.449   1.735
20435WAT     H261548   0.294   1.521   1.665
20436WAT      O61549   6.953   9.824   8.159
20436WAT     H161550   6.865   9.861   8.189
20436WAT     H261551   6.974   9.860   8.068
20437WAT      O61552   6.881   1.028   9.124
20437WAT     H161553   6.839   1.111   9.088
20437WAT     H261554   6.810   0.964   9.153
20438WAT      O61555   3.161   0.428   9.866
20438WAT     H161556   3.201   0.422   9.958
20438WAT     H261557   3.210   0.368   9.804
20439WAT      O61558   6.612   5.913   0.841
20439WAT     H161559   6.552   5.838   0.811
20439WAT     H261560   6.575   6.000   0.808
20440WAT      O61561   5.256   2.602   3.955
20440WAT     H161562   5.259   2.572   3.859
20440WAT     H261563   5.188   2.675   3.965
20441WAT      O61564   5.544   9.483   2.888
20441WAT     H161565   5.611   9.466   2.961
20441WAT     H261566   5.555   9.415   2.816
20442WAT      O61567   7.799   8.847   7.998
20442WAT     H161568   7.714   8.834   8.049
20442WAT     H261569   7.844   8.931   8.030
20443WAT      O61570   3.714   7.795   3.391
20443WAT     H161571   3.667   7.773   3.305
20443WAT     H261572   3.797   7.740   3.398
20444WAT      O61573   3.128   7.723   2.993
20444WAT     H161574   3.125   7.694   3.089
20444WAT     H261575   3.100   7.819   2.986
20445WAT      O61576   3.610   2.494   4.285
20445WAT     H161577   3.543   2.508   4.357
20445WAT     H261578   3.568   2.444   4.209
20446WAT      O61579   1.671   2.135   2.729
20446WAT     H161580   1.706   2.205   2.666
20446WAT     H261581   1.746   2.073   2.754
20447WAT      O61582   1.936   9.515   7.227
20447WAT     H161583   1.866   9.495   7.296
20447WAT     H261584   2.026   9.494   7.264
20448WAT      O61585   4.677   3.896   6.970
20448WAT     H161586   4.612   3.822   6.951
20448WAT     H261587   4.645   3.980   6.927
20449WAT      O61588   2.423   8.727   2.954
20449WAT     H161589   2.403   8.782   2.873
20449WAT     H261590   2.365   8.646   2.955
20450WAT      O61591   6.341   6.397   3.435
20450WAT     H161592   6.366   6.492   3.452
20450WAT     H261593   6.410   6.355   3.377
20451WAT      O61594   0.470   6.405   8.871
20451WAT     H161595   0.500   6.399   8.966
20451WAT     H261596   0.375   6.372   8.864
20452WAT      O61597   3.432   0.262   0.221
20452WAT     H161598   3.486   0.248   0.304
20452WAT     H261599   3.454   0.190   0.155
20453WAT      O61600   4.592   5.934   8.839
20453WAT     H161601   4.628   6.012   8.788
20453WAT     H261602   4.666   5.868   8.855
20454WAT      O61603   6.596   8.293   8.679
20454WAT     H161604   6.682   8.270   8.724
20454WAT     H261605   6.531   8.329   8.746
20455WAT      O61606   1.980   2.585   7.677
20455WAT     H161607   2.014   2.642   7.752
20455WAT     H261608   1.890   2.549   7.702
20456WAT      O61609   5.764   6.537   3.661
20456WAT     H161610   5.774   6.515   3.758
20456WAT     H261611   5.843   6.502   3.611
20457WAT      O61612   7.117   2.427   1.174
20457WAT     H161613   7.213   2.408   1.196
20457WAT     H261614   7.068   2.341   1.160
20458WAT      O61615   6.548   4.722   3.761
20458WAT     H161616   6.600   4.807   3.769
20458WAT     H261617   6.520   4.708   3.666
20459WAT      O61618   2.435   4.594   2.820
20459WAT     H161619   2.512   4.647   2.856
20459WAT     H261620   2.383   4.649   2.756
20460WAT      O61621   3.113   2.447   4.974
20460WAT     H161622   3.209   2.423   4.958
20460WAT     H261623   3.057   2.412   4.899
20461WAT      O61624   1.346   1.957   5.994
20461WAT     H161625   1.380   1.916   5.909
20461WAT     H261626   1.407   1.933   6.069
20462WAT      O61627   6.331   9.698   3.483
20462WAT     H161628   6.304   9.770   3.547
20462WAT     H261629   6.314   9.609   3.524
20463WAT      O61630   0.526   3.638   9.605
20463WAT     H161631   0.590   3.715   9.601
20463WAT     H261632   0.506   3.617   9.701
20464WAT      O61633   1.567   9.829   1.183
20464WAT     H161634   1.554   9.927   1.199
20464WAT     H261635   1.633   9.816   1.108
20465WAT      O61636   2.026   2.035   1.730
20465WAT     H161637   1.929   2.032   1.754
20465WAT     H261638   2.034   2.052   1.631
20466WAT      O61639   3.916   0.079   3.593
20466WAT     H161640   3.870   0.164   3.566
20466WAT     H261641   3.889   0.055   3.686
20467WAT      O61642   6.992   4.975   8.788
20467WAT     H161643   6.972   4.922   8.870
20467WAT     H261644   6.927   5.050   8.780
20468WAT      O61645   8.878   0.501   7.192
20468WAT     H161646   8.965   0.533   7.152
20468WAT     H261647   8.863   0.406   7.166
20469WAT      O61648   4.377   5.328   9.019
20469WAT     H161649   4.448   5.386   9.060
20469WAT     H261650   4.410   5.294   8.930
20470WAT      O61651   5.732   4.830   0.543
20470WAT     H161652   5.825   4.860   0.564
20470WAT     H261653   5.730   4.731   0.532
20471WAT      O61654   6.609   0.706   2.712
20471WAT     H161655   6.631   0.704   2.809
20471WAT     H261656   6.652   0.628   2.666
20472WAT      O61657   5.117   3.071   7.235
20472WAT     H161658   5.168   2.988   7.256
20472WAT     H261659   5.155   3.147   7.289
20473WAT      O61660   7.964   5.811   8.873
20473WAT     H161661   8.030   5.874   8.914
20473WAT     H261662   7.872   5.837   8.899
20474WAT      O61663   9.649   2.073   2.937
20474WAT     H161664   9.551   2.090   2.926
20474WAT     H261665   9.664   1.975   2.951
20475WAT      O61666   0.489   0.435   6.024
20475WAT     H161667   0.573   0.388   6.049
20475WAT     H261668   0.411   0.377   6.044
20476WAT      O61669   9.686   1.192   6.904
20476WAT     H161670   9.700   1.188   6.805
20476WAT     H261671   9.654   1.103   6.936
20477WAT      O61672   3.498   4.429   3.460
20477WAT     H161673   3.578   4.481   3.491
20477WAT     H261674   3.521   4.332   3.457
20478WAT      O61675   4.388   4.216   6.373
20478WAT     H161676   4.295   4.182   6.357
20478WAT     H261677   4.393   4.258   6.464
20479WAT      O61678   6.577   0.265   3.591
20479WAT     H161679   6.544   0.173   3.570
20479WAT     H261680   6.648   0.259   3.661
20480WAT      O61681   2.073   8.917   5.908
20480WAT     H161682   2.073   8.843   5.842
20480WAT     H261683   1.980   8.953   5.919
20481WAT      O61684   2.520   4.500   1.791
20481WAT     H161685   2.577   4.421   1.768
20481WAT     H261686   2.436   4.469   1.836
20482WAT      O61687   4.883   9.769   9.822
20482WAT     H161688   4.859   9.677   9.790
20482WAT     H261689   4.809   9.832   9.801
20483WAT      O61690   7.417   1.458   3.634
20483WAT     H161691   7.512   1.490   3.628
20483WAT     H261692   7.369   1.484   3.550
20484WAT      O61693   7.600   4.181   4.566
20484WAT     H161694   7.686   4.208   4.610
20484WAT     H261695   7.608   4.089   4.529
20485WAT      O61696   8.128   4.251   2.339
20485WAT     H161697   8.134   4.307   2.256
20485WAT     H261698   8.132   4.310   2.419
20486WAT      O61699   8.758   6.528   6.827
20486WAT     H161700   8.797   6.520   6.918
20486WAT     H261701   8.778   6.619   6.790
20487WAT      O61702   7.657   9.325   3.495
20487WAT     H161703   7.749   9.361   3.477
20487WAT     H261704   7.664   9.228   3.517
20488WAT      O61705   9.299   4.203   3.978
20488WAT     H161706   9.271   4.133   4.044
20488WAT     H261707   9.396   4.221   3.987
20489WAT      O61708   9.170   6.667   7.920
20489WAT     H161709   9.220   6.730   7.980
20489WAT     H261710   9.098   6.622   7.973
20490WAT      O61711   4.278   5.933   1.995
20490WAT     H161712   4.247   6.028   1.988
20490WAT     H261713   4.219   5.884   2.059
20491WAT      O61714   8.335   9.035   4.073
20491WAT     H161715   8.246   8.995   4.092
20491WAT     H261716   8.407   8.974   4.108
20492WAT      O61717   3.116   6.174   9.386
20492WAT     H161718   3.054   6.195   9.462
20492WAT     H261719   3.131   6.256   9.331
20493WAT      O61720   6.187   4.022   2.682
20493WAT     H161721   6.281   3.988   2.676
20493WAT     H261722   6.132   3.960   2.738
20494WAT      O61723   7.394   4.546   8.964
20494WAT     H161724   7.381   4.452   8.933
20494WAT     H261725   7.352   4.558   9.054
20495WAT      O61726   9.116   2.033   8.035
20495WAT     H161727   9.131   2.044   8.133
20495WAT     H261728   9.142   1.941   8.007
20496WAT      O61729   2.440   6.950   5.909
20496WAT     H161730   2.481   6.859   5.904
20496WAT     H261731   2.503   7.017   5.870
20497WAT      O61732   9.479   5.861   7.878
20497WAT     H161733   9.461   5.815   7.791
20497WAT     H261734   9.526   5.798   7.939
20498WAT      O61735   0.329   2.182   2.688
20498WAT     H161736   0.285   2.231   2.613
20498WAT     H261737   0.276   2.101   2.712
20499WAT      O61738   2.960   1.297   0.136
20499WAT     H161739   2.908   1.217   0.107
20499WAT     H261740   2.957   1.366   0.064
20500WAT      O61741   6.004   4.462   0.576
20500WAT     H161742   5.984   4.427   0.667
20500WAT     H261743   6.072   4.535   0.582
20501WAT      O61744   2.596   7.577   0.269
20501WAT     H161745   2.509   7.558   0.314
20501WAT     H261746   2.580   7.590   0.171
20502WAT      O61747   0.058   2.957   8.317
20502WAT     H161748   0.150   2.917   8.320
20502WAT     H261749  -0.010   2.885   8.330
20503WAT      O61750   1.227   5.252   2.618
20503WAT     H161751   1.260   5.345   2.633
20503WAT     H261752   1.304   5.189   2.621
20504WAT      O61753   1.114   6.135   7.892
20504WAT     H161754   1.055   6.092   7.824
20504WAT     H261755   1.122   6.233   7.872
20505WAT      O61756   9.177   2.906   0.393
20505WAT     H161757   9.122   2.927   0.474
20505WAT     H261758   9.118   2.874   0.319
20506WAT      O61759   3.683   9.578   2.169
20506WAT     H161760   3.669   9.605   2.265
20506WAT     H261761   3.626   9.636   2.110
20507WAT      O61762   1.383   0.687   1.069
20507WAT     H161763   1.448   0.643   1.131
20507WAT     H261764   1.299   0.708   1.118
20508WAT      O61765   2.016   3.786   6.937
20508WAT     H161766   1.944   3.737   6.887
20508WAT     H261767   2.014   3.882   6.911
20509WAT      O61768   2.489   9.482   7.378
20509WAT     H161769   2.495   9.409   7.445
20509WAT     H261770   2.559   9.469   7.308
20510WAT      O61771   6.227   0.426   9.580
20510WAT     H161772   6.244   0.517   9.544
20510WAT     H261773   6.262   0.357   9.517
20511WAT      O61774   1.835   4.732   6.493
20511WAT     H161775   1.894   4.794   6.545
20511WAT     H261776   1.884   4.699   6.412
20512WAT      O61777   7.596   4.802   9.394
20512WAT     H161778   7.653   4.742   9.337
20512WAT     H261779   7.654   4.846   9.463
20513WAT      O61780   0.623   9.476   9.428
20513WAT     H161781   0.532   9.435   9.438
20513WAT     H261782   0.658   9.502   9.518
20514WAT      O61783   5.575   0.665   5.352
20514WAT     H161784   5.630   0.665   5.436
20514WAT     H261785   5.480   0.685   5.374
20515WAT      O61786   4.444   1.400   6.822
20515WAT     H161787   4.482   1.312   6.791
20515WAT     H261788   4.502   1.437   6.894
20516WAT      O61789   6.513   9.101   5.311
20516WAT     H161790   6.512   9.067   5.405
20516WAT     H261791   6.574   9.044   5.256
20517WAT      O61792   2.956   9.577   2.995
20517WAT     H161793   2.934   9.526   2.912
20517WAT     H261794   2.881   9.638   3.018
20518WAT      O61795   8.187   8.679   6.921
20518WAT     H161796   8.172   8.763   6.868
20518WAT     H261797   8.267   8.690   6.979
20519WAT      O61798   4.180   2.682   5.658
20519WAT     H161799   4.101   2.715   5.606
20519WAT     H261800   4.252   2.654   5.594
20520WAT      O61801   9.580   0.109   5.744
20520WAT     H161802   9.612   0.117   5.838
20520WAT     H261803   9.646   0.055   5.691
20521WAT      O61804   4.153   3.522   1.554
20521WAT     H161805   4.235   3.464   1.558
20521WAT     H261806   4.174   3.612   1.593
20522WAT      O61807   5.975   3.175   4.323
20522WAT     H161808   6.043   3.244   4.299
20522WAT     H261809   6.020   3.086   4.330
20523WAT      O61810   4.202   6.059   0.210
20523WAT     H161811   4.197   6.039   0.308
20523WAT     H261812   4.289   6.103   0.189
20524WAT      O61813   0.861   2.066   7.048
20524WAT     H161814   0.851   1.982   6.995
20524WAT     H261815   0.958   2.085   7.064
20525WAT      O61816   7.080   5.827   8.238
20525WAT     H161817   7.107   5.880   8.318
20525WAT     H261818   7.131   5.742   8.235
20526WAT      O61819   4.957   6.090   7.241
20526WAT     H161820   4.944   6.175   7.292
20526WAT     H261821   4.876   6.072   7.186
20527WAT      O61822   2.291   7.151   1.863
20527WAT     H161823   2.342   7.174   1.779
20527WAT     H261824   2.355   7.119   1.933
20528WAT      O61825   9.628   9.774   8.346
20528WAT     H161826   9.595   9.679   8.344
20528WAT     H261827   9.630   9.811   8.253
20529WAT      O61828   6.394   5.299   6.172
20529WAT     H161829   6.335   5.379   6.180
20529WAT     H261830   6.354   5.223   6.223
20530WAT      O61831   2.617   8.342   2.351
20530WAT     H161832   2.577   8.258   2.387
20530WAT     H261833   2.556   8.419   2.371
20531WAT      O61834   4.474   5.713   7.906
20531WAT     H161835   4.566   5.675   7.896
20531WAT     H261836   4.461   5.744   8.001
20532WAT      O61837   1.424   3.022   0.407
20532WAT     H161838   1.357   3.095   0.395
20532WAT     H261839   1.436   3.003   0.504
20533WAT      O61840   2.516   8.456   1.421
20533WAT     H161841   2.538   8.448   1.324
20533WAT     H261842   2.515   8.365   1.462
20534WAT      O61843   5.067   3.803   1.786
20534WAT     H161844   5.012   3.887   1.785
20534WAT     H261845   5.016   3.729   1.742
20535WAT      O61846   8.255   0.848   2.163
20535WAT     H161847   8.258   0.748   2.152
20535WAT     H261848   8.227   0.890   2.077
20536WAT      O61849   0.614   8.005   2.512
20536WAT     H161850   0.656   7.921   2.477
20536WAT     H261851   0.576   7.987   2.603
20537WAT      O61852   3.403   5.496   3.134
20537WAT     H161853   3.398   5.550   3.217
20537WAT     H261854   3.487   5.517   3.085
20538WAT      O61855   3.310   7.814   4.407
20538WAT     H161856   3.329   7.909   4.432
20538WAT     H261857   3.362   7.791   4.325
20539WAT      O61858   0.564   8.643   2.717
20539WAT     H161859   0.546   8.609   2.809
20539WAT     H261860   0.577   8.742   2.721
20540WAT      O61861   2.268   0.552   8.798
20540WAT     H161862   2.281   0.517   8.891
20540WAT     H261863   2.312   0.642   8.790
20541WAT      O61864   1.585   3.707   8.285
20541WAT     H161865   1.575   3.637   8.356
20541WAT     H261866   1.641   3.672   8.210
20542WAT      O61867   9.741   1.992   8.347
20542WAT     H161868   9.728   1.916   8.283
20542WAT     H261869   9.663   2.055   8.340
20543WAT      O61870   2.070   3.639   4.463
20543WAT     H161871   2.094   3.549   4.502
20543WAT     H261872   1.972   3.641   4.442
20544WAT      O61873   0.715   8.752   8.500
20544WAT     H161874   0.760   8.787   8.582
20544WAT     H261875   0.766   8.673   8.466
20545WAT      O61876   9.151   9.027   6.266
20545WAT     H161877   9.135   9.106   6.207
20545WAT     H261878   9.067   8.974   6.275
20546WAT      O61879   5.185   2.512   3.715
20546WAT     H161880   5.151   2.547   3.627
20546WAT     H261881   5.128   2.435   3.744
20547WAT      O61882   4.369   8.962   8.869
20547WAT     H161883   4.380   8.968   8.968
20547WAT     H261884   4.459   8.964   8.826
20548WAT      O61885   0.974   7.834   4.345
20548WAT     H161886   1.041   7.764   4.368
20548WAT     H261887   1.016   7.924   4.351
20549WAT      O61888   2.203   3.681   4.201
20549WAT     H161889   2.148   3.681   4.285
20549WAT     H261890   2.172   3.607   4.141
20550WAT      O61891   4.506   6.580   7.520
20550WAT     H161892   4.591   6.578   7.572
20550WAT     H261893   4.513   6.521   7.440
20551WAT      O61894   5.629   9.459   8.435
20551WAT     H161895   5.531   9.462   8.416
20551WAT     H261896   5.659   9.364   8.444
20552WAT      O61897   5.065   9.493   4.582
20552WAT     H161898   4.970   9.466   4.569
20552WAT     H261899   5.071   9.593   4.581
20553WAT      O61900   1.210   5.866   8.314
20553WAT     H161901   1.293   5.915   8.343
20553WAT     H261902   1.134   5.894   8.372
20554WAT      O61903   9.044   9.222   9.169
20554WAT     H161904   9.114   9.290   9.149
20554WAT     H261905   9.066   9.174   9.254
20555WAT      O61906   2.748   6.957   8.970
20555WAT     H161907   2.658   6.990   8.995
20555WAT     H261908   2.744   6.859   8.949
20556WAT      O61909   3.360   8.577   2.853
20556WAT     H161910   3.266   8.585   2.820
20556WAT     H261911   3.362   8.516   2.933
20557WAT      O61912   4.515   9.372   3.768
20557WAT     H161913   4.450   9.331   3.703
20557WAT     H261914   4.470   9.444   3.819
20558WAT      O61915   2.884   4.409   8.674
20558WAT     H161916   2.951   4.421   8.600
20558WAT     H261917   2.922   4.445   8.759
20559WAT      O61918   6.787   8.572   2.047
20559WAT     H161919   6.813   8.600   2.139
20559WAT     H261920   6.786   8.651   1.986
20560WAT      O61921   5.833   5.520   5.955
20560WAT     H161922   5.853   5.617   5.971
20560WAT     H261923   5.846   5.468   6.039
20561WAT      O61924   2.936   2.648   4.210
20561WAT     H161925   2.944   2.578   4.281
20561WAT     H261926   3.025   2.660   4.165
20562WAT      O61927   1.329   2.322   0.608
20562WAT     H161928   1.306   2.225   0.612
20562WAT     H261929   1.287   2.369   0.685
20563WAT      O61930   7.783   2.702   5.184
20563WAT     H161931   7.851   2.765   5.146
20563WAT     H261932   7.707   2.693   5.120
20564WAT      O61933   3.762   7.837   4.459
20564WAT     H161934   3.703   7.757   4.449
20564WAT     H261935   3.706   7.919   4.470
20565WAT      O61936   0.097   6.411   9.765
20565WAT     H161937   0.007   6.401   9.807
20565WAT     H261938   0.104   6.350   9.686
20566WAT      O61939   9.568   9.648   9.571
20566WAT     H161940   9.567   9.666   9.670
20566WAT     H261941   9.561   9.549   9.556
20567WAT      O61942   6.032   2.324   3.367
20567WAT     H161943   6.096   2.276   3.427
20567WAT     H261944   6.003   2.263   3.293
20568WAT      O61945   0.375   0.448   0.068
20568WAT     H161946   0.305   0.453  -0.003
20568WAT     H261947   0.359   0.519   0.136
20569WAT      O61948   3.833   6.116   1.576
20569WAT     H161949   3.912   6.127   1.637
20569WAT     H261950   3.751   6.097   1.629
20570WAT      O61951   6.245   7.692   6.827
20570WAT     H161952   6.335   7.661   6.797
20570WAT     H261953   6.226   7.782   6.788
20571WAT      O61954   3.515   1.688   5.385
20571WAT     H161955   3.483   1.674   5.479
20571WAT     H261956   3.508   1.785   5.362
20572WAT      O61957   5.915   7.077   2.410
20572WAT     H161958   5.958   7.164   2.434
20572WAT     H261959   5.823   7.074   2.448
20573WAT      O61960   1.151   0.201   8.757
20573WAT     H161961   1.068   0.145   8.749
20573WAT     H261962   1.216   0.156   8.818
20574WAT      O61963   2.196   3.839   7.211
20574WAT     H161964   2.128   3.840   7.137
20574WAT     H261965   2.287   3.852   7.172
20575WAT      O61966   6.772   3.280   4.917
20575WAT     H161967   6.743   3.228   4.998
20575WAT     H261968   6.695   3.330   4.880
20576WAT      O61969   3.310   7.073   5.107
20576WAT     H161970   3.303   7.053   5.205
20576WAT     H261971   3.243   7.018   5.057
20577WAT      O61972   3.769   3.275   8.629
20577WAT     H161973   3.781   3.294   8.726
20577WAT     H261974   3.794   3.180   8.610
20578WAT      O61975   0.421   5.326   9.612
20578WAT     H161976   0.427   5.229   9.586
20578WAT     H261977   0.334   5.364   9.579
20579WAT      O61978   6.608   4.093   3.879
20579WAT     H161979   6.510   4.105   3.861
20579WAT     H261980   6.620   4.031   3.956
20580WAT      O61981   5.191   5.327   2.275
20580WAT     H161982   5.287   5.352   2.288
20580WAT     H261983   5.141   5.405   2.237
20581WAT      O61984   1.834   7.003   0.573
20581WAT     H161985   1.842   6.904   0.567
20581WAT     H261986   1.864   7.044   0.487
20582WAT      O61987   5.632   7.546   2.502
20582WAT     H161988   5.705   7.499   2.453
20582WAT     H261989   5.565   7.479   2.534
20583WAT      O61990   0.728   9.508   3.659
20583WAT     H161991   0.820   9.543   3.671
20583WAT     H261992   0.726   9.441   3.585
20584WAT      O61993   5.933   4.807   2.184
20584WAT     H161994   5.963   4.794   2.278
20584WAT     H261995   5.895   4.898   2.173
20585WAT      O61996   0.657   9.553   4.790
20585WAT     H161997   0.670   9.623   4.860
20585WAT     H261998   0.655   9.596   4.700
20586WAT      O61999   5.415   7.973   9.317
20586WAT     H162000   5.507   7.977   9.278
20586WAT     H262001   5.412   7.904   9.389
20587WAT      O62002   7.544   6.774   1.427
20587WAT     H162003   7.579   6.808   1.340
20587WAT     H262004   7.552   6.846   1.496
20588WAT      O62005   7.051   1.786   1.833
20588WAT     H162006   6.995   1.864   1.862
20588WAT     H262007   7.146   1.815   1.822
20589WAT      O62008   2.681   4.326   4.279
20589WAT     H162009   2.619   4.360   4.208
20589WAT     H262010   2.750   4.267   4.237
20590WAT      O62011   1.283   3.266   3.557
20590WAT     H162012   1.195   3.275   3.604
20590WAT     H262013   1.295   3.342   3.494
20591WAT      O62014   2.350   6.750   0.872
20591WAT     H162015   2.387   6.658   0.887
20591WAT     H262016   2.415   6.818   0.905
20592WAT      O62017   9.865   7.480   6.239
20592WAT     H162018   9.816   7.567   6.232
20592WAT     H262019   9.846   7.425   6.157
20593WAT      O62020   1.295   0.187   3.431
20593WAT     H162021   1.267   0.266   3.486
20593WAT     H262022   1.271   0.203   3.336
20594WAT      O62023   7.000   2.478   4.117
20594WAT     H162024   6.908   2.514   4.103
20594WAT     H262025   7.067   2.552   4.112
20595WAT      O62026   8.216   8.912   6.096
20595WAT     H162027   8.222   8.882   6.191
20595WAT     H262028   8.140   8.865   6.051
20596WAT      O62029   2.533   5.685   6.154
20596WAT     H162030   2.468   5.652   6.223
20596WAT     H262031   2.504   5.774   6.120
20597WAT      O62032   0.983   6.290   9.516
20597WAT     H162033   0.910   6.355   9.494
20597WAT     H262034   1.006   6.298   9.613
20598WAT      O62035   4.405   6.170   1.316
20598WAT     H162036   4.371   6.164   1.410
20598WAT     H262037   4.446   6.082   1.290
20599WAT      O62038   6.934   1.004   0.735
20599WAT     H162039   6.930   1.104   0.735
20599WAT     H262040   6.841   0.967   0.738
20600WAT      O62041   7.120   1.028   7.226
20600WAT     H162042   7.110   0.964   7.150
20600WAT     H262043   7.038   1.023   7.284
20601WAT      O62044   3.739   0.950   2.918
20601WAT     H162045   3.761   1.004   3.000
20601WAT     H262046   3.778   0.858   2.928
20602WAT      O62047   1.850   0.421   1.939
20602WAT     H162048   1.860   0.377   2.028
20602WAT     H262049   1.935   0.467   1.915
20603WAT      O62050   0.263   0.905   0.077
20603WAT     H162051   0.319   0.868   0.002
20603WAT     H262052   0.308   0.985   0.116
20604WAT      O62053   1.155   9.428   8.470
20604WAT     H162054   1.090   9.427   8.546
20604WAT     H262055   1.230   9.364   8.490
20605WAT      O62056   1.560   0.438   3.161
20605WAT     H162057   1.503   0.479   3.232
20605WAT     H262058   1.508   0.434   3.075
20606WAT      O62059   7.411   8.949   3.980
20606WAT     H162060   7.332   9.008   3.998
20606WAT     H262061   7.419   8.881   4.053
20607WAT      O62062   4.331   5.563   7.039
20607WAT     H162063   4.241   5.606   7.031
20607WAT     H262064   4.325   5.468   7.008
20608WAT      O62065   3.820   3.672   9.649
20608WAT     H162066   3.879   3.595   9.623
20608WAT     H262067   3.855   3.756   9.608
20609WAT      O62068   4.823   3.880   9.763
20609WAT     H162069   4.827   3.822   9.844
20609WAT     H262070   4.914   3.885   9.721
20610WAT      O62071   7.389   6.620   9.025
20610WAT     H162072   7.310   6.625   9.087
20610WAT     H262073   7.357   6.611   8.931
20611WAT      O62074   7.380   9.129   2.308
20611WAT     H162075   7.286   9.128   2.272
20611WAT     H262076   7.395   9.215   2.357
20612WAT      O62077   2.778   5.219   8.112
20612WAT     H162078   2.813   5.135   8.071
20612WAT     H262079   2.679   5.211   8.127
20613WAT      O62080   3.241   5.529   8.689
20613WAT     H162081   3.207   5.619   8.715
20613WAT     H262082   3.227   5.515   8.591
20614WAT      O62083   0.593   9.710   6.285
20614WAT     H162084   0.560   9.618   6.306
20614WAT     H262085   0.691   9.716   6.304
20615WAT      O62086   5.198   5.454   8.762
20615WAT     H162087   5.148   5.540   8.755
20615WAT     H262088   5.254   5.440   8.680
20616WAT      O62089   8.092   4.619   7.250
20616WAT     H162090   8.082   4.677   7.169
20616WAT     H262091   8.181   4.636   7.293
20617WAT      O62092   2.590   7.737   4.555
20617WAT     H162093   2.534   7.757   4.475
20617WAT     H262094   2.656   7.811   4.568
20618WAT      O62095   2.600   0.528   6.482
20618WAT     H162096   2.696   0.548   6.463
20618WAT     H262097   2.556   0.610   6.518
20619WAT      O62098   9.442   5.093   3.925
20619WAT     H162099   9.390   5.008   3.927
20619WAT     H262100   9.381   5.170   3.903
20620WAT      O62101   5.649   1.289   7.762
20620WAT     H162102   5.641   1.276   7.663
20620WAT     H262103   5.583   1.358   7.792
20621WAT      O62104   2.054   5.096   3.521
20621WAT     H162105   1.967   5.056   3.549
20621WAT     H262106   2.075   5.067   3.427
20622WAT      O62107   3.989   7.945   7.093
20622WAT     H162108   3.985   8.042   7.072
20622WAT     H262109   3.942   7.927   7.179
20623WAT      O62110   3.314   5.664   7.201
20623WAT     H162111   3.263   5.579   7.191
20623WAT     H262112   3.407   5.643   7.233
20624WAT      O62113   8.598   1.584   5.543
20624WAT     H162114   8.602   1.572   5.642
20624WAT     H262115   8.666   1.525   5.500
20625WAT      O62116   9.098   7.831   9.291
20625WAT     H162117   9.056   7.753   9.337
20625WAT     H262118   9.193   7.840   9.323
20626WAT      O62119   7.217   6.835   2.143
20626WAT     H162120   7.275   6.886   2.080
20626WAT     H262121   7.243   6.738   2.142
20627WAT      O62122   2.500   6.430   3.398
20627WAT     H162123   2.485   6.368   3.476
20627WAT     H262124   2.587   6.407   3.354
20628WAT      O62125   9.808   7.673   0.808
20628WAT     H162126   9.903   7.703   0.810
20628WAT     H262127   9.799   7.597   0.743
20629WAT      O62128   3.317   8.897   5.633
20629WAT     H162129   3.379   8.861   5.563
20629WAT     H262130   3.367   8.912   5.718
20630WAT      O62131   7.948   6.078   2.263
20630WAT     H162132   7.939   6.049   2.359
20630WAT     H262133   7.868   6.047   2.212
20631WAT      O62134   5.200   3.653   3.629
20631WAT     H162135   5.243   3.621   3.713
20631WAT     H262136   5.223   3.591   3.554
20632WAT      O62137   1.977   9.051   4.264
20632WAT     H162138   2.012   8.996   4.340
20632WAT     H262139   1.911   8.997   4.212
20633WAT      O62140   6.088   6.722   0.628
20633WAT     H162141   6.063   6.806   0.677
20633WAT     H262142   6.170   6.739   0.573
20634WAT      O62143   3.786   0.354   4.289
20634WAT     H162144   3.849   0.276   4.293
20634WAT     H262145   3.833   0.437   4.318
20635WAT      O62146   2.591   2.705   2.730
20635WAT     H162147   2.580   2.638   2.803
20635WAT     H262148   2.664   2.676   2.669
20636WAT      O62149   7.082   3.736   5.502
20636WAT     H162150   7.170   3.765   5.539
20636WAT     H262151   7.024   3.816   5.487
20637WAT      O62152   4.604   8.331   1.599
20637WAT     H162153   4.647   8.287   1.519
20637WAT     H262154   4.584   8.262   1.668
20638WAT      O62155   6.922   2.208   2.681
20638WAT     H162156   6.944   2.295   2.636
20638WAT     H262157   6.987   2.192   2.756
20639WAT      O62158   7.494   9.513   4.199
20639WAT     H162159   7.476   9.430   4.145
20639WAT     H262160   7.501   9.591   4.137
20640WAT      O62161   8.860   0.819   0.268
20640WAT     H162162   8.835   0.733   0.312
20640WAT     H262163   8.782   0.882   0.269
20641WAT      O62164   8.482   7.046   9.666
20641WAT     H162165   8.485   7.142   9.694
20641WAT     H262166   8.478   7.040   9.566
20642WAT      O62167   2.113   1.932   3.877
20642WAT     H162168   2.117   2.029   3.903
20642WAT     H262169   2.206   1.896   3.867
20643WAT      O62170   6.162   5.577   3.991
20643WAT     H162171   6.205   5.489   3.972
20643WAT     H262172   6.064   5.570   3.976
20644WAT      O62173   7.418   6.097   0.638
20644WAT     H162174   7.360   6.016   0.645
20644WAT     H262175   7.360   6.177   0.619
20645WAT      O62176   0.187   4.093   9.705
20645WAT     H162177   0.158   4.118   9.797
20645WAT     H262178   0.192   4.175   9.648
20646WAT      O62179   8.265   7.479   8.924
20646WAT     H162180   8.166   7.474   8.913
20646WAT     H262181   8.295   7.575   8.922
20647WAT      O62182   4.218   0.503   9.562
20647WAT     H162183   4.202   0.467   9.654
20647WAT     H262184   4.136   0.491   9.507
20648WAT      O62185   9.216   4.609   3.278
20648WAT     H162186   9.274   4.555   3.217
20648WAT     H262187   9.152   4.663   3.224
20649WAT      O62188   0.373   0.175   0.185
20649WAT     H162189   0.406   0.259   0.143
20649WAT     H262190   0.308   0.130   0.124
20650WAT      O62191   6.382   4.326   5.465
20650WAT     H162192   6.322   4.275   5.402
20650WAT     H262193   6.457   4.367   5.413
20651WAT      O62194   8.284   7.485   6.025
20651WAT     H162195   8.282   7.416   5.953
20651WAT     H262196   8.211   7.466   6.091
20652WAT      O62197   8.866   1.064   0.478
20652WAT     H162198   8.813   1.111   0.548
20652WAT     H262199   8.807   1.040   0.401
20653WAT      O62200   6.731   3.792   5.447
20653WAT     H162201   6.739   3.789   5.348
20653WAT     H262202   6.681   3.711   5.479
20654WAT      O62203   4.631   4.905   2.200
20654WAT     H162204   4.693   4.894   2.277
20654WAT     H262205   4.622   4.819   2.151
20655WAT      O62206   4.434   3.285   7.970
20655WAT     H162207   4.526   3.259   8.000
20655WAT     H262208   4.423   3.384   7.981
20656WAT      O62209   8.988   0.567   7.637
20656WAT     H162210   8.984   0.515   7.723
20656WAT     H262211   8.905   0.552   7.585
20657WAT      O62212   9.144   8.420   2.320
20657WAT     H162213   9.076   8.350   2.342
20657WAT     H262214   9.232   8.378   2.302
20658WAT      O62215   1.286   6.914   2.772
20658WAT     H162216   1.353   6.982   2.801
20658WAT     H262217   1.331   6.845   2.715
20659WAT      O62218   6.493   5.880   1.919
20659WAT     H162219   6.559   5.805   1.910
20659WAT     H262220   6.536   5.956   1.968
20660WAT      O62221   9.687   6.161   2.190
20660WAT     H162222   9.682   6.212   2.104
20660WAT     H262223   9.600   6.167   2.238
20661WAT      O62224   2.620   2.382   8.732
20661WAT     H162225   2.530   2.375   8.775
20661WAT     H262226   2.614   2.438   8.649
20662WAT      O62227   5.666   0.303   6.284
20662WAT     H162228   5.760   0.307   6.316
20662WAT     H262229   5.663   0.316   6.185
20663WAT      O62230   3.046   0.212   0.228
20663WAT     H162231   3.045   0.154   0.310
20663WAT     H262232   3.126   0.272   0.231
20664WAT      O62233   5.854   7.787   7.936
20664WAT     H162234   5.896   7.723   8.000
20664WAT     H262235   5.756   7.794   7.955
20665WAT      O62236   9.586   3.140   8.535
20665WAT     H162237   9.581   3.056   8.590
20665WAT     H262238   9.682   3.163   8.519
20666WAT      O62239   1.270   9.381   7.414
20666WAT     H162240   1.178   9.412   7.392
20666WAT     H262241   1.329   9.390   7.334
20667WAT      O62242   4.999   4.610   1.483
20667WAT     H162243   4.931   4.554   1.435
20667WAT     H262244   5.058   4.654   1.416
20668WAT      O62245   8.371   7.500   6.730
20668WAT     H162246   8.332   7.564   6.797
20668WAT     H262247   8.300   7.439   6.697
20669WAT      O62248   1.963   0.732   8.160
20669WAT     H162249   1.889   0.798   8.172
20669WAT     H262250   1.966   0.671   8.239
20670WAT      O62251   4.171   6.336   0.927
20670WAT     H162252   4.128   6.269   0.867
20670WAT     H262253   4.162   6.427   0.886
20671WAT      O62254   8.616   1.657   7.669
20671WAT     H162255   8.675   1.738   7.675
20671WAT     H262256   8.643   1.590   7.738
20672WAT      O62257   7.687   6.940   7.645
20672WAT     H162258   7.770   6.913   7.596
20672WAT     H262259   7.707   6.948   7.742
20673WAT      O62260   1.566   5.192   0.409
20673WAT     H162261   1.626   5.177   0.330
20673WAT     H262262   1.503   5.114   0.419
20674WAT      O62263   8.639   9.403   8.548
20674WAT     H162264   8.707   9.475   8.560
20674WAT     H262265   8.670   9.320   8.596
20675WAT      O62266   6.891   8.274   7.936
20675WAT     H162267   6.848   8.333   8.004
20675WAT     H262268   6.886   8.318   7.846
20676WAT      O62269   8.410   1.064  -0.002
20676WAT     H162270   8.424   0.966  -0.013
20676WAT     H262271   8.491   1.105   0.039
20677WAT      O62272   2.676   1.323   4.262
20677WAT     H162273   2.676   1.234   4.216
20677WAT     H262274   2.729   1.388   4.209
20678WAT      O62275   4.830   2.413   9.735
20678WAT     H162276   4.784   2.393   9.821
20678WAT     H262277   4.841   2.328   9.683
20679WAT      O62278   2.662   6.409   1.855
20679WAT     H162279   2.616   6.322   1.867
20679WAT     H262280   2.714   6.432   1.937
20680WAT      O62281   1.678   7.788   0.302
20680WAT     H162282   1.610   7.781   0.229
20680WAT     H262283   1.634   7.778   0.391
20681WAT      O62284   4.084   1.765   4.525
20681WAT     H162285   4.003   1.824   4.529
20681WAT     H262286   4.085   1.715   4.439
20682WAT      O62287   0.163   9.667   4.722
20682WAT     H162288   0.140   9.755   4.763
20682WAT     H262289   0.146   9.594   4.788
20683WAT      O62290   4.938   7.763   4.948
20683WAT     H162291   4.960   7.840   4.888
20683WAT     H262292   4.847   7.777   4.988
20684WAT      O62293   5.009   0.649   8.870
20684WAT     H162294   5.011   0.575   8.938
20684WAT     H262295   4.915   0.664   8.840
20685WAT      O62296   2.730   3.151   5.766
20685WAT     H162297   2.672   3.115   5.839
20685WAT     H262298   2.752   3.078   5.701
20686WAT      O62299   9.645   5.446   9.764
20686WAT     H162300   9.563   5.504   9.766
20686WAT     H262301   9.725   5.503   9.745
20687WAT      O62302   7.570   1.688   8.350
20687WAT     H162303   7.497   1.705   8.284
20687WAT     H262304   7.641   1.757   8.340
20688WAT      O62305   0.581   8.702   4.201
20688WAT     H162306   0.586   8.658   4.291
20688WAT     H262307   0.611   8.797   4.208
20689WAT      O62308   2.251   5.422   1.635
20689WAT     H162309   2.349   5.411   1.619
20689WAT     H262310   2.201   5.349   1.590
20690WAT      O62311   5.796   0.466   3.865
20690WAT     H162312   5.799   0.385   3.923
20690WAT     H262313   5.714   0.465   3.809
20691WAT      O62314   8.274   0.110   4.192
20691WAT     H162315   8.255   0.072   4.101
20691WAT     H262316   8.196   0.091   4.252
20692WAT      O62317   9.045   1.498   8.289
20692WAT     H162318   9.106   1.441   8.344
20692WAT     H262319   8.957   1.453   8.279
20693WAT      O62320   1.598   9.383   6.318
20693WAT     H162321   1.684   9.346   6.283
20693WAT     H262322   1.545   9.422   6.243
20694WAT      O62323   4.218   8.329   0.497
20694WAT     H162324   4.316   8.350   0.494
20694WAT     H262325   4.175   8.380   0.571
20695WAT      O62326   9.490   1.032   7.765
20695WAT     H162327   9.587   1.044   7.746
20695WAT     H262328   9.478   0.967   7.840
20696WAT      O62329   5.093   5.725   3.277
20696WAT     H162330   5.055   5.636   3.303
20696WAT     H262331   5.034   5.768   3.209
20697WAT      O62332   2.079   3.005   3.585
20697WAT     H162333   2.176   3.027   3.574
20697WAT     H262334   2.031   3.021   3.498
20698WAT      O62335   0.661   1.459   8.669
20698WAT     H162336   0.564   1.473   8.686
20698WAT     H262337   0.673   1.403   8.587
20699WAT      O62338   0.480   6.516   3.611
20699WAT     H162339   0.492   6.449   3.684
20699WAT     H262340   0.404   6.577   3.634
20700WAT      O62341   3.811   6.444   9.789
20700WAT     H162342   3.843   6.350   9.802
20700WAT     H262343   3.875   6.493   9.730
20701WAT      O62344   4.076   1.854   6.333
20701WAT     H162345   4.168   1.848   6.294
20701WAT     H262346   4.046   1.950   6.332
20702WAT      O62347   5.486   5.725   3.952
20702WAT     H162348   5.524   5.807   3.908
20702WAT     H262349   5.412   5.688   3.897
20703WAT      O62350   9.507   7.922   8.957
20703WAT     H162351   9.491   7.823   8.951
20703WAT     H262352   9.569   7.950   8.883
20704WAT      O62353   8.008   1.345   3.616
20704WAT     H162354   7.920   1.388   3.632
20704WAT     H262355   8.018   1.265   3.676
20705WAT      O62356   8.660   8.785   4.989
20705WAT     H162357   8.708   8.733   5.059
20705WAT     H262358   8.564   8.796   5.016
20706WAT      O62359   4.178   8.648   3.559
20706WAT     H162360   4.236   8.642   3.640
20706WAT     H262361   4.235   8.655   3.477
20707WAT      O62362   6.273   2.821   6.229
20707WAT     H162363   6.328   2.896   6.192
20707WAT     H262364   6.254   2.755   6.156
20708WAT      O62365   4.241   8.608   4.174
20708WAT     H162366   4.231   8.706   4.161
20708WAT     H262367   4.329   8.578   4.137
20709WAT      O62368   3.729   9.826   1.419
20709WAT     H162369   3.629   9.830   1.426
20709WAT     H262370   3.763   9.909   1.375
20710WAT      O62371   0.977   1.955   1.923
20710WAT     H162372   0.931   2.038   1.955
20710WAT     H262373   0.911   1.896   1.878
20711WAT      O62374   6.793   7.743   6.580
20711WAT     H162375   6.881   7.719   6.540
20711WAT     H262376   6.724   7.747   6.508
20712WAT      O62377   9.656   9.752   7.721
20712WAT     H162378   9.651   9.703   7.808
20712WAT     H262379   9.573   9.733   7.668
20713WAT      O62380   8.271   4.218   4.831
20713WAT     H162381   8.188   4.184   4.874
20713WAT     H262382   8.296   4.306   4.872
20714WAT      O62383   4.709   8.214   1.386
20714WAT     H162384   4.647   8.136   1.379
20714WAT     H262385   4.803   8.183   1.374
20715WAT      O62386   5.386   1.694   8.906
20715WAT     H162387   5.404   1.694   9.005
20715WAT     H262388   5.288   1.709   8.890
20716WAT      O62389   9.871   1.469   9.822
20716WAT     H162390   9.932   1.444   9.898
20716WAT     H262391   9.861   1.391   9.761
20717WAT      O62392   6.299   1.297   5.096
20717WAT     H162393   6.353   1.374   5.132
20717WAT     H262394   6.307   1.220   5.159
20718WAT      O62395   7.571   3.529   1.401
20718WAT     H162396   7.553   3.567   1.492
20718WAT     H262397   7.562   3.602   1.333
20719WAT      O62398   5.341   8.767   7.261
20719WAT     H162399   5.436   8.776   7.231
20719WAT     H262400   5.336   8.786   7.359
20720WAT      O62401   2.902   4.770   2.389
20720WAT     H162402   2.863   4.687   2.429
20720WAT     H262403   2.997   4.781   2.418
20721WAT      O62404   3.197   4.449   1.854
20721WAT     H162405   3.134   4.527   1.857
20721WAT     H262406   3.147   4.368   1.825
20722WAT      O62407   9.568   6.217   7.222
20722WAT     H162408   9.528   6.286   7.282
20722WAT     H262409   9.652   6.252   7.181
20723WAT      O62410   8.338   6.732   3.180
20723WAT     H162411   8.249   6.771   3.203
20723WAT     H262412   8.361   6.659   3.244
20724WAT      O62413   5.503   7.813   3.082
20724WAT     H162414   5.580   7.868   3.112
20724WAT     H262415   5.437   7.871   3.035
20725WAT      O62416   7.894   3.321   5.331
20725WAT     H162417   7.932   3.232   5.308
20725WAT     H262418   7.826   3.311   5.403
20726WAT      O62419   9.238   7.879   7.673
20726WAT     H162420   9.229   7.846   7.579
20726WAT     H262421   9.232   7.802   7.736
20727WAT      O62422   4.262   4.369   0.961
20727WAT     H162423   4.328   4.431   0.919
20727WAT     H262424   4.225   4.308   0.891
20728WAT      O62425   6.870   8.542   2.913
20728WAT     H162426   6.962   8.508   2.932
20728WAT     H262427   6.851   8.535   2.815
20729WAT      O62428   9.218   0.388   2.341
20729WAT     H162429   9.125   0.391   2.303
20729WAT     H262430   9.225   0.452   2.417
20730WAT      O62431   2.997   2.486   2.915
20730WAT     H162432   3.047   2.406   2.947
20730WAT     H262433   2.991   2.553   2.989
20731WAT      O62434   3.440   0.230   1.958
20731WAT     H162435   3.364   0.206   2.017
20731WAT     H262436   3.515   0.165   1.971
20732WAT      O62437   1.044   4.445   2.903
20732WAT     H162438   1.108   4.373   2.874
20732WAT     H262439   0.953   4.425   2.866
20733WAT      O62440   5.649   3.555   3.372
20733WAT     H162441   5.650   3.553   3.272
20733WAT     H262442   5.730   3.507   3.407
20734WAT      O62443   5.918   1.213   7.753
20734WAT     H162444   5.966   1.298   7.773
20734WAT     H262445   5.824   1.233   7.725
20735WAT      O62446   2.558   8.022   9.653
20735WAT     H162447   2.483   7.969   9.614
20735WAT     H262448   2.633   8.028   9.587
20736WAT      O62449   8.207   5.138   8.446
20736WAT     H162450   8.191   5.154   8.348
20736WAT     H262451   8.247   5.219   8.487
20737WAT      O62452   4.930   2.051   0.046
20737WAT     H162453   4.952   2.023   0.140
20737WAT     H262454   4.834   2.033   0.027
20738WAT      O62455   4.779   9.102   6.189
20738WAT     H162456   4.701   9.085   6.250
20738WAT     H262457   4.748   9.155   6.110
20739WAT      O62458   9.093   3.049   7.485
20739WAT     H162459   9.082   2.979   7.415
20739WAT     H262460   9.003   3.071   7.524
20740WAT      O62461   3.718   5.316   8.526
20740WAT     H162462   3.688   5.338   8.619
20740WAT     H262463   3.646   5.263   8.481
20741WAT      O62464   6.530   8.791   8.330
20741WAT     H162465   6.461   8.834   8.272
20741WAT     H262466   6.602   8.752   8.272
20742WAT      O62467   4.259   0.986   5.169
20742WAT     H162468   4.244   1.052   5.242
20742WAT     H262469   4.356   0.977   5.151
20743WAT      O62470   6.390   5.154   2.701
20743WAT     H162471   6.314   5.154   2.765
20743WAT     H262472   6.361   5.196   2.615
20744WAT      O62473   5.584   2.687   0.445
20744WAT     H162474   5.530   2.771   0.450
20744WAT     H262475   5.680   2.707   0.462
20745WAT      O62476   2.206   7.008   6.227
20745WAT     H162477   2.138   6.979   6.160
20745WAT     H262478   2.265   7.078   6.186
20746WAT      O62479   9.439   2.890   4.573
20746WAT     H162480   9.360   2.845   4.532
20746WAT     H262481   9.452   2.856   4.666
20747WAT      O62482   0.561   9.706   3.724
20747WAT     H162483   0.615   9.629   3.692
20747WAT     H262484   0.466   9.677   3.738
20748WAT      O62485   4.836   2.385   6.285
20748WAT     H162486   4.797   2.466   6.328
20748WAT     H262487   4.908   2.413   6.221
20749WAT      O62488   0.389   5.433   6.173
20749WAT     H162489   0.375   5.446   6.075
20749WAT     H262490   0.343   5.349   6.203
20750WAT      O62491   1.629   0.765   9.823
20750WAT     H162492   1.543   0.718   9.805
20750WAT     H262493   1.645   0.770   9.921
20751WAT      O62494   1.372   9.332   1.854
20751WAT     H162495   1.289   9.303   1.805
20751WAT     H262496   1.389   9.268   1.930
20752WAT      O62497   6.324   7.872   5.160
20752WAT     H162498   6.421   7.866   5.182
20752WAT     H262499   6.270   7.875   5.244
20753WAT      O62500   5.306   9.624   5.571
20753WAT     H162501   5.275   9.658   5.483
20753WAT     H262502   5.403   9.599   5.565
20754WAT      O62503   2.399   3.992   2.029
20754WAT     H162504   2.443   3.909   1.995
20754WAT     H262505   2.305   3.971   2.057
20755WAT      O62506   7.017   5.524   2.481
20755WAT     H162507   6.965   5.478   2.410
20755WAT     H262508   7.115   5.517   2.460
20756WAT      O62509   2.163   9.063   3.400
20756WAT     H162510   2.159   9.137   3.333
20756WAT     H262511   2.199   8.981   3.357
20757WAT      O62512   5.227   2.954   3.800
20757WAT     H162513   5.209   2.916   3.891
20757WAT     H262514   5.143   2.995   3.764
20758WAT      O62515   4.530   3.873   2.361
20758WAT     H162516   4.459   3.804   2.379
20758WAT     H262517   4.619   3.835   2.385
20759WAT      O62518   8.557   3.727   5.949
20759WAT     H162519   8.513   3.751   5.862
20759WAT     H262520   8.492   3.679   6.008
20760WAT      O62521   4.849   7.077   8.466
20760WAT     H162522   4.792   7.097   8.545
20760WAT     H262523   4.875   6.980   8.467
20761WAT      O62524   7.987   6.337   6.033
20761WAT     H162525   8.078   6.348   5.992
20761WAT     H262526   7.980   6.246   6.075
20762WAT      O62527   8.155   6.702   1.545
20762WAT     H162528   8.252   6.678   1.539
20762WAT     H262529   8.103   6.622   1.577
20763WAT      O62530   1.905   8.920   3.274
20763WAT     H162531   1.991   8.873   3.256
20763WAT     H262532   1.921   9.018   3.284
20764WAT      O62533   5.774   6.267   8.051
20764WAT     H162534   5.766   6.213   7.967
20764WAT     H262535   5.786   6.206   8.129
20765WAT      O62536   3.675   2.789   0.910
20765WAT     H162537   3.599   2.796   0.975
20765WAT     H262538   3.713   2.880   0.894
20766WAT      O62539   7.888   9.254   0.946
20766WAT     H162540   7.976   9.278   0.904
20766WAT     H262541   7.888   9.283   1.041
20767WAT      O62542   9.684   5.230   4.611
20767WAT     H162543   9.695   5.279   4.524
20767WAT     H262544   9.597   5.179   4.609
20768WAT      O62545   8.781   8.823   9.069
20768WAT     H162546   8.756   8.807   8.973
20768WAT     H262547   8.874   8.788   9.085
20769WAT      O62548   8.510   9.698   0.715
20769WAT     H162549   8.521   9.617   0.658
20769WAT     H262550   8.580   9.698   0.786
20770WAT      O62551   6.057   2.450   6.064
20770WAT     H162552   5.973   2.473   6.014
20770WAT     H262553   6.093   2.363   6.030
20771WAT      O62554   7.433   5.598   4.485
20771WAT     H162555   7.438   5.616   4.584
20771WAT     H262556   7.386   5.675   4.440
20772WAT      O62557   6.835   8.652   5.104
20772WAT     H162558   6.925   8.667   5.145
20772WAT     H262559   6.764   8.671   5.173
20773WAT      O62560   8.207   0.576   4.531
20773WAT     H162561   8.219   0.634   4.450
20773WAT     H262562   8.233   0.627   4.613
20774WAT      O62563   4.101   6.727   1.448
20774WAT     H162564   4.186   6.762   1.409
20774WAT     H262565   4.027   6.793   1.432
20775WAT      O62566   5.942   6.592   7.777
20775WAT     H162567   5.988   6.681   7.775
20775WAT     H262568   5.928   6.560   7.684
20776WAT      O62569   5.975   8.196   3.018
20776WAT     H162570   6.065   8.160   3.041
20776WAT     H262571   5.916   8.121   2.988
20777WAT      O62572   0.081   4.556   4.439
20777WAT     H162573   0.141   4.613   4.384
20777WAT     H262574  -0.002   4.606   4.461
20778WAT      O62575   0.762   8.073   0.352
20778WAT     H162576   0.798   8.031   0.435
20778WAT     H262577   0.775   8.172   0.356
20779WAT      O62578   6.009   0.475   6.891
20779WAT     H162579   6.035   0.556   6.944
20779WAT     H262580   5.919   0.490   6.850
20780WAT      O62581   3.928   3.277   1.856
20780WAT     H162582   3.974   3.248   1.772
20780WAT     H262583   3.933   3.376   1.863
20781WAT      O62584   6.145   3.231   9.331
20781WAT     H162585   6.127   3.197   9.239
20781WAT     H262586   6.234   3.278   9.332
20782WAT      O62587   0.558   7.669   1.306
20782WAT     H162588   0.508   7.618   1.235
20782WAT     H262589   0.513   7.656   1.394
20783WAT      O62590   1.328   2.635   3.981
20783WAT     H162591   1.283   2.584   4.053
20783WAT     H262592   1.388   2.574   3.929
20784WAT      O62593   9.310   0.229   4.326
20784WAT     H162594   9.396   0.270   4.358
20784WAT     H262595   9.276   0.166   4.396
20785WAT      O62596   4.563   1.693   3.436
20785WAT     H162597   4.509   1.755   3.378
20785WAT     H262598   4.630   1.645   3.379
20786WAT      O62599   0.725   0.178   4.269
20786WAT     H162600   0.637   0.139   4.243
20786WAT     H262601   0.769   0.120   4.337
20787WAT      O62602   7.838   4.413   1.043
20787WAT     H162603   7.890   4.377   1.121
20787WAT     H262604   7.902   4.442   0.971
20788WAT      O62605   5.415   5.001   6.087
20788WAT     H162606   5.327   4.954   6.083
20788WAT     H262607   5.412   5.081   6.027
20789WAT      O62608   7.384   2.358   0.134
20789WAT     H162609   7.345   2.446   0.108
20789WAT     H262610   7.375   2.347   0.233
20790WAT      O62611   3.364   3.209   6.819
20790WAT     H162612   3.403   3.128   6.776
20790WAT     H262613   3.374   3.202   6.918
20791WAT      O62614   8.281   9.589   5.834
20791WAT     H162615   8.306   9.681   5.803
20791WAT     H262616   8.185   9.571   5.811
20792WAT      O62617   0.114   2.672   2.596
20792WAT     H162618   0.033   2.616   2.582
20792WAT     H262619   0.123   2.693   2.693
20793WAT      O62620   0.128   5.447   4.780
20793WAT     H162621   0.176   5.455   4.868
20793WAT     H262622   0.155   5.522   4.720
20794WAT      O62623   8.646   5.630   5.759
20794WAT     H162624   8.652   5.544   5.809
20794WAT     H262625   8.620   5.612   5.664
20795WAT      O62626   6.463   7.852   9.292
20795WAT     H162627   6.443   7.916   9.218
20795WAT     H262628   6.557   7.819   9.283
20796WAT      O62629   7.725   5.430   7.210
20796WAT     H162630   7.667   5.491   7.264
20796WAT     H262631   7.816   5.471   7.200
20797WAT      O62632   9.835   0.659   9.564
20797WAT     H162633   9.919   0.669   9.617
20797WAT     H262634   9.824   0.564   9.536
20798WAT      O62635   1.300   4.616   2.941
20798WAT     H162636   1.360   4.672   2.883
20798WAT     H262637   1.223   4.583   2.886
20799WAT      O62638   8.060   8.970   1.535
20799WAT     H162639   8.065   8.978   1.635
20799WAT     H262640   8.057   8.874   1.509
20800WAT      O62641   9.756   5.570   4.799
20800WAT     H162642   9.698   5.568   4.717
20800WAT     H262643   9.845   5.531   4.778
20801WAT      O62644   3.091   4.463   3.576
20801WAT     H162645   3.010   4.519   3.558
20801WAT     H262646   3.163   4.486   3.510
20802WAT      O62647   0.283   0.277   3.792
20802WAT     H162648   0.243   0.321   3.873
20802WAT     H262649   0.243   0.317   3.710
20803WAT      O62650   8.070   4.775   1.550
20803WAT     H162651   8.068   4.874   1.544
20803WAT     H262652   8.005   4.744   1.619
20804WAT      O62653   4.716   3.457   3.526
20804WAT     H162654   4.808   3.462   3.486
20804WAT     H262655   4.662   3.536   3.496
20805WAT      O62656   3.203   9.410   7.900
20805WAT     H162657   3.205   9.499   7.946
20805WAT     H262658   3.120   9.403   7.845
20806WAT      O62659   3.279   6.063   5.169
20806WAT     H162660   3.251   6.044   5.075
20806WAT     H262661   3.199   6.063   5.229
20807WAT      O62662   7.539   5.746   3.407
20807WAT     H162663   7.552   5.706   3.316
20807WAT     H262664   7.622   5.736   3.461
20808WAT      O62665   5.235   9.835   7.629
20808WAT     H162666   5.272   9.809   7.540
20808WAT     H262667   5.147   9.791   7.644
20809WAT      O62668   1.982   8.534   9.817
20809WAT     H162669   2.078   8.543   9.792
20809WAT     H262670   1.963   8.440   9.845
20810WAT      O62671   3.351   2.209   2.906
20810WAT     H162672   3.398   2.188   2.820
20810WAT     H262673   3.400   2.282   2.954
20811WAT      O62674   2.710   9.417   5.489
20811WAT     H162675   2.804   9.435   5.520
20811WAT     H262676   2.658   9.502   5.488
20812WAT      O62677   0.971   2.001   2.519
20812WAT     H162678   0.904   1.961   2.456
20812WAT     H262679   0.925   2.069   2.576
20813WAT      O62680   1.710   7.030   6.938
20813WAT     H162681   1.750   7.035   7.030
20813WAT     H262682   1.675   7.120   6.912
20814WAT      O62683   5.458   2.743   6.303
20814WAT     H162684   5.534   2.799   6.269
20814WAT     H262685   5.391   2.803   6.347
20815WAT      O62686   8.607   7.303   9.237
20815WAT     H162687   8.637   7.258   9.322
20815WAT     H262688   8.686   7.329   9.182
20816WAT      O62689   1.786   5.628   8.635
20816WAT     H162690   1.708   5.688   8.655
20816WAT     H262691   1.757   5.555   8.573
20817WAT      O62692   4.701   2.050   6.632
20817WAT     H162693   4.664   1.958   6.646
20817WAT     H262694   4.687   2.078   6.537
20818WAT      O62695   9.333   3.234   8.774
20818WAT     H162696   9.259   3.253   8.838
20818WAT     H262697   9.412   3.291   8.796
20819WAT      O62698   7.217   4.047   4.347
20819WAT     H162699   7.275   4.127   4.335
20819WAT     H262700   7.153   4.041   4.270
20820WAT      O62701   1.692   9.671   2.937
20820WAT     H162702   1.639   9.586   2.926
20820WAT     H262703   1.703   9.691   3.034
20821WAT      O62704   4.720   0.866   7.834
20821WAT     H162705   4.813   0.833   7.851
20821WAT     H262706   4.704   0.948   7.890
20822WAT      O62707   4.021   7.641   6.769
20822WAT     H162708   4.121   7.635   6.776
20822WAT     H262709   3.979   7.582   6.838
20823WAT      O62710   7.815   5.453   2.029
20823WAT     H162711   7.847   5.530   2.085
20823WAT     H262712   7.892   5.410   1.983
20824WAT      O62713   8.722   1.745   9.614
20824WAT     H162714   8.785   1.819   9.636
20824WAT     H262715   8.636   1.758   9.665
20825WAT      O62716   2.428   5.617   3.421
20825WAT     H162717   2.516   5.643   3.461
20825WAT     H262718   2.391   5.538   3.470
20826WAT      O62719   1.162   2.691   6.350
20826WAT     H162720   1.097   2.657   6.418
20826WAT     H262721   1.254   2.692   6.389
20827WAT      O62722   2.203   9.507   5.275
20827WAT     H162723   2.215   9.562   5.192
20827WAT     H262724   2.292   9.478   5.309
20828WAT      O62725   2.006   0.225   3.626
20828WAT     H162726   2.062   0.185   3.553
20828WAT     H262727   1.911   0.231   3.596
20829WAT      O62728   8.051   9.384   4.913
20829WAT     H162729   8.122   9.327   4.954
20829WAT     H262730   8.089   9.435   4.836
20830WAT      O62731   9.754   6.191   0.701
20830WAT     H162732   9.756   6.224   0.606
20830WAT     H262733   9.659   6.179   0.729
20831WAT      O62734   1.507   3.180   1.749
20831WAT     H162735   1.428   3.188   1.810
20831WAT     H262736   1.570   3.112   1.785
20832WAT      O62737   6.252   5.348   1.355
20832WAT     H162738   6.190   5.426   1.341
20832WAT     H262739   6.285   5.349   1.449
20833WAT      O62740   8.094   9.026   7.477
20833WAT     H162741   8.077   9.080   7.560
20833WAT     H262742   8.010   8.979   7.450
20834WAT      O62743   5.110   3.811   0.005
20834WAT     H162744   5.085   3.784   0.098
20834WAT     H262745   5.151   3.902   0.006
20835WAT      O62746   3.086   9.839   3.604
20835WAT     H162747   3.147   9.772   3.561
20835WAT     H262748   3.138   9.921   3.629
20836WAT      O62749   7.109   4.961   3.976
20836WAT     H162750   7.174   5.024   4.019
20836WAT     H262751   7.152   4.918   3.896
20837WAT      O62752   4.063   7.766   1.401
20837WAT     H162753   4.047   7.765   1.302
20837WAT     H262754   3.976   7.766   1.449
20838WAT      O62755   4.603   3.270   8.317
20838WAT     H162756   4.526   3.334   8.307
20838WAT     H262757   4.688   3.318   8.296
20839WAT      O62758   8.518   6.120   7.534
20839WAT     H162759   8.587   6.192   7.540
20839WAT     H262760   8.432   6.158   7.499
20840WAT      O62761   1.133   2.748   0.460
20840WAT     H162762   1.071   2.749   0.537
20840WAT     H262763   1.117   2.829   0.403
20841WAT      O62764   4.253   4.605   1.202
20841WAT     H162765   4.335   4.659   1.183
20841WAT     H262766   4.279   4.516   1.240
20842WAT      O62767   3.233   1.678   5.262
20842WAT     H162768   3.186   1.691   5.175
20842WAT     H262769   3.331   1.691   5.250
20843WAT      O62770   8.957   9.647   2.435
20843WAT     H162771   8.895   9.725   2.425
20843WAT     H262772   9.050   9.677   2.414
20844WAT      O62773   3.204   7.920   2.022
20844WAT     H162774   3.254   7.870   2.093
20844WAT     H262775   3.131   7.863   1.986
20845WAT      O62776   3.315   7.531   2.342
20845WAT     H162777   3.412   7.515   2.359
20845WAT     H262778   3.269   7.552   2.429
20846WAT      O62779   9.513   5.861   6.649
20846WAT     H162780   9.432   5.904   6.607
20846WAT     H262781   9.568   5.932   6.694
20847WAT      O62782   6.972   7.690   7.126
20847WAT     H162783   7.050   7.645   7.168
20847WAT     H262784   6.891   7.677   7.184
20848WAT      O62785   3.694   8.894   7.443
20848WAT     H162786   3.644   8.809   7.427
20848WAT     H262787   3.635   8.972   7.422
20849WAT      O62788   3.903   3.333   3.891
20849WAT     H162789   3.923   3.238   3.914
20849WAT     H262790   3.817   3.361   3.936
20850WAT      O62791   7.960   7.460   5.899
20850WAT     H162792   7.900   7.532   5.932
20850WAT     H262793   8.020   7.497   5.828
20851WAT      O62794   1.269   0.834   7.664
20851WAT     H162795   1.321   0.893   7.602
20851WAT     H262796   1.293   0.857   7.759
20852WAT      O62797   8.130   7.392   3.877
20852WAT     H162798   8.124   7.395   3.777
20852WAT     H262799   8.183   7.470   3.910
20853WAT      O62800   6.789   5.855   0.593
20853WAT     H162801   6.734   5.879   0.673
20853WAT     H262802   6.814   5.758   0.598
20854WAT      O62803   6.809   4.101   1.377
20854WAT     H162804   6.742   4.101   1.451
20854WAT     H262805   6.792   4.179   1.316
20855WAT      O62806   7.446   7.015   2.420
20855WAT     H162807   7.412   7.105   2.393
20855WAT     H262808   7.501   6.977   2.345
20856WAT      O62809   2.943   2.188   2.720
20856WAT     H162810   2.928   2.275   2.674
20856WAT     H262811   3.001   2.202   2.801
20857WAT      O62812   8.340   5.345   8.517
20857WAT     H162813   8.305   5.420   8.573
20857WAT     H262814   8.440   5.344   8.521
20858WAT      O62815   1.822   5.438   3.265
20858WAT     H162816   1.848   5.534   3.271
20858WAT     H262817   1.904   5.381   3.264
20859WAT      O62818   7.952   8.101   2.388
20859WAT     H162819   7.997   8.013   2.400
20859WAT     H262820   7.879   8.110   2.456
20860WAT      O62821   5.755   1.281   1.801
20860WAT     H162822   5.854   1.295   1.796
20860WAT     H262823   5.711   1.363   1.836
20861WAT      O62824   4.176   8.928   3.223
20861WAT     H162825   4.199   8.871   3.144
20861WAT     H262826   4.182   9.024   3.198
20862WAT      O62827   6.456   6.642   3.505
20862WAT     H162828   6.464   6.655   3.604
20862WAT     H262829   6.378   6.695   3.470
20863WAT      O62830   1.867   6.387   8.058
20863WAT     H162831   1.966   6.378   8.045
20863WAT     H262832   1.846   6.479   8.092
20864WAT      O62833   1.068   8.943   8.520
20864WAT     H162834   1.015   9.026   8.536
20864WAT     H262835   1.140   8.935   8.588
20865WAT      O62836   9.170   3.290   8.235
20865WAT     H162837   9.230   3.241   8.298
20865WAT     H262838   9.089   3.234   8.215
20866WAT      O62839   0.609   5.063   5.153
20866WAT     H162840   0.667   5.144   5.150
20866WAT     H262841   0.597   5.035   5.249
20867WAT      O62842   9.225   3.578   8.298
20867WAT     H162843   9.236   3.513   8.222
20867WAT     H262844   9.178   3.660   8.266
20868WAT      O62845   9.693   6.715   2.512
20868WAT     H162846   9.781   6.762   2.508
20868WAT     H262847   9.690   6.657   2.594
20869WAT      O62848   7.304   5.195   6.338
20869WAT     H162849   7.292   5.096   6.323
20869WAT     H262850   7.214   5.238   6.343
20870WAT      O62851   5.589   9.480   6.174
20870WAT     H162852   5.595   9.385   6.142
20870WAT     H262853   5.675   9.527   6.152
20871WAT      O62854   4.900   6.281   0.578
20871WAT     H162855   4.973   6.226   0.617
20871WAT     H262856   4.923   6.378   0.583
20872WAT      O62857   6.511   6.604   4.669
20872WAT     H162858   6.511   6.701   4.690
20872WAT     H262859   6.502   6.590   4.571
20873WAT      O62860   9.699   1.933   3.805
20873WAT     H162861   9.714   1.909   3.709
20873WAT     H262862   9.723   1.854   3.863
20874WAT      O62863   2.616   6.519   8.063
20874WAT     H162864   2.702   6.503   8.111
20874WAT     H262865   2.563   6.590   8.110
20875WAT      O62866   8.314   4.768   5.878
20875WAT     H162867   8.367   4.683   5.872
20875WAT     H262868   8.219   4.750   5.854
20876WAT      O62869   2.144   6.667   4.419
20876WAT     H162870   2.164   6.622   4.506
20876WAT     H262871   2.068   6.619   4.374
20877WAT      O62872   7.472   8.152   8.051
20877WAT     H162873   7.566   8.125   8.032
20877WAT     H262874   7.422   8.074   8.089
20878WAT      O62875   5.889   7.356   6.020
20878WAT     H162876   5.873   7.453   6.007
20878WAT     H262877   5.803   7.306   6.006
20879WAT      O62878   9.758   5.662   2.462
20879WAT     H162879   9.842   5.715   2.453
20879WAT     H262880   9.680   5.719   2.436
20880WAT      O62881   5.708   4.267   2.191
20880WAT     H162882   5.749   4.351   2.155
20880WAT     H262883   5.628   4.242   2.136
20881WAT      O62884   0.895   0.240   7.503
20881WAT     H162885   0.883   0.198   7.414
20881WAT     H262886   0.939   0.175   7.565
20882WAT      O62887   9.549   3.681   8.920
20882WAT     H162888   9.449   3.677   8.929
20882WAT     H262889   9.573   3.759   8.862
20883WAT      O62890   1.641   3.015   4.784
20883WAT     H162891   1.608   2.979   4.696
20883WAT     H262892   1.572   3.077   4.822
20884WAT      O62893   3.726   0.430   7.039
20884WAT     H162894   3.668   0.501   6.999
20884WAT     H262895   3.700   0.414   7.134
20885WAT      O62896   8.342   1.729   8.380
20885WAT     H162897   8.382   1.674   8.452
20885WAT     H262898   8.315   1.670   8.304
20886WAT      O62899   5.587   8.018   1.284
20886WAT     H162900   5.563   8.089   1.217
20886WAT     H262901   5.540   7.933   1.261
20887WAT      O62902   8.257   4.687   8.420
20887WAT     H162903   8.343   4.726   8.385
20887WAT     H262904   8.188   4.689   8.348
20888WAT      O62905   6.588   9.137   2.716
20888WAT     H162906   6.636   9.215   2.755
20888WAT     H262907   6.490   9.155   2.714
20889WAT      O62908   3.937   5.979   6.970
20889WAT     H162909   4.034   5.957   6.970
20889WAT     H262910   3.919   6.052   7.036
20890WAT      O62911   1.592   2.210   0.117
20890WAT     H162912   1.639   2.253   0.040
20890WAT     H262913   1.610   2.112   0.117
20891WAT      O62914   9.702   9.465   2.343
20891WAT     H162915   9.703   9.561   2.315
20891WAT     H262916   9.656   9.411   2.272
20892WAT      O62917   8.085   1.156   1.728
20892WAT     H162918   7.996   1.192   1.700
20892WAT     H262919   8.150   1.232   1.734
20893WAT      O62920   8.932   7.640   5.871
20893WAT     H162921   8.878   7.573   5.820
20893WAT     H262922   8.870   7.711   5.906
20894WAT      O62923   4.558   6.235   1.846
20894WAT     H162924   4.576   6.269   1.754
20894WAT     H262925   4.510   6.306   1.898
20895WAT      O62926   5.297   7.591   5.507
20895WAT     H162927   5.382   7.642   5.493
20895WAT     H262928   5.313   7.515   5.570
20896WAT      O62929   8.884   5.975   2.061
20896WAT     H162930   8.866   6.050   2.124
20896WAT     H262931   8.811   5.970   1.993
20897WAT      O62932   3.768   2.413   7.019
20897WAT     H162933   3.837   2.470   7.063
20897WAT     H262934   3.679   2.431   7.061
20898WAT      O62935   7.459   4.621   7.608
20898WAT     H162936   7.435   4.616   7.705
20898WAT     H262937   7.505   4.708   7.590
20899WAT      O62938   3.827   8.156   0.978
20899WAT     H162939   3.902   8.158   0.911
20899WAT     H262940   3.821   8.245   1.024
20900WAT      O62941   6.654   3.313   7.823
20900WAT     H162942   6.691   3.223   7.800
20900WAT     H262943   6.567   3.302   7.871
20901WAT      O62944   2.106   6.881   4.879
20901WAT     H162945   2.060   6.882   4.790
20901WAT     H262946   2.158   6.966   4.890
20902WAT      O62947   8.582   0.402   3.111
20902WAT     H162948   8.668   0.417   3.061
20902WAT     H262949   8.530   0.487   3.114
20903WAT      O62950   1.182   0.555   4.614
20903WAT     H162951   1.246   0.552   4.537
20903WAT     H262952   1.105   0.494   4.594
20904WAT      O62953   7.641   7.450   6.434
20904WAT     H162954   7.560   7.460   6.377
20904WAT     H262955   7.690   7.366   6.408
20905WAT      O62956   5.969   1.380   0.815
20905WAT     H162957   5.920   1.331   0.888
20905WAT     H262958   6.067   1.359   0.821
20906WAT      O62959   5.416   5.723   6.837
20906WAT     H162960   5.499   5.705   6.889
20906WAT     H262961   5.367   5.638   6.820
20907WAT      O62962   9.761   4.869   4.968
20907WAT     H162963   9.698   4.943   4.946
20907WAT     H262964   9.720   4.809   5.036
20908WAT      O62965   3.455   7.135   2.405
20908WAT     H162966   3.539   7.094   2.369
20908WAT     H262967   3.465   7.234   2.407
20909WAT      O62968   2.702   7.858   3.946
20909WAT     H162969   2.751   7.887   4.028
20909WAT     H262970   2.713   7.928   3.874
20910WAT      O62971   4.221   4.426   3.777
20910WAT     H162972   4.236   4.433   3.876
20910WAT     H262973   4.124   4.411   3.760
20911WAT      O62974   8.151   7.508   9.363
20911WAT     H162975   8.201   7.495   9.448
20911WAT     H262976   8.182   7.441   9.295
20912WAT      O62977   6.433   3.582   8.005
20912WAT     H162978   6.508   3.516   8.008
20912WAT     H262979   6.345   3.534   8.005
20913WAT      O62980   1.763   5.611   1.463
20913WAT     H162981   1.687   5.596   1.527
20913WAT     H262982   1.764   5.538   1.396
20914WAT      O62983   4.348   4.871   3.792
20914WAT     H162984   4.424   4.842   3.849
20914WAT     H262985   4.333   4.805   3.718
20915WAT      O62986   1.234   7.208   6.993
20915WAT     H162987   1.235   7.147   6.915
20915WAT     H262988   1.180   7.167   7.067
20916WAT      O62989   4.718   8.379   6.266
20916WAT     H162990   4.717   8.353   6.362
20916WAT     H262991   4.629   8.359   6.225
20917WAT      O62992   7.080   6.680   7.475
20917WAT     H162993   7.062   6.592   7.431
20917WAT     H262994   7.033   6.683   7.563
20918WAT      O62995   1.470   7.024   6.744
20918WAT     H162996   1.514   7.016   6.654
20918WAT     H262997   1.521   6.970   6.811
20919WAT      O62998   6.786   9.608   6.165
20919WAT     H162999   6.859   9.645   6.107
20919WAT     H263000   6.716   9.566   6.107
20920WAT      O63001   7.321   0.791   3.835
20920WAT     H163002   7.340   0.850   3.914
20920WAT     H263003   7.273   0.843   3.764
20921WAT      O63004   6.809   7.585   6.806
20921WAT     H163005   6.902   7.573   6.839
20921WAT     H263006   6.808   7.645   6.727
20922WAT      O63007   9.465   7.447   3.971
20922WAT     H163008   9.486   7.354   3.943
20922WAT     H263009   9.439   7.501   3.891
20923WAT      O63010   5.649   5.209   7.831
20923WAT     H163011   5.651   5.304   7.862
20923WAT     H263012   5.642   5.206   7.731
20924WAT      O63013   2.111   1.152   3.616
20924WAT     H163014   2.178   1.164   3.689
20924WAT     H263015   2.157   1.116   3.534
20925WAT      O63016   8.231   1.829   6.610
20925WAT     H163017   8.137   1.805   6.634
20925WAT     H263018   8.262   1.904   6.669
20926WAT      O63019   1.206   0.424   9.846
20926WAT     H163020   1.262   0.341   9.852
20926WAT     H263021   1.182   0.455   9.939
20927WAT      O63022   0.978   7.283   5.189
20927WAT     H163023   0.901   7.220   5.202
20927WAT     H263024   1.012   7.275   5.095
20928WAT      O63025   1.492   3.020   7.875
20928WAT     H163026   1.393   3.035   7.876
20928WAT     H263027   1.526   3.031   7.782
20929WAT      O63028   8.560   3.910   7.732
20929WAT     H163029   8.591   4.005   7.728
20929WAT     H263030   8.594   3.861   7.651
20930WAT      O63031   5.520   3.119   2.565
20930WAT     H163032   5.511   3.023   2.537
20930WAT     H263033   5.615   3.149   2.550
20931WAT      O63034   6.340   4.340   9.407
20931WAT     H163035   6.378   4.359   9.317
20931WAT     H263036   6.264   4.402   9.425
20932WAT      O63037   2.140   9.028   4.038
20932WAT     H163038   2.080   9.033   4.118
20932WAT     H263039   2.107   9.092   3.969
20933WAT      O63040   8.965   7.467   3.386
20933WAT     H163041   9.054   7.463   3.341
20933WAT     H263042   8.950   7.559   3.423
20934WAT      O63043   8.446   3.792   6.809
20934WAT     H163044   8.385   3.813   6.733
20934WAT     H263045   8.459   3.874   6.864
20935WAT      O63046   3.947   5.233   3.018
20935WAT     H163047   4.025   5.295   3.029
20935WAT     H263048   3.946   5.196   2.925
20936WAT      O63049   0.133   2.033   2.448
20936WAT     H163050   0.034   2.019   2.451
20936WAT     H263051   0.152   2.131   2.438
20937WAT      O63052   2.439   5.886   2.577
20937WAT     H163053   2.464   5.931   2.663
20937WAT     H263054   2.358   5.930   2.539
20938WAT      O63055   2.621   4.739   5.465
20938WAT     H163056   2.696   4.804   5.479
20938WAT     H263057   2.647   4.674   5.394
20939WAT      O63058   3.991   7.968   4.197
20939WAT     H163059   4.036   7.879   4.205
20939WAT     H263060   4.061   8.040   4.197
20940WAT      O63061   6.064   0.333   7.213
20940WAT     H163062   5.995   0.363   7.148
20940WAT     H263063   6.020   0.279   7.285
20941WAT      O63064   3.513   9.750   9.013
20941WAT     H163065   3.543   9.841   8.984
20941WAT     H263066   3.437   9.720   8.955
20942WAT      O63067   9.652   4.863   2.378
20942WAT     H163068   9.741   4.819   2.384
20942WAT     H263069   9.637   4.922   2.458
20943WAT      O63070   8.130   5.080   9.577
20943WAT     H163071   8.223   5.047   9.593
20943WAT     H263072   8.134   5.174   9.542
20944WAT      O63073   2.910   7.623   2.739
20944WAT     H163074   2.960   7.579   2.814
20944WAT     H263075   2.812   7.623   2.759
20945WAT      O63076   8.323   2.779   1.650
20945WAT     H163077   8.357   2.866   1.688
20945WAT     H263078   8.296   2.719   1.725
20946WAT      O63079   5.025   3.889   9.223
20946WAT     H163080   4.990   3.954   9.156
20946WAT     H263081   4.956   3.874   9.294
20947WAT      O63082   3.133   5.357   8.867
20947WAT     H163083   3.168   5.443   8.831
20947WAT     H263084   3.161   5.346   8.962
20948WAT      O63085   1.770   7.316   0.484
20948WAT     H163086   1.825   7.244   0.443
20948WAT     H263087   1.690   7.334   0.427
20949WAT      O63088   9.278   5.433   0.418
20949WAT     H163089   9.239   5.347   0.386
20949WAT     H263090   9.205   5.496   0.443
20950WAT      O63091   3.966   3.018   5.209
20950WAT     H163092   4.056   2.990   5.243
20950WAT     H263093   3.895   2.978   5.266
20951WAT      O63094   9.240   0.024   4.534
20951WAT     H163095   9.291  -0.026   4.604
20951WAT     H263096   9.167   0.076   4.578
20952WAT      O63097   4.781   3.595   9.404
20952WAT     H163098   4.753   3.580   9.498
20952WAT     H263099   4.814   3.689   9.393
20953WAT      O63100   8.157   9.294   0.480
20953WAT     H163101   8.086   9.314   0.548
20953WAT     H263102   8.122   9.230   0.412
20954WAT      O63103   2.806   2.146   5.556
20954WAT     H163104   2.825   2.125   5.460
20954WAT     H263105   2.708   2.162   5.568
20955WAT      O63106   3.589   7.632   4.466
20955WAT     H163107   3.513   7.620   4.402
20955WAT     H263108   3.643   7.549   4.470
20956WAT      O63109   6.578   8.661   0.813
20956WAT     H163110   6.583   8.725   0.736
20956WAT     H263111   6.648   8.684   0.880
20957WAT      O63112   0.086   3.793   3.258
20957WAT     H163113   0.011   3.745   3.305
20957WAT     H263114   0.053   3.881   3.223
20958WAT      O63115   1.766   4.563   3.878
20958WAT     H163116   1.681   4.601   3.915
20958WAT     H263117   1.753   4.465   3.860
20959WAT      O63118   1.424   3.642   9.041
20959WAT     H163119   1.342   3.589   9.061
20959WAT     H263120   1.427   3.662   8.943
20960WAT      O63121   6.768   4.559   9.229
20960WAT     H163122   6.810   4.593   9.313
20960WAT     H263123   6.721   4.473   9.247
20961WAT      O63124   6.266   4.049   2.126
20961WAT     H163125   6.205   4.040   2.048
20961WAT     H263126   6.349   4.099   2.098
20962WAT      O63127   9.091   1.268   1.291
20962WAT     H163128   9.092   1.242   1.195
20962WAT     H263129   9.157   1.341   1.306
20963WAT      O63130   3.616   0.665   6.938
20963WAT     H163131   3.611   0.756   6.979
20963WAT     H263132   3.524   0.633   6.918
20964WAT      O63133   0.801   8.173   4.934
20964WAT     H163134   0.728   8.189   4.867
20964WAT     H263135   0.860   8.254   4.939
20965WAT      O63136   1.087   1.200   2.764
20965WAT     H163137   1.118   1.275   2.822
20965WAT     H263138   1.028   1.236   2.692
20966WAT      O63139   1.075   5.365   0.339
20966WAT     H163140   1.139   5.316   0.280
20966WAT     H263141   1.010   5.301   0.378
20967WAT      O63142   5.537   9.254   2.708
20967WAT     H163143   5.558   9.157   2.715
20967WAT     H263144   5.439   9.267   2.693
20968WAT      O63145   7.094   5.541   6.140
20968WAT     H163146   7.051   5.460   6.181
20968WAT     H263147   7.031   5.582   6.074
20969WAT      O63148   6.415   0.030   5.376
20969WAT     H163149   6.400  -0.051   5.320
20969WAT     H263150   6.352   0.102   5.348
20970WAT      O63151   3.693   3.281   6.727
20970WAT     H163152   3.756   3.230   6.785
20970WAT     H263153   3.603   3.238   6.730
20971WAT      O63154   1.253   7.494   6.056
20971WAT     H163155   1.338   7.441   6.055
20971WAT     H263156   1.176   7.432   6.072
20972WAT      O63157   2.191   5.387   6.023
20972WAT     H163158   2.211   5.312   5.960
20972WAT     H263159   2.277   5.433   6.047
20973WAT      O63160   5.727   8.870   5.408
20973WAT     H163161   5.727   8.897   5.311
20973WAT     H263162   5.813   8.826   5.430
20974WAT      O63163   5.776   7.077   6.327
20974WAT     H163164   5.792   7.020   6.246
20974WAT     H263165   5.823   7.037   6.405
20975WAT      O63166   6.177   8.907   1.481
20975WAT     H163167   6.213   8.944   1.566
20975WAT     H263168   6.220   8.819   1.462
20976WAT      O63169   5.036   6.768   4.378
20976WAT     H163170   4.976   6.796   4.303
20976WAT     H263171   5.067   6.675   4.363
20977WAT      O63172   9.198   9.496   1.306
20977WAT     H163173   9.203   9.580   1.253
20977WAT     H263174   9.188   9.518   1.403
20978WAT      O63175   1.345   0.429   6.469
20978WAT     H163176   1.293   0.513   6.455
20978WAT     H263177   1.434   0.438   6.424
20979WAT      O63178   5.426   2.170   7.589
20979WAT     H163179   5.520   2.187   7.616
20979WAT     H263180   5.364   2.201   7.661
20980WAT      O63181   4.916   7.054   4.527
20980WAT     H163182   4.977   7.006   4.464
20980WAT     H263183   4.969   7.087   4.605
20981WAT      O63184   2.479   8.346   9.058
20981WAT     H163185   2.539   8.321   9.133
20981WAT     H263186   2.531   8.352   8.973
20982WAT      O63187   6.181   2.612   5.647
20982WAT     H163188   6.123   2.673   5.594
20982WAT     H263189   6.249   2.571   5.586
20983WAT      O63190   4.578   7.993   5.850
20983WAT     H163191   4.565   8.089   5.826
20983WAT     H263192   4.533   7.974   5.937
20984WAT      O63193   5.493   2.646   8.719
20984WAT     H163194   5.592   2.635   8.708
20984WAT     H263195   5.461   2.723   8.662
20985WAT      O63196   3.483   9.524   1.209
20985WAT     H163197   3.513   9.439   1.253
20985WAT     H263198   3.422   9.574   1.271
20986WAT      O63199   3.662   7.947   6.466
20986WAT     H163200   3.570   7.911   6.456
20986WAT     H263201   3.700   7.920   6.554
20987WAT      O63202   8.769   3.095   3.593
20987WAT     H163203   8.712   3.042   3.655
20987WAT     H263204   8.845   3.039   3.561
20988WAT      O63205   4.047   3.628   6.665
20988WAT     H163206   3.983   3.695   6.703
20988WAT     H263207   4.015   3.536   6.686
20989WAT      O63208   4.170   9.354   4.875
20989WAT     H163209   4.270   9.356   4.881
20989WAT     H263210   4.139   9.262   4.854
20990WAT      O63211   1.136   5.485   5.329
20990WAT     H163212   1.232   5.456   5.328
20990WAT     H263213   1.078   5.405   5.346
20991WAT      O63214   4.083   4.306   6.592
20991WAT     H163215   4.062   4.394   6.548
20991WAT     H263216   4.022   4.235   6.555
20992WAT      O63217   0.129   4.132   4.360
20992WAT     H163218   0.036   4.117   4.394
20992WAT     H263219   0.187   4.161   4.436
20993WAT      O63220   2.648   6.545   1.615
20993WAT     H163221   2.679   6.633   1.579
20993WAT     H263222   2.666   6.541   1.714
20994WAT      O63223   7.289   0.177   0.827
20994WAT     H163224   7.356   0.111   0.792
20994WAT     H263225   7.335   0.264   0.846
20995WAT      O63226   0.316   3.782   0.782
20995WAT     H163227   0.361   3.694   0.767
20995WAT     H263228   0.380   3.845   0.824
20996WAT      O63229   3.161   5.293   4.885
20996WAT     H163230   3.136   5.372   4.828
20996WAT     H263231   3.131   5.309   4.979
20997WAT      O63232   1.924   5.208   1.427
20997WAT     H163233   1.945   5.244   1.337
20997WAT     H263234   1.896   5.283   1.488
20998WAT      O63235   1.197   8.379   2.681
20998WAT     H163236   1.150   8.439   2.616
20998WAT     H263237   1.193   8.285   2.649
20999WAT      O63238   1.215   5.751   4.368
20999WAT     H163239   1.152   5.829   4.379
20999WAT     H263240   1.170   5.668   4.401
21000WAT      O63241   1.658   9.415   0.409
21000WAT     H163242   1.607   9.345   0.358
21000WAT     H263243   1.717   9.370   0.477
21001WAT      O63244   8.016   9.646   5.049
21001WAT     H163245   8.028   9.569   4.986
21001WAT     H263246   8.060   9.625   5.136
21002WAT      O63247   3.558   5.725   8.705
21002WAT     H163248   3.535   5.746   8.610
21002WAT     H263249   3.497   5.775   8.766
21003WAT      O63250   6.639   2.561   6.254
21003WAT     H163251   6.623   2.547   6.157
21003WAT     H263252   6.683   2.480   6.293
21004WAT      O63253   8.858   8.387   7.707
21004WAT     H163254   8.901   8.473   7.736
21004WAT     H263255   8.760   8.402   7.695
21005WAT      O63256   0.824   4.787   2.855
21005WAT     H163257   0.845   4.718   2.786
21005WAT     H263258   0.825   4.745   2.946
21006WAT      O63259   7.041   6.766   0.938
21006WAT     H163260   7.138   6.777   0.959
21006WAT     H263261   6.999   6.707   1.007
21007WAT      O63262   2.720   3.794   4.243
21007WAT     H163263   2.627   3.757   4.247
21007WAT     H263264   2.744   3.834   4.331
21008WAT      O63265   5.842   5.111   9.137
21008WAT     H163266   5.923   5.073   9.181
21008WAT     H263267   5.870   5.169   9.060
21009WAT      O63268   6.708   0.687   1.736
21009WAT     H163269   6.653   0.749   1.792
21009WAT     H263270   6.777   0.740   1.687
21010WAT      O63271   6.602   0.180   7.728
21010WAT     H163272   6.650   0.237   7.794
21010WAT     H263273   6.630   0.085   7.740
21011WAT      O63274   2.397   6.566   2.198
21011WAT     H163275   2.478   6.592   2.251
21011WAT     H263276   2.421   6.561   2.101
21012WAT      O63277   8.359   4.955   7.189
21012WAT     H163278   8.414   5.034   7.213
21012WAT     H263279   8.268   4.985   7.160
21013WAT      O63280   6.618   5.228   2.400
21013WAT     H163281   6.603   5.177   2.485
21013WAT     H263282   6.547   5.206   2.334
21014WAT      O63283   5.233   5.842   0.117
21014WAT     H163284   5.215   5.838   0.018
21014WAT     H263285   5.231   5.938   0.146
21015WAT      O63286   8.163   5.417   0.610
21015WAT     H163287   8.072   5.406   0.650
21015WAT     H263288   8.158   5.479   0.533
21016WAT      O63289   4.825   1.388   6.131
21016WAT     H163290   4.728   1.414   6.135
21016WAT     H263291   4.880   1.455   6.180
21017WAT      O63292   1.082   8.624   9.371
21017WAT     H163293   1.134   8.634   9.286
21017WAT     H263294   0.984   8.617   9.350
21018WAT      O63295   1.601   6.355   9.445
21018WAT     H163296   1.538   6.290   9.401
21018WAT     H263297   1.566   6.380   9.535
21019WAT      O63298   7.012   7.547   1.806
21019WAT     H163299   7.021   7.616   1.877
21019WAT     H263300   7.082   7.562   1.736
21020WAT      O63301   0.968   5.907   1.341
21020WAT     H163302   0.966   6.003   1.372
21020WAT     H263303   0.902   5.895   1.267
21021WAT      O63304   8.225   1.185   4.140
21021WAT     H163305   8.150   1.245   4.114
21021WAT     H263306   8.312   1.226   4.110
21022WAT      O63307   4.290   8.878   4.059
21022WAT     H163308   4.345   8.957   4.032
21022WAT     H263309   4.194   8.905   4.069
21023WAT      O63310   7.362   8.961   5.063
21023WAT     H163311   7.339   9.058   5.064
21023WAT     H263312   7.460   8.949   5.077
21024WAT      O63313   8.195   4.164   4.445
21024WAT     H163314   8.130   4.178   4.370
21024WAT     H263315   8.201   4.066   4.466
21025WAT      O63316   3.588   7.293   8.810
21025WAT     H163317   3.542   7.260   8.892
21025WAT     H263318   3.682   7.319   8.833
21026WAT      O63319   2.648   4.363   0.437
21026WAT     H163320   2.724   4.341   0.376
21026WAT     H263321   2.586   4.427   0.391
21027WAT      O63322   8.326   9.185   5.932
21027WAT     H163323   8.230   9.211   5.926
21027WAT     H263324   8.337   9.109   5.996
21028WAT      O63325   1.943   9.578   6.007
21028WAT     H163326   1.974   9.574   6.102
21028WAT     H263327   1.974   9.496   5.959
21029WAT      O63328   5.442   4.929   9.360
21029WAT     H163329   5.373   4.981   9.309
21029WAT     H263330   5.527   4.982   9.364
21030WAT      O63331   3.834   9.817   6.080
21030WAT     H163332   3.778   9.872   6.018
21030WAT     H263333   3.929   9.846   6.073
21031WAT      O63334   8.268   1.577   4.286
21031WAT     H163335   8.336   1.549   4.355
21031WAT     H263336   8.313   1.584   4.197
21032WAT      O63337   1.087   6.072   3.754
21032WAT     H163338   1.105   5.980   3.790
21032WAT     H263339   1.101   6.071   3.655
21033WAT      O63340   5.179   3.487   9.212
21033WAT     H163341   5.215   3.580   9.212
21033WAT     H263342   5.081   3.488   9.189
21034WAT      O63343   9.573   1.468   5.671
21034WAT     H163344   9.477   1.442   5.662
21034WAT     H263345   9.630   1.406   5.616
21035WAT      O63346   4.063   2.674   9.264
21035WAT     H163347   3.965   2.662   9.250
21035WAT     H263348   4.109   2.680   9.175
21036WAT      O63349   6.094   1.877   7.160
21036WAT     H163350   6.081   1.884   7.259
21036WAT     H263351   6.190   1.855   7.141
21037WAT      O63352   1.237   0.402   2.349
21037WAT     H163353   1.233   0.302   2.360
21037WAT     H263354   1.266   0.424   2.256
21038WAT      O63355   9.128   0.619   2.732
21038WAT     H163356   9.084   0.535   2.764
21038WAT     H263357   9.062   0.676   2.685
21039WAT      O63358   3.050   9.209   8.074
21039WAT     H163359   2.970   9.172   8.026
21039WAT     H263360   3.079   9.294   8.029
21040WAT      O63361   5.027   2.034   8.248
21040WAT     H163362   5.081   1.950   8.250
21040WAT     H263363   5.045   2.087   8.331
21041WAT      O63364   9.273   8.126   7.756
21041WAT     H163365   9.201   8.172   7.808
21041WAT     H263366   9.244   8.034   7.733
21042WAT      O63367   4.517   7.198   9.562
21042WAT     H163368   4.436   7.254   9.546
21042WAT     H263369   4.562   7.179   9.474
21043WAT      O63370   5.068   0.796   7.608
21043WAT     H163371   5.094   0.711   7.563
21043WAT     H263372   4.976   0.822   7.578
21044WAT      O63373   5.717   0.787   6.942
21044WAT     H163374   5.704   0.691   6.917
21044WAT     H263375   5.729   0.794   7.041
21045WAT      O63376   5.219   5.338   0.683
21045WAT     H163377   5.208   5.413   0.618
21045WAT     H263378   5.259   5.259   0.637
21046WAT      O63379   5.321   0.949   4.746
21046WAT     H163380   5.337   0.865   4.797
21046WAT     H263381   5.251   1.004   4.792
21047WAT      O63382   7.190   4.296   8.329
21047WAT     H163383   7.236   4.238   8.396
21047WAT     H263384   7.202   4.392   8.354
21048WAT      O63385   9.607   0.835   2.782
21048WAT     H163386   9.607   0.910   2.716
21048WAT     H263387   9.514   0.799   2.791
21049WAT      O63388   7.947   2.075   0.530
21049WAT     H163389   8.040   2.103   0.508
21049WAT     H263390   7.902   2.146   0.584
21050WAT      O63391   4.186   3.126   7.195
21050WAT     H163392   4.121   3.051   7.198
21050WAT     H263393   4.177   3.183   7.276
21051WAT      O63394   1.796   7.260   3.774
21051WAT     H163395   1.883   7.277   3.820
21051WAT     H263396   1.791   7.316   3.691
21052WAT      O63397   0.714   9.817   3.495
21052WAT     H163398   0.680   9.797   3.587
21052WAT     H263399   0.813   9.802   3.492
21053WAT      O63400   4.000   7.157   2.971
21053WAT     H163401   3.930   7.087   2.954
21053WAT     H263402   4.055   7.170   2.888
21054WAT      O63403   3.827   6.368   1.467
21054WAT     H163404   3.917   6.410   1.468
21054WAT     H263405   3.836   6.269   1.477
21055WAT      O63406   1.443   6.713   5.523
21055WAT     H163407   1.424   6.752   5.433
21055WAT     H263408   1.386   6.758   5.591
21056WAT      O63409   0.720   0.821   3.183
21056WAT     H163410   0.654   0.757   3.222
21056WAT     H263411   0.718   0.907   3.234
21057WAT      O63412   0.102   0.122   7.083
21057WAT     H163413   0.028   0.174   7.041
21057WAT     H263414   0.107   0.031   7.041
21058WAT      O63415   2.884   1.571   1.437
21058WAT     H163416   2.941   1.500   1.478
21058WAT     H263417   2.896   1.571   1.338
21059WAT      O63418   7.942   8.633   6.792
21059WAT     H163419   7.997   8.629   6.875
21059WAT     H263420   7.895   8.721   6.787
21060WAT      O63421   2.201   1.208   2.855
21060WAT     H163422   2.179   1.118   2.893
21060WAT     H263423   2.224   1.199   2.758
21061WAT      O63424   6.568   6.423   1.836
21061WAT     H163425   6.536   6.502   1.888
21061WAT     H263426   6.639   6.376   1.887
21062WAT      O63427   0.430   0.984   5.407
21062WAT     H163428   0.457   0.968   5.502
21062WAT     H263429   0.498   1.040   5.362
21063WAT      O63430   2.479   0.776   2.388
21063WAT     H163431   2.393   0.805   2.431
21063WAT     H263432   2.457   0.721   2.307
21064WAT      O63433   7.793   6.005   1.822
21064WAT     H163434   7.816   5.930   1.761
21064WAT     H263435   7.705   6.045   1.795
21065WAT      O63436   2.628   5.325   2.098
21065WAT     H163437   2.704   5.264   2.075
21065WAT     H263438   2.602   5.311   2.193
21066WAT      O63439   7.334   4.555   4.335
21066WAT     H163440   7.331   4.587   4.430
21066WAT     H263441   7.387   4.620   4.280
21067WAT      O63442   7.232   7.342   4.408
21067WAT     H163443   7.176   7.303   4.482
21067WAT     H263444   7.328   7.330   4.430
21068WAT      O63445   2.607   6.004   5.144
21068WAT     H163446   2.612   5.909   5.112
21068WAT     H263447   2.596   6.065   5.066
21069WAT      O63448   7.450   1.624   9.486
21069WAT     H163449   7.468   1.627   9.584
21069WAT     H263450   7.368   1.570   9.468
21070WAT      O63451   7.506   7.498   8.558
21070WAT     H163452   7.551   7.414   8.588
21070WAT     H263453   7.409   7.495   8.583
21071WAT      O63454   8.496   7.864   1.852
21071WAT     H163455   8.401   7.876   1.823
21071WAT     H263456   8.532   7.951   1.886
21072WAT      O63457   7.938   6.355   4.120
21072WAT     H163458   8.032   6.389   4.126
21072WAT     H263459   7.874   6.429   4.140
21073WAT      O63460   9.254   7.700   6.602
21073WAT     H163461   9.234   7.617   6.550
21073WAT     H263462   9.226   7.780   6.549
21074WAT      O63463   5.779   9.468   8.843
21074WAT     H163464   5.841   9.483   8.921
21074WAT     H263465   5.770   9.370   8.826
21075WAT      O63466   2.446   9.123   3.293
21075WAT     H163467   2.352   9.144   3.267
21075WAT     H263468   2.474   9.182   3.369
21076WAT      O63469   0.340   8.382   0.658
21076WAT     H163470   0.325   8.320   0.581
21076WAT     H263471   0.407   8.341   0.720
21077WAT      O63472   6.711   9.672   1.469
21077WAT     H163473   6.794   9.687   1.523
21077WAT     H263474   6.723   9.591   1.411
21078WAT      O63475   6.578   2.042   4.950
21078WAT     H163476   6.557   2.053   5.047
21078WAT     H263477   6.498   2.064   4.896
21079WAT      O63478   4.315   3.097   9.552
21079WAT     H163479   4.344   3.192   9.560
21079WAT     H263480   4.234   3.092   9.493
21080WAT      O63481   9.717   8.692   9.664
21080WAT     H163482   9.741   8.677   9.568
21080WAT     H263483   9.653   8.768   9.671
21081WAT      O63484   7.503   6.678   8.712
21081WAT     H163485   7.485   6.644   8.620
21081WAT     H263486   7.601   6.691   8.725
21082WAT      O63487   5.332   2.713   5.460
21082WAT     H163488   5.347   2.624   5.503
21082WAT     H263489   5.379   2.716   5.372
21083WAT      O63490   1.683   6.053   7.562
21083WAT     H163491   1.762   6.099   7.521
21083WAT     H263492   1.599   6.092   7.524
21084WAT      O63493   0.300   3.928   8.764
21084WAT     H163494   0.228   3.879   8.714
21084WAT     H263495   0.263   4.013   8.801
21085WAT      O63496   6.264   9.475   0.329
21085WAT     H163497   6.188   9.499   0.270
21085WAT     H263498   6.319   9.557   0.347
21086WAT      O63499   2.507   1.197   2.165
21086WAT     H163500   2.600   1.163   2.177
21086WAT     H263501   2.442   1.130   2.203
21087WAT      O63502   0.134   7.632   1.968
21087WAT     H163503   0.088   7.589   1.890
21087WAT     H263504   0.121   7.731   1.964
21088WAT      O63505   0.928   0.997   1.371
21088WAT     H163506   0.853   1.063   1.364
21088WAT     H263507   0.924   0.934   1.293
21089WAT      O63508   0.334   2.907   3.657
21089WAT     H163509   0.300   2.859   3.738
21089WAT     H263510   0.354   3.002   3.680
21090WAT      O63511   2.809   1.587   2.630
21090WAT     H163512   2.834   1.512   2.569
21090WAT     H263513   2.714   1.577   2.658
21091WAT      O63514   1.812   3.628   0.541
21091WAT     H163515   1.779   3.613   0.447
21091WAT     H263516   1.901   3.674   0.538
21092WAT      O63517   7.449   8.412   4.110
21092WAT     H163518   7.382   8.473   4.068
21092WAT     H263519   7.503   8.367   4.039
21093WAT      O63520   8.426   5.330   7.062
21093WAT     H163521   8.503   5.391   7.044
21093WAT     H263522   8.438   5.245   7.010
21094WAT      O63523   4.500   3.702   6.888
21094WAT     H163524   4.475   3.747   6.802
21094WAT     H263525   4.433   3.630   6.907
21095WAT      O63526   6.087   1.476   5.919
21095WAT     H163527   6.082   1.560   5.973
21095WAT     H263528   6.057   1.495   5.825
21096WAT      O63529   4.709   6.394   8.142
21096WAT     H163530   4.712   6.296   8.121
21096WAT     H263531   4.628   6.413   8.197
21097WAT      O63532   5.641   5.592   9.603
21097WAT     H163533   5.582   5.627   9.530
21097WAT     H263534   5.657   5.663   9.671
21098WAT      O63535   7.614   3.299   3.784
21098WAT     H163536   7.696   3.267   3.832
21098WAT     H263537   7.559   3.354   3.847
21099WAT      O63538   5.551   1.819   1.749
21099WAT     H163539   5.513   1.908   1.723
21099WAT     H263540   5.623   1.833   1.817
21100WAT      O63541   3.892   2.488   2.201
21100WAT     H163542   3.832   2.424   2.249
21100WAT     H263543   3.842   2.531   2.126
21101WAT      O63544   3.506   8.969   5.844
21101WAT     H163545   3.596   8.939   5.812
21101WAT     H263546   3.518   9.025   5.927
21102WAT      O63547   9.147   4.474   0.065
21102WAT     H163548   9.183   4.441  -0.022
21102WAT     H263549   9.105   4.565   0.051
21103WAT      O63550   2.788   5.930   8.288
21103WAT     H163551   2.852   5.874   8.236
21103WAT     H263552   2.713   5.958   8.229
21104WAT      O63553   8.074   3.410   5.989
21104WAT     H163554   8.038   3.483   5.932
21104WAT     H263555   8.166   3.434   6.019
21105WAT      O63556   7.873   0.249   4.644
21105WAT     H163557   7.792   0.215   4.691
21105WAT     H263558   7.854   0.258   4.546
21106WAT      O63559   0.463   0.355   5.597
21106WAT     H163560   0.492   0.444   5.634
21106WAT     H263561   0.451   0.290   5.672
21107WAT      O63562   3.164   4.360   1.481
21107WAT     H163563   3.190   4.291   1.549
21107WAT     H263564   3.227   4.437   1.486
21108WAT      O63565   8.716   1.217   0.908
21108WAT     H163566   8.659   1.141   0.938
21108WAT     H263567   8.681   1.303   0.945
21109WAT      O63568   7.321   0.801   1.895
21109WAT     H163569   7.251   0.762   1.953
21109WAT     H263570   7.309   0.768   1.801
21110WAT      O63571   0.680   0.177   0.837
21110WAT     H163572   0.738   0.103   0.872
21110WAT     H263573   0.652   0.237   0.912
21111WAT      O63574   4.551   9.360   0.061
21111WAT     H163575   4.503   9.273   0.064
21111WAT     H263576   4.637   9.354   0.112
21112WAT      O63577   4.895   1.762   8.372
21112WAT     H163578   4.887   1.791   8.277
21112WAT     H263579   4.805   1.763   8.415
21113WAT      O63580   8.656   4.286   3.708
21113WAT     H163581   8.756   4.288   3.720
21113WAT     H263582   8.632   4.217   3.640
21114WAT      O63583   1.997   7.619   0.264
21114WAT     H163584   1.924   7.568   0.217
21114WAT     H263585   2.070   7.640   0.199
21115WAT      O63586   7.962   4.754   0.615
21115WAT     H163587   8.027   4.795   0.552
21115WAT     H263588   7.869   4.776   0.585
21116WAT      O63589   8.490   1.782   9.735
21116WAT     H163590   8.491   1.848   9.809
21116WAT     H263591   8.396   1.773   9.700
21117WAT      O63592   8.131   7.077   6.327
21117WAT     H163593   8.114   7.025   6.411
21117WAT     H263594   8.053   7.138   6.310
21118WAT      O63595   7.847   1.241   0.923
21118WAT     H163596   7.927   1.256   0.866
21118WAT     H263597   7.843   1.145   0.950
21119WAT      O63598   3.496   9.365   3.920
21119WAT     H163599   3.412   9.315   3.900
21119WAT     H263600   3.510   9.436   3.851
21120WAT      O63601   6.040   0.424   5.627
21120WAT     H163602   6.014   0.520   5.626
21120WAT     H263603   6.082   0.402   5.715
21121WAT      O63604   9.253   3.603   3.548
21121WAT     H163605   9.201   3.531   3.502
21121WAT     H263606   9.283   3.571   3.638
21122WAT      O63607   2.577   3.518   2.589
21122WAT     H163608   2.666   3.484   2.619
21122WAT     H263609   2.560   3.607   2.632
21123WAT      O63610   4.411   2.475   8.854
21123WAT     H163611   4.483   2.463   8.923
21123WAT     H263612   4.328   2.430   8.885
21124WAT      O63613   8.487   0.765   1.512
21124WAT     H163614   8.455   0.813   1.593
21124WAT     H263615   8.446   0.674   1.508
21125WAT      O63616   5.502   4.543   8.477
21125WAT     H163617   5.461   4.549   8.568
21125WAT     H263618   5.434   4.567   8.408
21126WAT      O63619   9.595   5.760   0.871
21126WAT     H163620   9.654   5.813   0.811
21126WAT     H263621   9.530   5.821   0.917
21127WAT      O63622   5.220   1.762   9.579
21127WAT     H163623   5.282   1.826   9.534
21127WAT     H263624   5.273   1.695   9.632
21128WAT      O63625   9.532   4.003   2.085
21128WAT     H163626   9.592   4.081   2.105
21128WAT     H263627   9.482   4.020   2.001
21129WAT      O63628   3.831   0.167   5.282
21129WAT     H163629   3.786   0.103   5.345
21129WAT     H263630   3.903   0.119   5.232
21130WAT      O63631   5.125   8.762   5.544
21130WAT     H163632   5.062   8.760   5.466
21130WAT     H263633   5.107   8.685   5.604
21131WAT      O63634   7.499   6.861   9.442
21131WAT     H163635   7.437   6.849   9.520
21131WAT     H263636   7.594   6.866   9.475
21132WAT      O63637   9.458   9.249   8.433
21132WAT     H163638   9.487   9.240   8.338
21132WAT     H263639   9.532   9.219   8.494
21133WAT      O63640   6.250   6.316   0.630
21133WAT     H163641   6.166   6.261   0.638
21133WAT     H263642   6.262   6.371   0.714
21134WAT      O63643   9.867   9.258   5.298
21134WAT     H163644   9.795   9.217   5.353
21134WAT     H263645   9.915   9.187   5.247
21135WAT      O63646   6.684   4.775   4.904
21135WAT     H163647   6.706   4.764   5.001
21135WAT     H263648   6.729   4.857   4.869
21136WAT      O63649   3.264   1.090   3.140
21136WAT     H163650   3.253   1.106   3.042
21136WAT     H263651   3.346   1.035   3.156
21137WAT      O63652   9.360   1.684   3.773
21137WAT     H163653   9.265   1.704   3.746
21137WAT     H263654   9.419   1.688   3.692
21138WAT      O63655   9.041   7.910   8.342
21138WAT     H163656   8.952   7.865   8.334
21138WAT     H263657   9.067   7.948   8.252
21139WAT      O63658   0.106   3.380   0.189
21139WAT     H163659   0.015   3.356   0.225
21139WAT     H263660   0.171   3.310   0.218
21140WAT      O63661   4.739   1.671   9.068
21140WAT     H163662   4.700   1.751   9.020
21140WAT     H263663   4.791   1.616   9.003
21141WAT      O63664   8.772   2.744   3.792
21141WAT     H163665   8.834   2.704   3.859
21141WAT     H263666   8.750   2.676   3.722
21142WAT      O63667   3.928   3.339   2.972
21142WAT     H163668   3.886   3.283   2.901
21142WAT     H263669   4.016   3.374   2.940
21143WAT      O63670   8.200   3.912   5.394
21143WAT     H163671   8.205   3.842   5.465
21143WAT     H263672   8.270   3.982   5.410
21144WAT      O63673   6.681   5.476   1.423
21144WAT     H163674   6.610   5.473   1.353
21144WAT     H263675   6.742   5.554   1.407
21145WAT      O63676   6.967   9.022   1.325
21145WAT     H163677   7.054   9.052   1.362
21145WAT     H263678   6.964   9.039   1.226
21146WAT      O63679   4.859   2.846   9.077
21146WAT     H163680   4.875   2.779   9.149
21146WAT     H263681   4.801   2.806   9.007
21147WAT      O63682   9.829   6.827   5.638
21147WAT     H163683   9.852   6.837   5.541
21147WAT     H263684   9.739   6.866   5.655
21148WAT      O63685   5.188   8.680   3.698
21148WAT     H163686   5.131   8.751   3.656
21148WAT     H263687   5.284   8.698   3.677
21149WAT      O63688   1.123   6.993   2.971
21149WAT     H163689   1.149   6.942   3.053
21149WAT     H263690   1.184   6.967   2.895
21150WAT      O63691   7.435   2.525   4.115
21150WAT     H163692   7.534   2.510   4.112
21150WAT     H263693   7.391   2.447   4.159
21151WAT      O63694   2.924   8.886   3.540
21151WAT     H163695   2.983   8.831   3.482
21151WAT     H263696   2.920   8.979   3.504
21152WAT      O63697   7.668   8.578   2.307
21152WAT     H163698   7.707   8.605   2.218
21152WAT     H263699   7.570   8.564   2.297
21153WAT      O63700   7.166   5.715   1.342
21153WAT     H163701   7.099   5.684   1.274
21153WAT     H263702   7.187   5.812   1.325
21154WAT      O63703   1.895   6.989   7.185
21154WAT     H163704   1.853   6.898   7.191
21154WAT     H263705   1.993   6.979   7.168
21155WAT      O63706   2.276   8.126   8.009
21155WAT     H163707   2.351   8.145   8.072
21155WAT     H263708   2.248   8.031   8.019
21156WAT      O63709   7.032   1.201   1.458
21156WAT     H163710   7.105   1.210   1.391
21156WAT     H263711   6.975   1.122   1.436
21157WAT      O63712   2.647   2.808   6.344
21157WAT     H163713   2.647   2.874   6.419
21157WAT     H263714   2.710   2.733   6.365
21158WAT      O63715   8.149   1.917   2.822
21158WAT     H163716   8.144   1.976   2.741
21158WAT     H263717   8.129   1.823   2.797
21159WAT      O63718   6.031   1.792   5.592
21159WAT     H163719   6.130   1.780   5.592
21159WAT     H263720   6.009   1.885   5.562
21160WAT      O63721   1.834   8.724   4.407
21160WAT     H163722   1.808   8.630   4.430
21160WAT     H263723   1.818   8.783   4.485
21161WAT      O63724   2.220   6.329   6.540
21161WAT     H163725   2.304   6.366   6.579
21161WAT     H263726   2.241   6.275   6.459
21162WAT      O63727   4.785   6.503   4.244
21162WAT     H163728   4.791   6.450   4.159
21162WAT     H263729   4.733   6.452   4.312
21163WAT      O63730   9.545   4.303   6.055
21163WAT     H163731   9.635   4.262   6.069
21163WAT     H263732   9.474   4.232   6.061
21164WAT      O63733   7.170   3.520   3.498
21164WAT     H163734   7.220   3.539   3.582
21164WAT     H263735   7.186   3.426   3.469
21165WAT      O63736   7.614   3.690   2.340
21165WAT     H163737   7.611   3.789   2.325
21165WAT     H263738   7.624   3.671   2.438
21166WAT      O63739   2.586   3.665   7.573
21166WAT     H163740   2.579   3.611   7.657
21166WAT     H263741   2.678   3.655   7.534
21167WAT      O63742   2.064   2.289   9.321
21167WAT     H163743   1.983   2.245   9.359
21167WAT     H263744   2.066   2.276   9.222
21168WAT      O63745   4.877   4.737   2.819
21168WAT     H163746   4.938   4.740   2.898
21168WAT     H263747   4.928   4.711   2.738
21169WAT      O63748   5.821   7.104   1.909
21169WAT     H163749   5.767   7.077   1.989
21169WAT     H263750   5.869   7.024   1.873
21170WAT      O63751   1.318   4.555   4.907
21170WAT     H163752   1.271   4.511   4.983
21170WAT     H263753   1.261   4.549   4.825
21171WAT      O63754   7.418   3.274   8.753
21171WAT     H163755   7.331   3.228   8.738
21171WAT     H263756   7.402   3.372   8.764
21172WAT      O63757   1.239   2.003   4.522
21172WAT     H163758   1.153   1.956   4.502
21172WAT     H263759   1.278   1.967   4.606
21173WAT      O63760   1.416   2.550   9.617
21173WAT     H163761   1.464   2.534   9.530
21173WAT     H263762   1.376   2.642   9.617
21174WAT      O63763   4.934   6.441   8.333
21174WAT     H163764   4.861   6.406   8.274
21174WAT     H263765   4.959   6.371   8.400
21175WAT      O63766   3.286   7.575   7.421
21175WAT     H163767   3.229   7.652   7.451
21175WAT     H263768   3.356   7.557   7.490
21176WAT      O63769   7.710   2.983   0.457
21176WAT     H163770   7.789   2.923   0.452
21176WAT     H263771   7.639   2.940   0.514
21177WAT      O63772   4.678   9.103   3.160
21177WAT     H163773   4.636   9.124   3.072
21177WAT     H263774   4.607   9.090   3.229
21178WAT      O63775   5.936   4.691   9.780
21178WAT     H163776   5.888   4.778   9.781
21178WAT     H263777   5.907   4.637   9.701
21179WAT      O63778   5.496   1.331   7.307
21179WAT     H163779   5.482   1.271   7.386
21179WAT     H263780   5.519   1.276   7.227
21180WAT      O63781   1.231   6.507   2.362
21180WAT     H163782   1.167   6.549   2.426
21180WAT     H263783   1.322   6.547   2.374
21181WAT      O63784   5.000   1.393   5.079
21181WAT     H163785   5.029   1.488   5.081
21181WAT     H263786   4.952   1.374   4.993
21182WAT      O63787   4.091   8.903   7.669
21182WAT     H163788   4.141   8.817   7.676
21182WAT     H263789   4.139   8.974   7.721
21183WAT      O63790   7.406   0.045   2.291
21183WAT     H163791   7.456  -0.041   2.295
21183WAT     H263792   7.341   0.042   2.215
21184WAT      O63793   0.709   1.521   9.278
21184WAT     H163794   0.694   1.618   9.255
21184WAT     H263795   0.659   1.499   9.361
21185WAT      O63796   5.133   1.332   6.134
21185WAT     H163797   5.081   1.300   6.055
21185WAT     H263798   5.071   1.377   6.198
21186WAT      O63799   5.282   6.910   9.537
21186WAT     H163800   5.247   6.840   9.599
21186WAT     H263801   5.354   6.963   9.583
21187WAT      O63802   3.655   2.325   0.548
21187WAT     H163803   3.594   2.247   0.532
21187WAT     H263804   3.600   2.404   0.576
21188WAT      O63805   3.259   1.862   1.787
21188WAT     H163806   3.172   1.892   1.748
21188WAT     H263807   3.300   1.792   1.728
21189WAT      O63808   8.374   9.406   0.329
21189WAT     H163809   8.301   9.389   0.395
21189WAT     H263810   8.359   9.493   0.283
21190WAT      O63811   4.164   2.031   7.356
21190WAT     H163812   4.154   2.110   7.297
21190WAT     H263813   4.073   1.994   7.378
21191WAT      O63814   3.853   0.467   0.554
21191WAT     H163815   3.760   0.503   0.560
21191WAT     H263816   3.910   0.509   0.624
21192WAT      O63817   8.810   2.409   5.076
21192WAT     H163818   8.880   2.343   5.049
21192WAT     H263819   8.778   2.459   4.996
21193WAT      O63820   9.176   5.617   7.963
21193WAT     H163821   9.227   5.538   7.999
21193WAT     H263822   9.079   5.604   7.980
21194WAT      O63823   6.801   6.520   4.625
21194WAT     H163824   6.712   6.549   4.659
21194WAT     H263825   6.847   6.463   4.693
21195WAT      O63826   6.860   7.004   6.196
21195WAT     H163827   6.899   6.953   6.119
21195WAT     H263828   6.920   7.080   6.219
21196WAT      O63829   9.032   7.058   5.105
21196WAT     H163830   9.062   7.040   5.199
21196WAT     H263831   8.956   6.997   5.083
21197WAT      O63832   2.460   4.963   0.262
21197WAT     H163833   2.405   5.005   0.191
21197WAT     H263834   2.412   4.884   0.300
21198WAT      O63835   3.385   9.295   3.369
21198WAT     H163836   3.364   9.288   3.271
21198WAT     H263837   3.351   9.213   3.415
21199WAT      O63838   1.224   2.429   3.637
21199WAT     H163839   1.193   2.388   3.551
21199WAT     H263840   1.180   2.518   3.649
21200WAT      O63841   7.015   6.191   0.269
21200WAT     H163842   7.013   6.125   0.344
21200WAT     H263843   7.106   6.231   0.263
21201WAT      O63844   1.510   6.143   7.212
21201WAT     H163845   1.529   6.164   7.116
21201WAT     H263846   1.501   6.044   7.224
21202WAT      O63847   0.371   5.372   7.258
21202WAT     H163848   0.277   5.357   7.228
21202WAT     H263849   0.371   5.416   7.348
21203WAT      O63850   7.727   4.234   5.624
21203WAT     H163851   7.799   4.165   5.622
21203WAT     H263852   7.671   4.227   5.542
21204WAT      O63853   1.490   4.739   1.160
21204WAT     H163854   1.499   4.750   1.259
21204WAT     H263855   1.466   4.827   1.118
21205WAT      O63856   2.455   1.592   7.742
21205WAT     H163857   2.378   1.630   7.795
21205WAT     H263858   2.441   1.495   7.728
21206WAT      O63859   7.876   2.489   5.614
21206WAT     H163860   7.844   2.496   5.519
21206WAT     H263861   7.909   2.397   5.632
21207WAT      O63862   5.224   3.690   5.797
21207WAT     H163863   5.134   3.729   5.777
21207WAT     H263864   5.213   3.594   5.823
21208WAT      O63865   8.368   2.653   2.193
21208WAT     H163866   8.296   2.699   2.141
21208WAT     H263867   8.448   2.712   2.200
21209WAT      O63868   4.162   2.502   7.842
21209WAT     H163869   4.167   2.419   7.785
21209WAT     H263870   4.068   2.512   7.876
21210WAT      O63871   8.419   9.522   5.538
21210WAT     H163872   8.392   9.577   5.459
21210WAT     H263873   8.468   9.579   5.604
21211WAT      O63874   0.864   4.667   0.318
21211WAT     H163875   0.945   4.607   0.315
21211WAT     H263876   0.874   4.732   0.393
21212WAT      O63877   2.425   5.274   5.666
21212WAT     H163878   2.466   5.363   5.688
21212WAT     H263879   2.438   5.255   5.569
21213WAT      O63880   5.373   0.636   3.827
21213WAT     H163881   5.408   0.606   3.916
21213WAT     H263882   5.344   0.732   3.833
21214WAT      O63883   7.004   5.631   9.472
21214WAT     H163884   6.922   5.626   9.414
21214WAT     H263885   7.085   5.630   9.413
21215WAT      O63886   8.576   2.675   1.898
21215WAT     H163887   8.591   2.743   1.970
21215WAT     H263888   8.560   2.586   1.939
21216WAT      O63889   8.672   6.422   4.365
21216WAT     H163890   8.575   6.444   4.351
21216WAT     H263891   8.702   6.456   4.454
21217WAT      O63892   5.143   9.305   7.929
21217WAT     H163893   5.069   9.283   7.865
21217WAT     H263894   5.206   9.370   7.887
21218WAT      O63895   0.789   5.965   2.421
21218WAT     H163896   0.820   5.908   2.498
21218WAT     H263897   0.861   5.972   2.353
21219WAT      O63898   4.707   8.293   9.615
21219WAT     H163899   4.801   8.324   9.625
21219WAT     H263900   4.646   8.359   9.660
21220WAT      O63901   3.367   7.391   9.671
21220WAT     H163902   3.289   7.443   9.706
21220WAT     H263903   3.333   7.310   9.623
21221WAT      O63904   3.848   4.798   7.095
21221WAT     H163905   3.875   4.764   7.005
21221WAT     H263906   3.929   4.803   7.154
21222WAT      O63907   2.881   2.824   8.915
21222WAT     H163908   2.874   2.786   8.823
21222WAT     H263909   2.819   2.902   8.924
21223WAT      O63910   8.589   5.886   8.847
21223WAT     H163911   8.666   5.950   8.848
21223WAT     H263912   8.622   5.795   8.872
21224WAT      O63913   6.685   5.736   4.053
21224WAT     H163914   6.766   5.782   4.087
21224WAT     H263915   6.666   5.656   4.109
21225WAT      O63916   3.332   7.524   3.689
21225WAT     H163917   3.243   7.499   3.651
21225WAT     H263918   3.333   7.621   3.712
21226WAT      O63919   7.518   9.420   0.939
21226WAT     H163920   7.582   9.400   1.013
21226WAT     H263921   7.521   9.518   0.920
21227WAT      O63922   8.473   4.225   7.137
21227WAT     H163923   8.415   4.219   7.219
21227WAT     H263924   8.446   4.152   7.073
21228WAT      O63925   8.825   4.887   6.093
21228WAT     H163926   8.769   4.806   6.075
21228WAT     H263927   8.772   4.953   6.146
21229WAT      O63928   8.733   3.899   4.856
21229WAT     H163929   8.658   3.958   4.886
21229WAT     H263930   8.820   3.934   4.893
21230WAT      O63931   1.338   1.167   7.057
21230WAT     H163932   1.332   1.077   7.013
21230WAT     H263933   1.293   1.235   6.999
21231WAT      O63934   7.526   9.081   2.988
21231WAT     H163935   7.496   9.011   2.922
21231WAT     H263936   7.477   9.166   2.971
21232WAT      O63937   8.598   8.191   7.914
21232WAT     H163938   8.647   8.116   7.870
21232WAT     H263939   8.560   8.159   8.001
21233WAT      O63940   8.097   0.070   9.824
21233WAT     H163941   8.164  -0.004   9.819
21233WAT     H263942   8.098   0.121   9.738
21234WAT      O63943   0.445   0.633   4.160
21234WAT     H163944   0.384   0.618   4.238
21234WAT     H263945   0.444   0.551   4.101
21235WAT      O63946   7.742   0.927   4.154
21235WAT     H163947   7.718   0.938   4.058
21235WAT     H263948   7.661   0.896   4.205
21236WAT      O63949   4.606   5.663   5.220
21236WAT     H163950   4.613   5.596   5.146
21236WAT     H263951   4.572   5.618   5.303
21237WAT      O63952   2.984   0.539   7.004
21237WAT     H163953   2.941   0.464   7.053
21237WAT     H263954   3.075   0.557   7.044
21238WAT      O63955   3.207   9.346   7.563
21238WAT     H163956   3.122   9.382   7.602
21238WAT     H263957   3.279   9.415   7.570
21239WAT      O63958   6.519   6.957   8.779
21239WAT     H163959   6.527   6.972   8.680
21239WAT     H263960   6.426   6.927   8.800
21240WAT      O63961   5.262   2.275   3.427
21240WAT     H163962   5.291   2.197   3.483
21240WAT     H263963   5.173   2.308   3.459
21241WAT      O63964   0.345   8.061   4.181
21241WAT     H163965   0.247   8.045   4.191
21241WAT     H263966   0.395   8.001   4.244
21242WAT      O63967   2.070   9.268   3.867
21242WAT     H163968   2.025   9.211   3.798
21242WAT     H263969   2.014   9.348   3.886
21243WAT      O63970   6.236   7.438   8.488
21243WAT     H163971   6.322   7.392   8.465
21243WAT     H263972   6.250   7.499   8.566
21244WAT      O63973   1.380   7.822   0.344
21244WAT     H163974   1.407   7.805   0.249
21244WAT     H263975   1.375   7.920   0.360
21245WAT      O63976   8.158   4.306   8.968
21245WAT     H163977   8.134   4.225   8.915
21245WAT     H263978   8.225   4.282   9.038
21246WAT      O63979   2.442   4.958   0.687
21246WAT     H163980   2.452   5.004   0.775
21246WAT     H263981   2.504   4.880   0.684
21247WAT      O63982   3.445   7.519   2.726
21247WAT     H163983   3.397   7.596   2.770
21247WAT     H263984   3.381   7.470   2.667
21248WAT      O63985   1.300   6.262   2.211
21248WAT     H163986   1.280   6.183   2.270
21248WAT     H263987   1.283   6.346   2.262
21249WAT      O63988   3.911   4.170   9.702
21249WAT     H163989   3.997   4.129   9.670
21249WAT     H263990   3.834   4.121   9.659
21250WAT      O63991   4.333   6.889   9.380
21250WAT     H163992   4.241   6.882   9.419
21250WAT     H263993   4.398   6.842   9.440
21251WAT      O63994   3.695   6.588   7.337
21251WAT     H163995   3.660   6.506   7.293
21251WAT     H263996   3.621   6.634   7.386
21252WAT      O63997   3.933   1.465   4.112
21252WAT     H163998   3.905   1.560   4.098
21252WAT     H263999   3.857   1.414   4.153
21253WAT      O64000   9.492   5.072   8.690
21253WAT     H164001   9.493   4.983   8.644
21253WAT     H264002   9.423   5.131   8.648
21254WAT      O64003   6.133   5.418   8.730
21254WAT     H164004   6.152   5.328   8.769
21254WAT     H264005   6.044   5.417   8.685
21255WAT      O64006   5.020   4.070   6.974
21255WAT     H164007   5.098   4.128   6.997
21255WAT     H264008   5.032   4.034   6.881
21256WAT      O64009   8.887   9.764   0.812
21256WAT     H164010   8.889   9.858   0.778
21256WAT     H264011   8.815   9.754   0.880
21257WAT      O64012   6.691   0.075   8.230
21257WAT     H164013   6.604   0.103   8.188
21257WAT     H264014   6.674   0.046   8.324
21258WAT      O64015   9.017   1.810   6.041
21258WAT     H164016   8.982   1.884   5.984
21258WAT     H264017   9.116   1.820   6.051
21259WAT      O64018   3.318   8.272   5.964
21259WAT     H164019   3.227   8.252   6.002
21259WAT     H264020   3.311   8.283   5.865
21260WAT      O64021   1.083   1.315   5.523
21260WAT     H164022   1.125   1.321   5.613
21260WAT     H264023   0.985   1.334   5.530
21261WAT      O64024   3.139   5.368   3.221
21261WAT     H164025   3.225   5.418   3.234
21261WAT     H264026   3.067   5.431   3.193
21262WAT      O64027   3.006   9.371   4.014
21262WAT     H164028   2.956   9.382   3.928
21262WAT     H264029   2.943   9.339   4.085
21263WAT      O64030   3.753   8.636   3.604
21263WAT     H164031   3.803   8.564   3.652
21263WAT     H264032   3.809   8.672   3.530
21264WAT      O64033   5.162   7.685   5.897
21264WAT     H164034   5.158   7.699   5.798
21264WAT     H264035   5.215   7.602   5.917
21265WAT      O64036   2.346   2.597   2.682
21265WAT     H164037   2.312   2.643   2.600
21265WAT     H264038   2.443   2.619   2.695
21266WAT      O64039   6.483   1.648   7.807
21266WAT     H164040   6.547   1.695   7.745
21266WAT     H264041   6.397   1.631   7.758
21267WAT      O64042   0.790   4.577   4.583
21267WAT     H164043   0.791   4.677   4.586
21267WAT     H264044   0.737   4.547   4.504
21268WAT      O64045   9.170   6.865   6.191
21268WAT     H164046   9.232   6.905   6.125
21268WAT     H264047   9.184   6.766   6.194
21269WAT      O64048   9.174   0.876   4.393
21269WAT     H164049   9.127   0.809   4.450
21269WAT     H264050   9.145   0.968   4.419
21270WAT      O64051   2.830   0.842   1.311
21270WAT     H164052   2.771   0.887   1.243
21270WAT     H264053   2.773   0.806   1.385
21271WAT      O64054   6.829   3.408   8.787
21271WAT     H164055   6.843   3.490   8.731
21271WAT     H264056   6.810   3.434   8.881
21272WAT      O64057   0.932   7.066   6.850
21272WAT     H164058   1.022   7.028   6.831
21272WAT     H264059   0.862   7.004   6.814
21273WAT      O64060   2.027   1.180   2.034
21273WAT     H164061   2.018   1.084   2.064
21273WAT     H264062   2.121   1.196   2.003
21274WAT      O64063   4.156   5.743   2.451
21274WAT     H164064   4.142   5.763   2.548
21274WAT     H264065   4.124   5.650   2.431
21275WAT      O64066   6.556   4.549   6.049
21275WAT     H164067   6.590   4.629   6.000
21275WAT     H264068   6.621   4.523   6.121
21276WAT      O64069   8.405   6.130   4.481
21276WAT     H164070   8.374   6.037   4.499
21276WAT     H264071   8.486   6.150   4.537
21277WAT      O64072   7.158   4.111   4.620
21277WAT     H164073   7.079   4.168   4.596
21277WAT     H264074   7.196   4.070   4.537
21278WAT      O64075   2.290   9.739   4.001
21278WAT     H164076   2.367   9.801   3.985
21278WAT     H264077   2.229   9.741   3.921
21279WAT      O64078   8.822   2.964   7.726
21279WAT     H164079   8.834   2.989   7.822
21279WAT     H264080   8.870   2.879   7.707
21280WAT      O64081   6.483   4.322   4.546
21280WAT     H164082   6.397   4.326   4.597
21280WAT     H264083   6.487   4.237   4.494
21281WAT      O64084   5.857   3.480   3.781
21281WAT     H164085   5.909   3.491   3.866
21281WAT     H264086   5.782   3.547   3.778
21282WAT      O64087   2.169   4.826   5.175
21282WAT     H164088   2.123   4.755   5.122
21282WAT     H264089   2.260   4.794   5.202
21283WAT      O64090   0.029   1.997   2.140
21283WAT     H164091  -0.026   1.926   2.097
21283WAT     H264092   0.119   1.961   2.162
21284WAT      O64093   9.207   2.360   9.751
21284WAT     H164094   9.119   2.375   9.708
21284WAT     H264095   9.195   2.353   9.850
21285WAT      O64096   5.926   5.218   4.955
21285WAT     H164097   5.911   5.306   4.909
21285WAT     H264098   6.019   5.215   4.993
21286WAT      O64099   6.963   2.382   6.136
21286WAT     H164100   6.925   2.345   6.221
21286WAT     H264101   6.953   2.481   6.135
21287WAT      O64102   3.667   8.781   5.728
21287WAT     H164103   3.763   8.754   5.739
21287WAT     H264104   3.608   8.705   5.754
21288WAT      O64105   4.798   7.707   4.130
21288WAT     H164106   4.824   7.766   4.054
21288WAT     H264107   4.705   7.671   4.115
21289WAT      O64108   9.334   5.747   5.252
21289WAT     H164109   9.386   5.661   5.256
21289WAT     H264110   9.341   5.794   5.340
21290WAT      O64111   1.535   5.851   2.408
21290WAT     H164112   1.539   5.944   2.371
21290WAT     H264113   1.475   5.850   2.488
21291WAT      O64114   0.346   3.664   5.752
21291WAT     H164115   0.252   3.696   5.759
21291WAT     H264116   0.377   3.629   5.841
21292WAT      O64117   4.758   9.242   8.030
21292WAT     H164118   4.825   9.175   7.999
21292WAT     H264119   4.773   9.329   7.981
21293WAT      O64120   4.178   1.272   6.778
21293WAT     H164121   4.141   1.363   6.760
21293WAT     H264122   4.274   1.280   6.803
21294WAT      O64123   8.263   7.465   1.146
21294WAT     H164124   8.342   7.407   1.168
21294WAT     H264125   8.218   7.493   1.231
21295WAT      O64126   0.707   1.536   5.283
21295WAT     H164127   0.762   1.463   5.242
21295WAT     H264128   0.720   1.621   5.232
21296WAT      O64129   3.262   8.818   0.989
21296WAT     H164130   3.336   8.878   1.018
21296WAT     H264131   3.197   8.806   1.065
21297WAT      O64132   2.640   5.057   8.503
21297WAT     H164133   2.645   5.135   8.441
21297WAT     H264134   2.710   5.067   8.574
21298WAT      O64135   0.089   3.823   5.776
21298WAT     H164136   0.073   3.756   5.848
21298WAT     H264137   0.119   3.909   5.817
21299WAT      O64138   3.023   4.412   4.118
21299WAT     H164139   3.076   4.402   4.034
21299WAT     H264140   3.021   4.325   4.167
21300WAT      O64141   8.004   3.756   9.622
21300WAT     H164142   7.948   3.838   9.613
21300WAT     H264143   8.026   3.721   9.531
21301WAT      O64144   6.309   7.701   7.485
21301WAT     H164145   6.407   7.720   7.473
21301WAT     H264146   6.268   7.681   7.396
21302WAT      O64147   0.883   8.923   3.988
21302WAT     H164148   0.870   8.909   4.086
21302WAT     H264149   0.811   8.874   3.938
21303WAT      O64150   5.258   5.584   3.878
21303WAT     H164151   5.226   5.617   3.789
21303WAT     H264152   5.184   5.592   3.945
21304WAT      O64153   9.124   6.121   2.104
21304WAT     H164154   9.155   6.215   2.092
21304WAT     H264155   9.117   6.076   2.015
21305WAT      O64156   3.663   8.031   5.776
21305WAT     H164157   3.730   8.004   5.708
21305WAT     H264158   3.705   8.094   5.842
21306WAT      O64159   3.691   0.386   1.520
21306WAT     H164160   3.687   0.423   1.613
21306WAT     H264161   3.709   0.460   1.455
21307WAT      O64162   8.315   4.449   4.526
21307WAT     H164163   8.317   4.426   4.429
21307WAT     H264164   8.246   4.393   4.572
21308WAT      O64165   4.028   6.682   0.180
21308WAT     H164166   3.936   6.656   0.152
21308WAT     H264167   4.056   6.765   0.131
21309WAT      O64168   3.819   1.117   0.994
21309WAT     H164169   3.720   1.130   0.995
21309WAT     H264170   3.852   1.103   1.088
21310WAT      O64171   5.037   7.505   1.483
21310WAT     H164172   5.011   7.431   1.545
21310WAT     H264173   5.006   7.592   1.521
21311WAT      O64174   0.619   4.272   4.451
21311WAT     H164175   0.702   4.251   4.399
21311WAT     H264176   0.589   4.190   4.500
21312WAT      O64177   6.739   1.736   2.676
21312WAT     H164178   6.801   1.659   2.663
21312WAT     H264179   6.719   1.747   2.774
21313WAT      O64180   1.079   8.131   4.529
21313WAT     H164181   1.051   8.051   4.582
21313WAT     H264182   1.023   8.137   4.446
21314WAT      O64183   7.394   8.399   1.208
21314WAT     H164184   7.426   8.461   1.136
21314WAT     H264185   7.471   8.346   1.243
21315WAT      O64186   5.875   4.066   2.285
21315WAT     H164187   5.952   4.129   2.287
21315WAT     H264188   5.790   4.116   2.267
21316WAT      O64189   4.880   4.086   9.048
21316WAT     H164190   4.940   4.133   8.983
21316WAT     H264191   4.850   4.150   9.119
21317WAT      O64192   8.343   8.063   4.363
21317WAT     H164193   8.303   7.973   4.381
21317WAT     H264194   8.317   8.126   4.436
21318WAT      O64195   3.230   1.673   0.453
21318WAT     H164196   3.217   1.688   0.355
21318WAT     H264197   3.198   1.753   0.503
21319WAT      O64198   1.209   7.391   7.582
21319WAT     H164199   1.195   7.454   7.658
21319WAT     H264200   1.274   7.430   7.517
21320WAT      O64201   4.785   9.620   0.553
21320WAT     H164202   4.878   9.632   0.518
21320WAT     H264203   4.722   9.604   0.477
21321WAT      O64204   2.607   4.268   8.390
21321WAT     H164205   2.546   4.195   8.360
21321WAT     H264206   2.572   4.356   8.358
21322WAT      O64207   8.968   6.700   2.949
21322WAT     H164208   9.057   6.743   2.933
21322WAT     H264209   8.975   6.639   3.028
21323WAT      O64210   7.918   6.306   7.820
21323WAT     H164211   7.844   6.245   7.793
21323WAT     H264212   7.881   6.387   7.865
21324WAT      O64213   6.654   4.913   5.516
21324WAT     H164214   6.647   4.974   5.436
21324WAT     H264215   6.751   4.900   5.539
21325WAT      O64216   6.625   8.139   6.798
21325WAT     H164217   6.585   8.162   6.709
21325WAT     H264218   6.682   8.057   6.789
21326WAT      O64219   9.625   3.574   4.656
21326WAT     H164220   9.616   3.549   4.752
21326WAT     H264221   9.678   3.504   4.608
21327WAT      O64222   0.473   7.251   7.096
21327WAT     H164223   0.565   7.249   7.055
21327WAT     H264224   0.405   7.257   7.023
21328WAT      O64225   8.240   5.074   6.568
21328WAT     H164226   8.315   5.020   6.530
21328WAT     H264227   8.247   5.168   6.535
21329WAT      O64228   8.944   0.450   8.138
21329WAT     H164229   9.007   0.522   8.167
21329WAT     H264230   8.958   0.369   8.195
21330WAT      O64231   0.151   8.001   7.304
21330WAT     H164232   0.247   8.021   7.287
21330WAT     H264233   0.110   8.076   7.357
21331WAT      O64234   8.112   4.122   1.714
21331WAT     H164235   8.154   4.159   1.631
21331WAT     H264236   8.037   4.061   1.690
21332WAT      O64237   6.152   8.027   6.385
21332WAT     H164238   6.075   8.020   6.449
21332WAT     H264239   6.146   8.114   6.336
21333WAT      O64240   4.879   8.517   5.501
21333WAT     H164241   4.847   8.426   5.472
21333WAT     H264242   4.955   8.506   5.565
21334WAT      O64243   4.076   1.123   4.429
21334WAT     H164244   4.043   1.051   4.490
21334WAT     H264245   4.114   1.082   4.346
21335WAT      O64246   8.678   8.040   7.547
21335WAT     H164247   8.615   8.019   7.472
21335WAT     H264248   8.752   8.099   7.513
21336WAT      O64249   6.085   8.401   0.193
21336WAT     H164250   6.037   8.314   0.182
21336WAT     H264251   6.095   8.423   0.290
21337WAT      O64252   1.108   6.689   2.220
21337WAT     H164253   1.148   6.605   2.256
21337WAT     H264254   1.079   6.674   2.125
21338WAT      O64255   0.440   9.340   4.823
21338WAT     H164256   0.345   9.370   4.821
21338WAT     H264257   0.501   9.417   4.803
21339WAT      O64258   1.336   5.526   2.662
21339WAT     H164259   1.266   5.582   2.706
21339WAT     H264260   1.407   5.502   2.729
21340WAT      O64261   8.090   7.073   9.532
21340WAT     H164262   8.145   7.102   9.454
21340WAT     H264263   8.050   7.154   9.575
21341WAT      O64264   1.544   5.211   9.022
21341WAT     H164265   1.637   5.226   8.990
21341WAT     H264266   1.496   5.151   8.959
21342WAT      O64267   5.983   9.054   2.097
21342WAT     H164268   5.982   9.146   2.137
21342WAT     H264269   6.076   9.029   2.071
21343WAT      O64270   2.205   0.976   3.417
21343WAT     H164271   2.134   0.905   3.422
21343WAT     H264272   2.292   0.939   3.450
21344WAT      O64273   0.615   0.226   9.633
21344WAT     H164274   0.571   0.313   9.653
21344WAT     H264275   0.672   0.198   9.710
21345WAT      O64276   5.549   5.687   1.019
21345WAT     H164277   5.613   5.707   1.093
21345WAT     H264278   5.556   5.590   0.994
21346WAT      O64279   5.955   5.411   5.723
21346WAT     H164280   5.901   5.452   5.797
21346WAT     H264281   6.041   5.375   5.760
21347WAT      O64282   7.281   9.113   5.341
21347WAT     H164283   7.303   9.209   5.357
21347WAT     H264284   7.366   9.061   5.331
21348WAT      O64285   6.154   1.190   7.993
21348WAT     H164286   6.213   1.117   8.026
21348WAT     H264287   6.208   1.256   7.942
21349WAT      O64288   7.741   1.012   9.616
21349WAT     H164289   7.766   0.981   9.708
21349WAT     H264290   7.679   0.945   9.574
21350WAT      O64291   9.540   1.800   6.195
21350WAT     H164292   9.532   1.893   6.233
21350WAT     H264293   9.503   1.735   6.261
21351WAT      O64294   4.999   1.996   5.116
21351WAT     H164295   5.006   2.050   5.200
21351WAT     H264296   4.956   1.908   5.136
21352WAT      O64297   2.118   1.902   4.655
21352WAT     H164298   2.037   1.959   4.641
21352WAT     H264299   2.132   1.844   4.575
21353WAT      O64300   5.727   4.273   2.487
21353WAT     H164301   5.688   4.291   2.397
21353WAT     H264302   5.802   4.336   2.504
21354WAT      O64303   1.077   4.868   3.825
21354WAT     H164304   1.036   4.777   3.836
21354WAT     H264305   1.145   4.865   3.752
21355WAT      O64306   0.074   0.742   7.139
21355WAT     H164307   0.125   0.816   7.182
21355WAT     H264308   0.035   0.683   7.210
21356WAT      O64309   8.256   5.101   1.514
21356WAT     H164310   8.330   5.157   1.553
21356WAT     H264311   8.182   5.092   1.581
21357WAT      O64312   4.232   8.223   8.590
21357WAT     H164313   4.197   8.189   8.677
21357WAT     H264314   4.292   8.301   8.607
21358WAT      O64315   6.033   9.395   7.299
21358WAT     H164316   6.043   9.430   7.206
21358WAT     H264317   5.937   9.398   7.326
21359WAT      O64318   6.442   8.467   0.586
21359WAT     H164319   6.465   8.508   0.497
21359WAT     H264320   6.503   8.504   0.656
21360WAT      O64321   9.051   7.037   7.335
21360WAT     H164322   9.042   7.126   7.380
21360WAT     H264323   9.031   6.965   7.402
21361WAT      O64324   1.809   6.902   8.993
21361WAT     H164325   1.714   6.891   9.020
21361WAT     H264326   1.842   6.992   9.022
21362WAT      O64327   7.308   0.903   6.184
21362WAT     H164328   7.279   0.975   6.248
21362WAT     H264329   7.325   0.944   6.094
21363WAT      O64330   9.564   6.458   5.633
21363WAT     H164331   9.491   6.515   5.671
21363WAT     H264332   9.563   6.369   5.678
21364WAT      O64333   6.128   8.369   3.407
21364WAT     H164334   6.205   8.320   3.447
21364WAT     H264335   6.043   8.333   3.444
21365WAT      O64336   9.453   0.124   3.303
21365WAT     H164337   9.425   0.039   3.350
21365WAT     H264338   9.550   0.118   3.281
21366WAT      O64339   1.606   3.881   4.390
21366WAT     H164340   1.574   3.954   4.449
21366WAT     H264341   1.677   3.917   4.329
21367WAT      O64342   1.872   7.540   9.501
21367WAT     H164343   1.897   7.480   9.426
21367WAT     H264344   1.870   7.635   9.469
21368WAT      O64345   2.782   7.110   2.606
21368WAT     H164346   2.685   7.113   2.585
21368WAT     H264347   2.814   7.201   2.633
21369WAT      O64348   4.142   8.710   6.247
21369WAT     H164349   4.073   8.772   6.211
21369WAT     H264350   4.160   8.733   6.343
21370WAT      O64351   5.684   2.840   6.119
21370WAT     H164352   5.745   2.902   6.068
21370WAT     H264353   5.610   2.809   6.059
21371WAT      O64354   4.226   3.256   3.113
21371WAT     H164355   4.202   3.301   3.199
21371WAT     H264356   4.206   3.318   3.037
21372WAT      O64357   9.114   1.512   4.439
21372WAT     H164358   9.082   1.561   4.358
21372WAT     H264359   9.210   1.485   4.426
21373WAT      O64360   8.326   4.161   9.864
21373WAT     H164361   8.348   4.153   9.961
21373WAT     H264362   8.402   4.205   9.816
21374WAT      O64363   5.002   5.254   2.483
21374WAT     H164364   5.068   5.253   2.408
21374WAT     H264365   5.049   5.277   2.568
21375WAT      O64366   5.130   5.949   0.784
21375WAT     H164367   5.112   6.017   0.713
21375WAT     H264368   5.212   5.974   0.834
21376WAT      O64369   2.028   9.433   8.796
21376WAT     H164370   2.033   9.518   8.744
21376WAT     H264371   2.014   9.356   8.732
21377WAT      O64372   4.618   5.073   7.151
21377WAT     H164373   4.523   5.071   7.181
21377WAT     H264374   4.678   5.078   7.231
21378WAT      O64375   1.070   7.503   1.024
21378WAT     H164376   1.072   7.569   1.098
21378WAT     H264377   1.164   7.482   0.995
21379WAT      O64378   5.803   2.363   3.017
21379WAT     H164379   5.799   2.325   2.924
21379WAT     H264380   5.891   2.408   3.031
21380WAT      O64381   3.371   1.795   4.225
21380WAT     H164382   3.363   1.696   4.210
21380WAT     H264383   3.319   1.843   4.155
21381WAT      O64384   6.798   5.653   3.704
21381WAT     H164385   6.706   5.656   3.742
21381WAT     H264386   6.801   5.706   3.619
21382WAT      O64387   5.379   5.192   2.856
21382WAT     H164388   5.416   5.113   2.808
21382WAT     H264389   5.288   5.170   2.891
21383WAT      O64390   9.025   8.571   2.155
21383WAT     H164391   8.930   8.547   2.133
21383WAT     H264392   9.064   8.500   2.214
21384WAT      O64393   9.148   2.196   0.872
21384WAT     H164394   9.068   2.198   0.932
21384WAT     H264395   9.146   2.274   0.810
21385WAT      O64396   8.911   3.606   9.543
21385WAT     H164397   8.985   3.663   9.506
21385WAT     H264398   8.900   3.525   9.486
21386WAT      O64399   3.526   8.042   9.393
21386WAT     H164400   3.494   8.132   9.423
21386WAT     H264401   3.454   7.997   9.341
21387WAT      O64402   8.776   9.336   7.119
21387WAT     H164403   8.859   9.346   7.175
21387WAT     H264404   8.761   9.239   7.099
21388WAT      O64405   9.817   9.048   8.816
21388WAT     H164406   9.769   8.964   8.845
21388WAT     H264407   9.754   9.125   8.822
21389WAT      O64408   1.386   3.877   8.165
21389WAT     H164409   1.481   3.857   8.189
21389WAT     H264410   1.325   3.829   8.229
21390WAT      O64411   6.246   0.805   0.367
21390WAT     H164412   6.324   0.785   0.426
21390WAT     H264413   6.279   0.847   0.282
21391WAT      O64414   2.333   5.863   9.097
21391WAT     H164415   2.268   5.885   9.025
21391WAT     H264416   2.395   5.940   9.111
21392WAT      O64417   4.831   7.310   0.466
21392WAT     H164418   4.886   7.237   0.424
21392WAT     H264419   4.738   7.277   0.483
21393WAT      O64420   7.836   5.723   3.488
21393WAT     H164421   7.899   5.662   3.535
21393WAT     H264422   7.887   5.782   3.425
21394WAT      O64423   9.054   6.167   5.806
21394WAT     H164424   8.989   6.190   5.878
21394WAT     H264425   9.010   6.176   5.717
21395WAT      O64426   2.385   8.687   5.678
21395WAT     H164427   2.296   8.642   5.664
21395WAT     H264428   2.386   8.774   5.628
21396WAT      O64429   4.366   2.135   8.006
21396WAT     H164430   4.444   2.092   8.050
21396WAT     H264431   4.286   2.126   8.065
21397WAT      O64432   9.241   8.524   0.529
21397WAT     H164433   9.336   8.492   0.520
21397WAT     H264434   9.197   8.521   0.439
21398WAT      O64435   5.394   1.807   7.781
21398WAT     H164436   5.492   1.826   7.774
21398WAT     H264437   5.361   1.767   7.696
21399WAT      O64438   5.269   2.898   3.112
21399WAT     H164439   5.179   2.905   3.154
21399WAT     H264440   5.262   2.846   3.027
21400WAT      O64441   6.848   7.378   4.108
21400WAT     H164442   6.843   7.396   4.010
21400WAT     H264443   6.792   7.445   4.157
21401WAT      O64444   1.862   5.052   1.653
21401WAT     H164445   1.877   5.128   1.590
21401WAT     H264446   1.833   4.971   1.601
21402WAT      O64447   3.787   0.321   2.051
21402WAT     H164448   3.821   0.277   2.135
21402WAT     H264449   3.817   0.416   2.048
21403WAT      O64450   5.417   4.721   3.078
21403WAT     H164451   5.458   4.755   2.994
21403WAT     H264452   5.372   4.634   3.060
21404WAT      O64453   7.794   0.535   6.363
21404WAT     H164454   7.821   0.629   6.382
21404WAT     H264455   7.832   0.474   6.433
21405WAT      O64456   6.760   0.474   2.167
21405WAT     H164457   6.721   0.497   2.256
21405WAT     H264458   6.798   0.556   2.124
21406WAT      O64459   2.590   3.834   4.682
21406WAT     H164460   2.586   3.757   4.619
21406WAT     H264461   2.607   3.800   4.775
21407WAT      O64462   8.161   9.032   5.009
21407WAT     H164463   8.176   8.959   5.075
21407WAT     H264464   8.062   9.046   4.996
21408WAT      O64465   4.127   9.238   8.060
21408WAT     H164466   4.159   9.280   8.144
21408WAT     H264467   4.030   9.256   8.048
21409WAT      O64468   9.520   7.798   8.138
21409WAT     H164469   9.451   7.729   8.158
21409WAT     H264470   9.549   7.842   8.224
21410WAT      O64471   6.944   5.016   7.461
21410WAT     H164472   6.873   5.059   7.405
21410WAT     H264473   6.905   4.940   7.512
21411WAT      O64474   0.997   6.897   0.366
21411WAT     H164475   0.900   6.901   0.341
21411WAT     H264476   1.047   6.969   0.318
21412WAT      O64477   8.907   1.698   3.035
21412WAT     H164478   8.839   1.637   3.075
21412WAT     H264479   8.996   1.652   3.033
21413WAT      O64480   5.958   8.699   1.864
21413WAT     H164481   6.029   8.657   1.921
21413WAT     H264482   5.976   8.797   1.856
21414WAT      O64483   8.344   6.759   9.336
21414WAT     H164484   8.440   6.779   9.357
21414WAT     H264485   8.317   6.808   9.254
21415WAT      O64486   1.044   3.705   2.975
21415WAT     H164487   1.023   3.631   2.911
21415WAT     H264488   1.098   3.775   2.928
21416WAT      O64489   0.019   6.481   0.594
21416WAT     H164490   0.098   6.494   0.653
21416WAT     H264491   0.000   6.383   0.586
21417WAT      O64492   6.626   2.362   1.123
21417WAT     H164493   6.640   2.264   1.127
21417WAT     H264494   6.581   2.394   1.206
21418WAT      O64495   3.691   2.841   1.785
21418WAT     H164496   3.773   2.798   1.747
21418WAT     H264497   3.698   2.843   1.885
21419WAT      O64498   5.907   8.309   4.266
21419WAT     H164499   5.903   8.209   4.265
21419WAT     H264500   5.969   8.340   4.193
21420WAT      O64501   0.206   1.579   0.949
21420WAT     H164502   0.158   1.546   1.030
21420WAT     H264503   0.156   1.656   0.909
21421WAT      O64504   1.404   8.913   9.387
21421WAT     H164505   1.316   8.904   9.435
21421WAT     H264506   1.388   8.940   9.293
21422WAT      O64507   7.709   5.377   9.028
21422WAT     H164508   7.650   5.298   9.012
21422WAT     H264509   7.791   5.370   8.973
21423WAT      O64510   3.939   5.392   3.965
21423WAT     H164511   3.882   5.387   4.047
21423WAT     H264512   3.965   5.299   3.937
21424WAT      O64513   4.197   7.114   6.116
21424WAT     H164514   4.268   7.043   6.120
21424WAT     H264515   4.110   7.072   6.091
21425WAT      O64516   3.464   0.837   8.196
21425WAT     H164517   3.395   0.901   8.162
21425WAT     H264518   3.514   0.798   8.119
21426WAT      O64519   9.874   3.303   5.384
21426WAT     H164520   9.850   3.351   5.469
21426WAT     H264521   9.974   3.300   5.375
21427WAT      O64522   8.731   2.970   6.440
21427WAT     H164523   8.706   3.057   6.483
21427WAT     H264524   8.764   2.907   6.509
21428WAT      O64525   3.957   4.239   0.067
21428WAT     H164526   3.986   4.330   0.095
21428WAT     H264527   3.950   4.235  -0.033
21429WAT      O64528   6.038   4.691   5.486
21429WAT     H164529   6.054   4.786   5.511
21429WAT     H264530   6.117   4.636   5.512
21430WAT      O64531   2.128   9.635   4.198
21430WAT     H164532   2.198   9.666   4.134
21430WAT     H264533   2.063   9.576   4.150
21431WAT      O64534   9.026   1.291   5.042
21431WAT     H164535   8.951   1.347   5.006
21431WAT     H264536   8.994   1.198   5.055
21432WAT      O64537   6.520   0.202   1.517
21432WAT     H164538   6.451   0.272   1.535
21432WAT     H264539   6.485   0.113   1.547
21433WAT      O64540   4.721   7.738   5.103
21433WAT     H164541   4.715   7.638   5.105
21433WAT     H264542   4.633   7.776   5.077
21434WAT      O64543   2.657   2.188   3.339
21434WAT     H164544   2.693   2.258   3.278
21434WAT     H264545   2.701   2.101   3.320
21435WAT      O64546   8.309   4.402   6.911
21435WAT     H164547   8.230   4.441   6.862
21435WAT     H264548   8.282   4.380   7.005
21436WAT      O64549   8.568   0.562   6.887
21436WAT     H164550   8.641   0.613   6.934
21436WAT     H264551   8.520   0.624   6.825
21437WAT      O64552   4.107   7.851   0.513
21437WAT     H164553   4.205   7.866   0.523
21437WAT     H264554   4.092   7.770   0.456
21438WAT      O64555   5.047   7.766   4.631
21438WAT     H164556   5.072   7.798   4.540
21438WAT     H264557   5.062   7.840   4.697
21439WAT      O64558   3.378   4.278   4.076
21439WAT     H164559   3.454   4.220   4.050
21439WAT     H264560   3.295   4.249   4.027
21440WAT      O64561   9.594   7.367   2.918
21440WAT     H164562   9.577   7.295   2.986
21440WAT     H264563   9.682   7.410   2.938
21441WAT      O64564   6.241   9.528   7.659
21441WAT     H164565   6.259   9.540   7.561
21441WAT     H264566   6.233   9.617   7.703
21442WAT      O64567   8.830   3.426   7.031
21442WAT     H164568   8.811   3.427   6.933
21442WAT     H264569   8.840   3.331   7.062
21443WAT      O64570   0.930   7.450   1.620
21443WAT     H164571   0.925   7.386   1.697
21443WAT     H264572   0.854   7.515   1.627
21444WAT      O64573   2.524   3.285   8.736
21444WAT     H164574   2.601   3.307   8.795
21444WAT     H264575   2.453   3.354   8.747
21445WAT      O64576   7.366   5.577   0.657
21445WAT     H164577   7.410   5.533   0.579
21445WAT     H264578   7.415   5.552   0.741
21446WAT      O64579   5.933   1.356   4.270
21446WAT     H164580   5.984   1.411   4.335
21446WAT     H264581   5.979   1.268   4.258
21447WAT      O64582   2.104   0.283   5.781
21447WAT     H164583   2.062   0.192   5.779
21447WAT     H264584   2.044   0.346   5.830
21448WAT      O64585   6.031   4.682   6.679
21448WAT     H164586   5.968   4.654   6.607
21448WAT     H264587   5.981   4.734   6.749
21449WAT      O64588   6.293   1.706   5.624
21449WAT     H164589   6.285   1.661   5.535
21449WAT     H264590   6.383   1.690   5.662
21450WAT      O64591   1.397   4.822   8.492
21450WAT     H164592   1.307   4.802   8.530
21450WAT     H264593   1.402   4.788   8.398
21451WAT      O64594   9.104   5.087   8.661
21451WAT     H164595   9.050   5.119   8.584
21451WAT     H264596   9.117   5.162   8.727
21452WAT      O64597   1.403   0.011   1.963
21452WAT     H164598   1.322   0.069   1.955
21452WAT     H264599   1.381  -0.081   1.930
21453WAT      O64600   6.848   2.456   0.982
21453WAT     H164601   6.764   2.437   1.032
21453WAT     H264602   6.927   2.431   1.038
21454WAT      O64603   3.640   3.073   2.497
21454WAT     H164604   3.595   3.090   2.410
21454WAT     H264605   3.622   2.979   2.527
21455WAT      O64606   6.926   7.576   7.543
21455WAT     H164607   6.857   7.579   7.471
21455WAT     H264608   6.884   7.602   7.630
21456WAT      O64609   5.650   7.367   1.294
21456WAT     H164610   5.702   7.283   1.283
21456WAT     H264611   5.703   7.433   1.347
21457WAT      O64612   6.717   6.717   9.894
21457WAT     H164613   6.691   6.707   9.798
21457WAT     H264614   6.702   6.630   9.941
21458WAT      O64615   1.610   0.121   5.698
21458WAT     H164616   1.639   0.026   5.710
21458WAT     H264617   1.655   0.160   5.618
21459WAT      O64618   7.103   9.780   7.078
21459WAT     H164619   7.130   9.745   6.989
21459WAT     H264620   7.006   9.758   7.095
21460WAT      O64621   1.972   7.516   8.243
21460WAT     H164622   1.956   7.596   8.185
21460WAT     H264623   1.975   7.434   8.187
21461WAT      O64624   5.742   1.251   3.591
21461WAT     H164625   5.832   1.255   3.633
21461WAT     H264626   5.729   1.330   3.532
21462WAT      O64627   6.732   0.990   2.900
21462WAT     H164628   6.658   1.022   2.842
21462WAT     H264629   6.706   0.904   2.945
21463WAT      O64630   3.454   6.277   7.600
21463WAT     H164631   3.504   6.213   7.658
21463WAT     H264632   3.456   6.245   7.505
21464WAT      O64633   1.507   9.400   4.877
21464WAT     H164634   1.553   9.489   4.881
21464WAT     H264635   1.495   9.365   4.969
21465WAT      O64636   1.020   6.523   2.811
21465WAT     H164637   1.042   6.460   2.737
21465WAT     H264638   0.946   6.485   2.867
21466WAT      O64639   7.030   6.489   5.057
21466WAT     H164640   6.972   6.470   5.136
21466WAT     H264641   7.112   6.432   5.062
21467WAT      O64642   6.345   9.339   9.590
21467WAT     H164643   6.314   9.378   9.677
21467WAT     H264644   6.373   9.413   9.529
21468WAT      O64645   1.659   8.802   3.289
21468WAT     H164646   1.755   8.829   3.295
21468WAT     H264647   1.602   8.873   3.330
21469WAT      O64648   1.469   9.146   9.702
21469WAT     H164649   1.430   9.089   9.774
21469WAT     H264650   1.513   9.226   9.744
21470WAT      O64651   2.554   4.577   0.259
21470WAT     H164652   2.639   4.630   0.260
21470WAT     H264653   2.476   4.638   0.264
21471WAT      O64654   6.110   0.406   5.037
21471WAT     H164655   6.168   0.424   4.958
21471WAT     H264656   6.046   0.332   5.015
21472WAT      O64657   2.859   4.777   6.640
21472WAT     H164658   2.789   4.738   6.580
21472WAT     H264659   2.866   4.722   6.723
21473WAT      O64660   4.900   7.875   5.461
21473WAT     H164661   4.918   7.866   5.559
21473WAT     H264662   4.881   7.971   5.440
21474WAT      O64663   4.210   0.240   0.296
21474WAT     H164664   4.182   0.287   0.379
21474WAT     H264665   4.144   0.169   0.273
21475WAT      O64666   4.187   0.832   1.637
21475WAT     H164667   4.210   0.913   1.583
21475WAT     H264668   4.133   0.769   1.580
21476WAT      O64669   8.740   2.133   0.819
21476WAT     H164670   8.815   2.138   0.885
21476WAT     H264671   8.685   2.051   0.838
21477WAT      O64672   2.492   4.528   6.716
21477WAT     H164673   2.450   4.612   6.750
21477WAT     H264674   2.442   4.449   6.752
21478WAT      O64675   9.032   2.621   2.798
21478WAT     H164676   8.951   2.592   2.848
21478WAT     H264677   9.047   2.560   2.720
21479WAT      O64678   3.524   0.949   7.390
21479WAT     H164679   3.511   0.850   7.384
21479WAT     H264680   3.621   0.969   7.403
21480WAT      O64681   7.526   3.497   6.451
21480WAT     H164682   7.592   3.482   6.377
21480WAT     H264683   7.569   3.553   6.522
21481WAT      O64684   7.096   3.544   4.418
21481WAT     H164685   7.003   3.560   4.448
21481WAT     H264686   7.146   3.630   4.415
21482WAT      O64687   5.520   1.152   1.721
21482WAT     H164688   5.610   1.178   1.754
21482WAT     H264689   5.451   1.217   1.754
21483WAT      O64690   9.772   6.575   2.285
21483WAT     H164691   9.704   6.518   2.238
21483WAT     H264692   9.731   6.613   2.369
21484WAT      O64693   4.384   5.639   4.666
21484WAT     H164694   4.309   5.581   4.698
21484WAT     H264695   4.451   5.582   4.619
21485WAT      O64696   2.757   9.307   5.859
21485WAT     H164697   2.727   9.401   5.877
21485WAT     H264698   2.849   9.294   5.895
21486WAT      O64699   9.005   1.239   5.360
21486WAT     H164700   9.034   1.328   5.326
21486WAT     H264701   9.083   1.176   5.357
21487WAT      O64702   7.693   3.065   5.702
21487WAT     H164703   7.673   3.012   5.620
21487WAT     H264704   7.650   3.022   5.781
21488WAT      O64705   2.731   9.473   0.131
21488WAT     H164706   2.813   9.458   0.075
21488WAT     H264707   2.673   9.542   0.087
21489WAT      O64708   9.724   7.681   6.627
21489WAT     H164709   9.732   7.748   6.701
21489WAT     H264710   9.801   7.617   6.631
21490WAT      O64711   8.410   7.142   2.475
21490WAT     H164712   8.503   7.157   2.443
21490WAT     H264713   8.347   7.139   2.398
21491WAT      O64714   5.706   6.300   9.533
21491WAT     H164715   5.658   6.374   9.581
21491WAT     H264716   5.661   6.283   9.446
21492WAT      O64717   2.955   3.650   1.071
21492WAT     H164718   2.966   3.552   1.052
21492WAT     H264719   3.036   3.685   1.118
21493WAT      O64720   9.218   8.301   8.632
21493WAT     H164721   9.143   8.365   8.616
21493WAT     H264722   9.243   8.302   8.729
21494WAT      O64723   0.768   2.700   5.125
21494WAT     H164724   0.831   2.755   5.180
21494WAT     H264725   0.674   2.720   5.151
21495WAT      O64726   5.349   5.292   9.602
21495WAT     H164727   5.283   5.367   9.594
21495WAT     H264728   5.301   5.204   9.602
21496WAT      O64729   8.605   5.418   0.191
21496WAT     H164730   8.683   5.381   0.241
21496WAT     H264731   8.637   5.461   0.106
21497WAT      O64732   3.178   7.204   4.162
21497WAT     H164733   3.174   7.160   4.252
21497WAT     H264734   3.092   7.252   4.144
21498WAT      O64735   4.302   8.623   6.745
21498WAT     H164736   4.398   8.604   6.724
21498WAT     H264737   4.296   8.710   6.795
21499WAT      O64738   0.480   1.397   7.879
21499WAT     H164739   0.420   1.335   7.929
21499WAT     H264740   0.509   1.472   7.939
21500WAT      O64741   8.064   7.707   4.938
21500WAT     H164742   8.150   7.727   4.985
21500WAT     H264743   8.063   7.751   4.848
21501WAT      O64744   2.162   2.970   4.912
21501WAT     H164745   2.068   2.944   4.889
21501WAT     H264746   2.215   2.984   4.828
21502WAT      O64747   1.851   2.648   4.095
21502WAT     H164748   1.855   2.620   3.999
21502WAT     H264749   1.883   2.573   4.153
21503WAT      O64750   9.499   8.591   5.251
21503WAT     H164751   9.429   8.520   5.252
21503WAT     H264752   9.475   8.661   5.184
21504WAT      O64753   9.059   1.095   8.998
21504WAT     H164754   8.987   1.030   8.975
21504WAT     H264755   9.143   1.069   8.951
21505WAT      O64756   3.192   4.163   3.941
21505WAT     H164757   3.118   4.164   4.008
21505WAT     H264758   3.220   4.069   3.923
21506WAT      O64759   1.683   8.651   5.092
21506WAT     H164760   1.736   8.570   5.066
21506WAT     H264761   1.741   8.715   5.142
21507WAT      O64762   8.107   0.979   6.006
21507WAT     H164763   8.098   0.897   6.062
21507WAT     H264764   8.143   0.953   5.916
21508WAT      O64765   4.118   7.777   6.002
21508WAT     H164766   4.115   7.872   6.032
21508WAT     H264767   4.165   7.771   5.913
21509WAT      O64768   8.498   4.896   0.207
21509WAT     H164769   8.423   4.955   0.238
21509WAT     H264770   8.585   4.941   0.223
21510WAT      O64771   5.302   3.303   9.887
21510WAT     H164772   5.273   3.211   9.859
21510WAT     H264773   5.398   3.316   9.861
21511WAT      O64774   7.234   1.993   7.774
21511WAT     H164775   7.143   2.024   7.747
21511WAT     H264776   7.250   1.901   7.738
21512WAT      O64777   7.076   2.538   7.852
21512WAT     H164778   7.051   2.569   7.760
21512WAT     H264779   7.037   2.447   7.867
21513WAT      O64780   8.747   2.542   4.853
21513WAT     H164781   8.665   2.498   4.815
21513WAT     H264782   8.749   2.637   4.824
21514WAT      O64783   8.300   1.643   7.263
21514WAT     H164784   8.287   1.723   7.204
21514WAT     H264785   8.360   1.666   7.339
21515WAT      O64786   9.278   3.337   4.889
21515WAT     H164787   9.280   3.429   4.849
21515WAT     H264788   9.210   3.335   4.962
21516WAT      O64789   0.222   5.876   5.698
21516WAT     H164790   0.246   5.867   5.794
21516WAT     H264791   0.218   5.785   5.656
21517WAT      O64792   7.613   9.566   2.650
21517WAT     H164793   7.592   9.492   2.585
21517WAT     H264794   7.540   9.634   2.646
21518WAT      O64795   6.573   6.573   9.296
21518WAT     H164796   6.623   6.541   9.377
21518WAT     H264797   6.591   6.511   9.220
21519WAT      O64798   7.598   5.030   6.938
21519WAT     H164799   7.568   4.973   6.862
21519WAT     H264800   7.518   5.064   6.988
21520WAT      O64801   0.336   3.526   2.987
21520WAT     H164802   0.270   3.452   2.982
21520WAT     H264803   0.288   3.614   2.982
21521WAT      O64804   5.942   0.237   8.620
21521WAT     H164805   5.982   0.209   8.534
21521WAT     H264806   5.877   0.168   8.651
21522WAT      O64807   6.910   4.001   5.531
21522WAT     H164808   6.851   3.925   5.501
21522WAT     H264809   6.882   4.030   5.622
21523WAT      O64810   7.514   3.631   7.431
21523WAT     H164811   7.498   3.622   7.332
21523WAT     H264812   7.547   3.543   7.467
21524WAT      O64813   3.547   6.350   4.046
21524WAT     H164814   3.597   6.281   3.994
21524WAT     H264815   3.560   6.440   4.004
21525WAT      O64816   0.344   8.979   0.835
21525WAT     H164817   0.395   9.003   0.753
21525WAT     H264818   0.399   8.918   0.892
21526WAT      O64819   7.096   3.245   1.318
21526WAT     H164820   7.121   3.339   1.342
21526WAT     H264821   7.087   3.236   1.219
21527WAT      O64822   6.269   2.629   5.004
21527WAT     H164823   6.339   2.558   5.007
21527WAT     H264824   6.265   2.668   4.912
21528WAT      O64825   5.919   7.946   4.898
21528WAT     H164826   5.963   8.023   4.851
21528WAT     H264827   5.837   7.919   4.848
21529WAT      O64828   8.109   0.219   9.579
21529WAT     H164829   8.193   0.265   9.607
21529WAT     H264830   8.114   0.197   9.482
21530WAT      O64831   4.871   2.811   0.459
21530WAT     H164832   4.847   2.901   0.423
21530WAT     H264833   4.797   2.746   0.439
21531WAT      O64834   0.576   9.041   1.081
21531WAT     H164835   0.478   9.062   1.078
21531WAT     H264836   0.590   8.945   1.055
21532WAT      O64837   8.554   1.959   7.719
21532WAT     H164838   8.458   1.932   7.706
21532WAT     H264839   8.587   2.007   7.638
21533WAT      O64840   3.138   4.508   3.869
21533WAT     H164841   3.121   4.473   3.777
21533WAT     H264842   3.228   4.551   3.872
21534WAT      O64843   4.942   5.015   4.680
21534WAT     H164844   4.946   5.111   4.652
21534WAT     H264845   4.869   4.968   4.629
21535WAT      O64846   0.277   6.620   0.342
21535WAT     H164847   0.251   6.525   0.357
21535WAT     H264848   0.194   6.675   0.329
21536WAT      O64849   1.664   1.784   4.290
21536WAT     H164850   1.708   1.699   4.263
21536WAT     H264851   1.589   1.805   4.227
21537WAT      O64852   9.225   4.088   9.521
21537WAT     H164853   9.268   4.159   9.465
21537WAT     H264854   9.127   4.108   9.531
21538WAT      O64855   3.469   0.060   1.393
21538WAT     H164856   3.435   0.054   1.299
21538WAT     H264857   3.470   0.155   1.422
21539WAT      O64858   6.392   1.413   9.413
21539WAT     H164859   6.361   1.338   9.470
21539WAT     H264860   6.314   1.457   9.369
21540WAT      O64861   2.333   3.924   0.180
21540WAT     H164862   2.356   3.993   0.248
21540WAT     H264863   2.249   3.950   0.132
21541WAT      O64864   3.970   4.460   4.264
21541WAT     H164865   3.870   4.450   4.264
21541WAT     H264866   3.996   4.532   4.329
21542WAT      O64867   9.468   5.966   8.914
21542WAT     H164868   9.395   5.960   8.846
21542WAT     H264869   9.470   5.883   8.969
21543WAT      O64870   9.685   3.339   0.732
21543WAT     H164871   9.754   3.278   0.692
21543WAT     H264872   9.673   3.316   0.829
21544WAT      O64873   9.406   5.790   7.241
21544WAT     H164874   9.438   5.880   7.212
21544WAT     H264875   9.328   5.800   7.303
21545WAT      O64876   5.621   9.003   5.618
21545WAT     H164877   5.675   8.955   5.548
21545WAT     H264878   5.552   9.060   5.573
21546WAT      O64879   9.170   9.037   1.138
21546WAT     H164880   9.187   9.040   1.236
21546WAT     H264881   9.151   8.942   1.110
21547WAT      O64882   8.430   1.569   1.304
21547WAT     H164883   8.406   1.665   1.293
21547WAT     H264884   8.528   1.557   1.290
21548WAT      O64885   7.505   2.645   9.139
21548WAT     H164886   7.581   2.708   9.148
21548WAT     H264887   7.507   2.578   9.213
21549WAT      O64888   8.344   6.226   9.744
21549WAT     H164889   8.406   6.150   9.763
21549WAT     H264890   8.397   6.303   9.708
21550WAT      O64891   9.242   4.609   3.546
21550WAT     H164892   9.255   4.518   3.586
21550WAT     H264893   9.239   4.601   3.447
21551WAT      O64894   0.784   9.085   3.572
21551WAT     H164895   0.781   8.986   3.589
21551WAT     H264896   0.858   9.125   3.625
21552WAT      O64897   4.453   0.763   1.032
21552WAT     H164898   4.403   0.696   1.088
21552WAT     H264899   4.459   0.850   1.081
21553WAT      O64900   0.445   1.279   1.177
21553WAT     H164901   0.438   1.310   1.081
21553WAT     H264902   0.475   1.356   1.234
21554WAT      O64903   0.335   0.088   3.350
21554WAT     H164904   0.353   0.141   3.267
21554WAT     H264905   0.408   0.104   3.416
21555WAT      O64906   1.143   2.508   3.260
21555WAT     H164907   1.147   2.584   3.325
21555WAT     H264908   1.229   2.504   3.208
21556WAT      O64909   0.188   4.541   2.537
21556WAT     H164910   0.280   4.555   2.574
21556WAT     H264911   0.125   4.604   2.581
21557WAT      O64912   5.342   8.009   2.976
21557WAT     H164913   5.382   8.100   2.989
21557WAT     H264914   5.244   8.019   2.957
21558WAT      O64915   9.764   8.637   3.894
21558WAT     H164916   9.838   8.626   3.828
21558WAT     H264917   9.756   8.733   3.920
21559WAT      O64918   9.420   5.362   6.436
21559WAT     H164919   9.453   5.401   6.349
21559WAT     H264920   9.353   5.290   6.417
21560WAT      O64921   6.012   9.615   4.049
21560WAT     H164922   6.072   9.644   4.123
21560WAT     H264923   5.974   9.525   4.070
21561WAT      O64924   7.291   0.384   5.707
21561WAT     H164925   7.326   0.403   5.616
21561WAT     H264926   7.365   0.390   5.774
21562WAT      O64927   9.072   7.057   1.018
21562WAT     H164928   9.014   6.975   1.016
21562WAT     H264929   9.047   7.117   0.942
21563WAT      O64930   5.516   7.498   3.022
21563WAT     H164931   5.595   7.544   3.064
21563WAT     H264932   5.439   7.500   3.086
21564WAT      O64933   8.433   6.118   0.398
21564WAT     H164934   8.432   6.045   0.467
21564WAT     H264935   8.372   6.192   0.426
21565WAT      O64936   5.829   8.155   7.419
21565WAT     H164937   5.763   8.206   7.364
21565WAT     H264938   5.916   8.204   7.419
21566WAT      O64939   0.520   5.741   5.951
21566WAT     H164940   0.487   5.740   6.045
21566WAT     H264941   0.619   5.746   5.950
21567WAT      O64942   6.407   8.841   7.372
21567WAT     H164943   6.485   8.790   7.406
21567WAT     H264944   6.332   8.835   7.437
21568WAT      O64945   5.495   7.748   5.121
21568WAT     H164946   5.434   7.702   5.057
21568WAT     H264947   5.579   7.694   5.131
21569WAT      O64948   5.388   6.642   6.515
21569WAT     H164949   5.428   6.669   6.428
21569WAT     H264950   5.369   6.544   6.515
21570WAT      O64951   9.009   7.903   1.499
21570WAT     H164952   9.039   7.917   1.593
21570WAT     H264953   9.073   7.843   1.451
21571WAT      O64954   6.018   6.406   8.987
21571WAT     H164955   6.042   6.338   9.056
21571WAT     H264956   5.986   6.489   9.031
21572WAT      O64957   9.289   4.256   0.975
21572WAT     H164958   9.382   4.236   0.946
21572WAT     H264959   9.288   4.276   1.073
21573WAT      O64960   2.761   8.797   2.370
21573WAT     H164961   2.773   8.779   2.272
21573WAT     H264962   2.755   8.896   2.385
21574WAT      O64963   5.821   0.955   3.994
21574WAT     H164964   5.838   0.877   3.934
21574WAT     H264965   5.814   0.924   4.089
21575WAT      O64966   9.692   2.368   9.645
21575WAT     H164967   9.731   2.447   9.598
21575WAT     H264968   9.594   2.363   9.627
21576WAT      O64969   5.180   2.385   7.271
21576WAT     H164970   5.188   2.286   7.266
21576WAT     H264971   5.134   2.420   7.189
21577WAT      O64972   9.068   8.911   3.289
21577WAT     H164973   9.135   8.839   3.270
21577WAT     H264974   9.008   8.882   3.364
21578WAT      O64975   5.821   0.431   7.889
21578WAT     H164976   5.786   0.347   7.931
21578WAT     H264977   5.771   0.510   7.925
21579WAT      O64978   7.035   8.891   9.767
21579WAT     H164979   7.056   8.974   9.819
21579WAT     H264980   7.028   8.914   9.670
21580WAT      O64981   1.182   5.596   8.201
21580WAT     H164982   1.261   5.657   8.190
21580WAT     H264983   1.104   5.648   8.237
21581WAT      O64984   5.350   8.564   8.300
21581WAT     H164985   5.278   8.592   8.237
21581WAT     H264986   5.395   8.644   8.338
21582WAT      O64987   6.029   0.840   1.172
21582WAT     H164988   6.014   0.925   1.223
21582WAT     H264989   5.963   0.834   1.097
21583WAT      O64990   7.545   5.042   8.342
21583WAT     H164991   7.515   5.107   8.412
21583WAT     H264992   7.499   4.954   8.357
21584WAT      O64993   3.036   9.243   4.386
21584WAT     H164994   2.966   9.220   4.319
21584WAT     H264995   3.118   9.274   4.338
21585WAT      O64996   2.585   7.460   2.783
21585WAT     H164997   2.512   7.408   2.825
21585WAT     H264998   2.576   7.557   2.807
21586WAT      O64999   8.537   6.839   0.280
21586WAT     H165000   8.525   6.888   0.366
21586WAT     H265001   8.610   6.882   0.227
21587WAT      O65002   2.852   4.451   5.642
21587WAT     H165003   2.754   4.473   5.647
21587WAT     H265004   2.905   4.536   5.647
21588WAT      O65005   5.618   5.314   1.491
21588WAT     H165006   5.594   5.226   1.534
21588WAT     H265007   5.535   5.368   1.478
21589WAT      O65008   9.297   5.072   1.811
21589WAT     H165009   9.200   5.096   1.803
21589WAT     H265010   9.351   5.128   1.748
21590WAT      O65011   3.667   8.470   9.416
21590WAT     H165012   3.723   8.470   9.333
21590WAT     H265013   3.694   8.546   9.474
21591WAT      O65014   1.357   4.730   0.156
21591WAT     H165015   1.434   4.715   0.094
21591WAT     H265016   1.323   4.823   0.146
21592WAT      O65017   3.088   5.274   9.771
21592WAT     H165018   3.181   5.249   9.747
21592WAT     H265019   3.084   5.300   9.868
21593WAT      O65020   7.270   9.191   2.699
21593WAT     H165021   7.344   9.148   2.750
21593WAT     H265022   7.229   9.125   2.636
21594WAT      O65023   8.496   5.352   9.097
21594WAT     H165024   8.583   5.401   9.109
21594WAT     H265025   8.515   5.257   9.074
21595WAT      O65026   7.651   8.672   2.034
21595WAT     H165027   7.627   8.769   2.042
21595WAT     H265028   7.731   8.662   1.975
21596WAT      O65029   4.458   6.841   8.903
21596WAT     H165030   4.460   6.806   8.997
21596WAT     H265031   4.403   6.924   8.900
21597WAT      O65032   6.227   2.627   0.969
21597WAT     H165033   6.275   2.666   0.891
21597WAT     H265034   6.260   2.534   0.986
21598WAT      O65035   0.767   4.315   7.294
21598WAT     H165036   0.688   4.360   7.253
21598WAT     H265037   0.822   4.271   7.223
21599WAT      O65038   2.828   0.199   3.032
21599WAT     H165039   2.823   0.183   3.130
21599WAT     H265040   2.780   0.284   3.010
21600WAT      O65041   9.093   6.474   0.191
21600WAT     H165042   9.041   6.388   0.185
21600WAT     H265043   9.040   6.548   0.151
21601WAT      O65044   5.456   3.838   7.019
21601WAT     H165045   5.359   3.855   7.002
21601WAT     H265046   5.499   3.802   6.936
21602WAT      O65047   9.260   4.334   4.310
21602WAT     H165048   9.346   4.362   4.267
21602WAT     H265049   9.193   4.313   4.238
21603WAT      O65050   2.631   4.004   6.546
21603WAT     H165051   2.604   3.988   6.452
21603WAT     H265052   2.643   3.917   6.593
21604WAT      O65053   8.599   2.075   4.439
21604WAT     H165054   8.614   1.978   4.457
21604WAT     H265055   8.614   2.127   4.523
21605WAT      O65056   6.845   0.970   7.321
21605WAT     H165057   6.801   0.901   7.262
21605WAT     H265058   6.830   0.946   7.417
21606WAT      O65059   8.072   1.431   9.393
21606WAT     H165060   7.975   1.431   9.368
21606WAT     H265061   8.128   1.430   9.310
21607WAT      O65062   9.504   1.754   5.702
21607WAT     H165063   9.514   1.828   5.635
21607WAT     H265064   9.543   1.670   5.665
21608WAT      O65065   2.346   1.562   5.694
21608WAT     H165066   2.335   1.520   5.784
21608WAT     H265067   2.434   1.536   5.655
21609WAT      O65068   4.249   7.186   6.523
21609WAT     H165069   4.208   7.255   6.463
21609WAT     H265070   4.323   7.140   6.474
21610WAT      O65071   0.261   3.225   5.084
21610WAT     H165072   0.171   3.256   5.052
21610WAT     H265073   0.332   3.255   5.020
21611WAT      O65074   1.538   0.972   8.877
21611WAT     H165075   1.594   0.890   8.891
21611WAT     H265076   1.479   0.987   8.957
21612WAT      O65077   8.312   0.448   0.798
21612WAT     H165078   8.385   0.422   0.736
21612WAT     H265079   8.228   0.466   0.747
21613WAT      O65080   8.274   1.051   6.597
21613WAT     H165081   8.365   1.038   6.637
21613WAT     H265082   8.257   0.980   6.529
21614WAT      O65083   2.040   6.002   1.344
21614WAT     H165084   1.956   6.056   1.349
21614WAT     H265085   2.023   5.910   1.377
21615WAT      O65086   0.412   4.853   8.929
21615WAT     H165087   0.431   4.851   9.028
21615WAT     H265088   0.332   4.910   8.911
21616WAT      O65089   1.556   2.637   4.250
21616WAT     H165090   1.634   2.611   4.194
21616WAT     H265091   1.515   2.721   4.213
21617WAT      O65092   0.450   9.036   2.580
21617WAT     H165093   0.506   8.982   2.642
21617WAT     H265094   0.354   9.009   2.589
21618WAT      O65095   4.337   1.656   8.802
21618WAT     H165096   4.296   1.665   8.894
21618WAT     H265097   4.273   1.693   8.735
21619WAT      O65098   5.924   9.573   0.937
21619WAT     H165099   6.021   9.590   0.921
21619WAT     H265100   5.914   9.486   0.986
21620WAT      O65101   7.891   8.718   1.867
21620WAT     H165102   7.946   8.792   1.830
21620WAT     H265103   7.882   8.645   1.799
21621WAT      O65104   1.753   8.087   8.640
21621WAT     H165105   1.833   8.129   8.597
21621WAT     H265106   1.784   8.023   8.711
21622WAT      O65107   0.275   8.577   3.333
21622WAT     H165108   0.192   8.624   3.304
21622WAT     H265109   0.290   8.595   3.431
21623WAT      O65110   7.582   3.325   7.118
21623WAT     H165111   7.626   3.273   7.191
21623WAT     H265112   7.650   3.348   7.048
21624WAT      O65113   6.096   4.242   8.694
21624WAT     H165114   6.008   4.253   8.649
21624WAT     H265115   6.089   4.271   8.789
21625WAT      O65116   0.789   3.402   3.028
21625WAT     H165117   0.831   3.432   3.113
21625WAT     H265118   0.762   3.306   3.035
21626WAT      O65119   1.332   3.409   0.267
21626WAT     H165120   1.431   3.400   0.278
21626WAT     H265121   1.297   3.333   0.212
21627WAT      O65122   5.795   0.308   5.218
21627WAT     H165123   5.732   0.379   5.188
21627WAT     H265124   5.845   0.272   5.139
21628WAT      O65125   2.307   9.498   8.331
21628WAT     H165126   2.219   9.544   8.346
21628WAT     H265127   2.316   9.422   8.395
21629WAT      O65128   8.990   4.212   4.869
21629WAT     H165129   9.036   4.126   4.848
21629WAT     H265130   9.018   4.281   4.803
21630WAT      O65131   8.933   3.092   8.531
21630WAT     H165132   9.017   3.134   8.564
21630WAT     H265133   8.917   3.119   8.436
21631WAT      O65134   6.164   8.612   5.987
21631WAT     H165135   6.255   8.654   5.989
21631WAT     H265136   6.096   8.678   6.018
21632WAT      O65137   2.251   8.197   1.163
21632WAT     H165138   2.258   8.279   1.105
21632WAT     H265139   2.157   8.187   1.195
21633WAT      O65140   5.768   3.688   5.230
21633WAT     H165141   5.785   3.652   5.138
21633WAT     H265142   5.719   3.619   5.284
21634WAT      O65143   7.530   0.822   3.220
21634WAT     H165144   7.541   0.730   3.257
21634WAT     H265145   7.607   0.879   3.248
21635WAT      O65146   2.597   9.366   0.886
21635WAT     H165147   2.536   9.377   0.807
21635WAT     H265148   2.665   9.296   0.866
21636WAT      O65149   0.088   6.635   5.762
21636WAT     H165150   0.050   6.619   5.853
21636WAT     H265151   0.030   6.699   5.712
21637WAT      O65152   1.111   0.031   4.581
21637WAT     H165153   1.190  -0.025   4.609
21637WAT     H265154   1.138   0.090   4.505
21638WAT      O65155   3.129   6.854   9.053
21638WAT     H165156   3.068   6.927   9.022
21638WAT     H265157   3.075   6.777   9.089
21639WAT      O65158   3.123   3.821   5.246
21639WAT     H165159   3.184   3.791   5.319
21639WAT     H265160   3.177   3.861   5.172
21640WAT      O65161   1.558   2.944   4.551
21640WAT     H165162   1.465   2.935   4.517
21640WAT     H265163   1.599   2.854   4.563
21641WAT      O65164   3.797   6.584   7.982
21641WAT     H165165   3.871   6.649   7.997
21641WAT     H265166   3.829   6.511   7.921
21642WAT      O65167   1.082   7.606   5.547
21642WAT     H165168   1.013   7.555   5.599
21642WAT     H265169   1.108   7.687   5.599
21643WAT      O65170   4.288   9.559   7.913
21643WAT     H165171   4.241   9.637   7.953
21643WAT     H265172   4.377   9.548   7.956
21644WAT      O65173   8.503   0.617   9.196
21644WAT     H165174   8.567   0.563   9.251
21644WAT     H265175   8.485   0.704   9.243
21645WAT      O65176   8.489   5.206   2.155
21645WAT     H165177   8.483   5.189   2.254
21645WAT     H265178   8.515   5.121   2.108
21646WAT      O65179   4.991   6.615   1.334
21646WAT     H165180   5.003   6.611   1.433
21646WAT     H265181   5.060   6.557   1.290
21647WAT      O65182   8.438   5.502   9.357
21647WAT     H165183   8.354   5.495   9.410
21647WAT     H265184   8.427   5.452   9.271
21648WAT      O65185   0.136   5.337   7.097
21648WAT     H165186   0.178   5.423   7.069
21648WAT     H265187   0.040   5.336   7.068
21649WAT      O65188   3.839   6.924   9.767
21649WAT     H165189   3.908   6.884   9.828
21649WAT     H265190   3.773   6.976   9.822
21650WAT      O65191   0.096   9.140   8.303
21650WAT     H165192   0.062   9.202   8.374
21650WAT     H265193   0.184   9.175   8.268
21651WAT      O65194   8.926   3.368   4.923
21651WAT     H165195   8.959   3.416   4.842
21651WAT     H265196   8.833   3.398   4.943
21652WAT      O65197   8.831   0.524   8.462
21652WAT     H165198   8.819   0.441   8.408
21652WAT     H265199   8.926   0.533   8.489
21653WAT      O65200   5.176   8.551   9.613
21653WAT     H165201   5.250   8.614   9.634
21653WAT     H265202   5.122   8.588   9.537
21654WAT      O65203   9.063   3.401   5.169
21654WAT     H165204   9.013   3.416   5.084
21654WAT     H265205   9.138   3.467   5.176
21655WAT      O65206   2.553   5.036   2.283
21655WAT     H165207   2.623   4.986   2.232
21655WAT     H265208   2.593   5.117   2.325
21656WAT      O65209   3.494   1.201   9.310
21656WAT     H165210   3.442   1.189   9.226
21656WAT     H265211   3.591   1.186   9.292
21657WAT      O65212   3.882   3.542   2.440
21657WAT     H165213   3.920   3.559   2.349
21657WAT     H265214   3.910   3.451   2.472
21658WAT      O65215   2.078   2.931   1.553
21658WAT     H165216   2.076   2.917   1.454
21658WAT     H265217   2.149   2.997   1.576
21659WAT      O65218   3.064   3.636   7.972
21659WAT     H165219   2.987   3.581   7.938
21659WAT     H265220   3.056   3.646   8.071
21660WAT      O65221   5.082   0.601   5.545
21660WAT     H165222   5.029   0.526   5.586
21660WAT     H265223   5.094   0.674   5.613
21661WAT      O65224   9.401   0.356   9.731
21661WAT     H165225   9.412   0.315   9.822
21661WAT     H265226   9.354   0.443   9.739
21662WAT      O65227   0.884   1.695   7.865
21662WAT     H165228   0.979   1.722   7.877
21662WAT     H265229   0.860   1.625   7.932
21663WAT      O65230   4.856   9.697   3.485
21663WAT     H165231   4.907   9.639   3.422
21663WAT     H265232   4.900   9.695   3.575
21664WAT      O65233   3.109   6.154   2.086
21664WAT     H165234   3.035   6.219   2.104
21664WAT     H265235   3.164   6.141   2.169
21665WAT      O65236   5.603   5.826   8.855
21665WAT     H165237   5.638   5.918   8.837
21665WAT     H265238   5.667   5.758   8.819
21666WAT      O65239   3.483   3.007   6.078
21666WAT     H165240   3.538   2.933   6.116
21666WAT     H265241   3.475   2.994   5.979
21667WAT      O65242   0.540   0.261   7.125
21667WAT     H165243   0.557   0.304   7.214
21667WAT     H265244   0.628   0.231   7.087
21668WAT      O65245   3.439   6.687   8.483
21668WAT     H165246   3.382   6.742   8.544
21668WAT     H265247   3.525   6.665   8.529
21669WAT      O65248   8.494   4.051   8.882
21669WAT     H165249   8.420   4.068   8.816
21669WAT     H265250   8.582   4.063   8.837
21670WAT      O65251   5.583   4.319   8.710
21670WAT     H165252   5.520   4.381   8.663
21670WAT     H265253   5.536   4.233   8.732
21671WAT      O65254   4.494   1.393   1.643
21671WAT     H165255   4.571   1.367   1.701
21671WAT     H265256   4.435   1.314   1.629
21672WAT      O65257   9.498   5.266   0.845
21672WAT     H165258   9.524   5.177   0.808
21672WAT     H265259   9.452   5.319   0.774
21673WAT      O65260   2.030   9.083   1.731
21673WAT     H165261   2.030   9.182   1.716
21673WAT     H265262   2.007   9.037   1.645
21674WAT      O65263   5.967   2.647   6.883
21674WAT     H165264   5.916   2.698   6.814
21674WAT     H265265   5.998   2.709   6.955
21675WAT      O65266   7.883   6.210   5.808
21675WAT     H165267   7.826   6.128   5.817
21675WAT     H265268   7.913   6.240   5.899
21676WAT      O65269   1.047   6.128   8.755
21676WAT     H165270   0.967   6.174   8.794
21676WAT     H265271   1.039   6.029   8.768
21677WAT      O65272   1.765   5.886   4.408
21677WAT     H165273   1.753   5.798   4.454
21677WAT     H265274   1.843   5.880   4.345
21678WAT      O65275   6.039   8.476   2.318
21678WAT     H165276   6.010   8.398   2.261
21678WAT     H265277   6.086   8.441   2.399
21679WAT      O65278   2.570   7.298   6.129
21679WAT     H165279   2.559   7.296   6.229
21679WAT     H265280   2.615   7.384   6.103
21680WAT      O65281   1.373   8.701   3.866
21680WAT     H165282   1.279   8.683   3.897
21680WAT     H265283   1.416   8.615   3.837
21681WAT      O65284   2.086   7.464   1.481
21681WAT     H165285   2.068   7.482   1.384
21681WAT     H265286   2.091   7.365   1.495
21682WAT      O65287   5.023   8.321   5.925
21682WAT     H165288   5.097   8.301   5.989
21682WAT     H265289   5.014   8.247   5.859
21683WAT      O65290   7.064   1.674   3.390
21683WAT     H165291   7.037   1.740   3.319
21683WAT     H265292   7.044   1.713   3.480
21684WAT      O65293   9.694   0.170   9.656
21684WAT     H165294   9.735   0.079   9.669
21684WAT     H265295   9.596   0.160   9.640
21685WAT      O65296   5.135   7.823   2.759
21685WAT     H165297   5.195   7.766   2.814
21685WAT     H265298   5.039   7.801   2.778
21686WAT      O65299   3.712   1.222   6.682
21686WAT     H165300   3.747   1.312   6.708
21686WAT     H265301   3.659   1.184   6.758
21687WAT      O65302   8.450   2.485   8.484
21687WAT     H165303   8.375   2.494   8.550
21687WAT     H265304   8.518   2.556   8.501
21688WAT      O65305   1.795   5.314   6.990
21688WAT     H165306   1.852   5.359   6.921
21688WAT     H265307   1.729   5.254   6.946
21689WAT      O65308   7.020   1.166   5.176
21689WAT     H165309   7.015   1.130   5.269
21689WAT     H265310   7.055   1.260   5.178
21690WAT      O65311   1.879   2.615   8.280
21690WAT     H165312   1.926   2.569   8.356
21690WAT     H265313   1.824   2.690   8.316
21691WAT      O65314   5.454   4.000   1.602
21691WAT     H165315   5.402   3.970   1.522
21691WAT     H265316   5.402   3.980   1.685
21692WAT      O65317   1.829   6.287   9.021
21692WAT     H165318   1.730   6.302   9.019
21692WAT     H265319   1.877   6.374   9.013
21693WAT      O65320   4.942   2.128   2.431
21693WAT     H165321   4.869   2.161   2.491
21693WAT     H265322   4.943   2.183   2.347
21694WAT      O65323   7.298   3.147   5.482
21694WAT     H165324   7.264   3.199   5.403
21694WAT     H265325   7.308   3.208   5.560
21695WAT      O65326   5.387   3.017   8.948
21695WAT     H165327   5.308   2.956   8.938
21695WAT     H265328   5.453   2.977   9.011
21696WAT      O65329   7.127   7.924   2.177
21696WAT     H165330   7.109   7.883   2.266
21696WAT     H265331   7.174   7.857   2.119
21697WAT      O65332   9.305   4.225   1.843
21697WAT     H165333   9.253   4.192   1.922
21697WAT     H265334   9.263   4.191   1.759
21698WAT      O65335   1.748   4.769   4.450
21698WAT     H165336   1.725   4.859   4.485
21698WAT     H265337   1.842   4.768   4.417
21699WAT      O65338   3.642   8.540   4.171
21699WAT     H165339   3.610   8.456   4.128
21699WAT     H265340   3.742   8.544   4.168
21700WAT      O65341   1.428   4.039   8.791
21700WAT     H165342   1.467   4.050   8.700
21700WAT     H265343   1.426   3.942   8.815
21701WAT      O65344   9.544   6.291   3.025
21701WAT     H165345   9.595   6.333   3.101
21701WAT     H265346   9.522   6.197   3.048
21702WAT      O65347   7.946   2.974   2.818
21702WAT     H165348   7.891   2.917   2.755
21702WAT     H265349   7.897   2.983   2.905
21703WAT      O65350   5.646   6.399   7.731
21703WAT     H165351   5.565   6.361   7.687
21703WAT     H265352   5.702   6.325   7.767
21704WAT      O65353   7.846   2.245   0.764
21704WAT     H165354   7.753   2.248   0.801
21704WAT     H265355   7.897   2.171   0.809
21705WAT      O65356   6.730   0.200   5.724
21705WAT     H165357   6.758   0.117   5.675
21705WAT     H265358   6.787   0.277   5.693
21706WAT      O65359   6.553   3.828   4.758
21706WAT     H165360   6.474   3.836   4.819
21706WAT     H265361   6.626   3.886   4.792
21707WAT      O65362   0.538   2.938   5.757
21707WAT     H165363   0.574   2.888   5.835
21707WAT     H265364   0.612   2.990   5.714
21708WAT      O65365   5.052   5.238   5.463
21708WAT     H165366   5.000   5.153   5.475
21708WAT     H265367   5.118   5.227   5.389
21709WAT      O65368   3.312   8.272   3.566
21709WAT     H165369   3.247   8.347   3.578
21709WAT     H265370   3.280   8.192   3.617
21710WAT      O65371   1.068   9.426   1.139
21710WAT     H165372   1.013   9.504   1.110
21710WAT     H265373   1.155   9.459   1.176
21711WAT      O65374   9.495   3.108   1.396
21711WAT     H165375   9.430   3.137   1.326
21711WAT     H265376   9.586   3.146   1.375
21712WAT      O65377   6.220   1.303   4.447
21712WAT     H165378   6.283   1.276   4.520
21712WAT     H265379   6.159   1.374   4.480
21713WAT      O65380   9.152   3.158   2.000
21713WAT     H165381   9.227   3.150   2.065
21713WAT     H265382   9.070   3.191   2.046
21714WAT      O65383   1.575   4.093   9.754
21714WAT     H165384   1.659   4.135   9.720
21714WAT     H265385   1.499   4.118   9.694
21715WAT      O65386   9.848   9.534   8.856
21715WAT     H165387   9.852   9.593   8.776
21715WAT     H265388   9.760   9.544   8.902
21716WAT      O65389   4.657   0.782   4.624
21716WAT     H165390   4.622   0.696   4.662
21716WAT     H265391   4.581   0.845   4.607
21717WAT      O65392   9.016   1.728   8.783
21717WAT     H165393   9.043   1.761   8.874
21717WAT     H265394   9.092   1.740   8.719
21718WAT      O65395   5.273   4.111   3.605
21718WAT     H165396   5.182   4.109   3.645
21718WAT     H265397   5.313   4.019   3.607
21719WAT      O65398   7.646   8.982   7.305
21719WAT     H165399   7.558   8.972   7.351
21719WAT     H265400   7.631   9.007   7.209
21720WAT      O65401   3.275   4.420   4.453
21720WAT     H165402   3.342   4.495   4.457
21720WAT     H265403   3.319   4.334   4.478
21721WAT      O65404   4.605   4.416   2.316
21721WAT     H165405   4.598   4.329   2.366
21721WAT     H265406   4.692   4.420   2.268
21722WAT      O65407   4.525   2.798   2.903
21722WAT     H165408   4.479   2.886   2.911
21722WAT     H265409   4.466   2.733   2.855
21723WAT      O65410   0.266   9.104   9.305
21723WAT     H165411   0.300   9.066   9.391
21723WAT     H265412   0.254   9.203   9.314
21724WAT      O65413   6.994   6.923   8.502
21724WAT     H165414   6.979   6.993   8.432
21724WAT     H265415   6.982   6.964   8.593
21725WAT      O65416   1.035   0.400   1.825
21725WAT     H165417   0.966   0.472   1.818
21725WAT     H265418   1.056   0.364   1.734
21726WAT      O65419   1.292   2.831   4.709
21726WAT     H165420   1.246   2.884   4.780
21726WAT     H265421   1.303   2.888   4.627
21727WAT      O65422   5.544   6.328   3.887
21727WAT     H165423   5.549   6.229   3.898
21727WAT     H265424   5.544   6.350   3.790
21728WAT      O65425   0.431   2.590   0.572
21728WAT     H165426   0.411   2.543   0.485
21728WAT     H265427   0.349   2.639   0.602
21729WAT      O65428   5.375   2.927   7.198
21729WAT     H165429   5.399   2.870   7.277
21729WAT     H265430   5.459   2.956   7.152
21730WAT      O65431   5.101   3.428   0.208
21730WAT     H165432   5.029   3.435   0.139
21730WAT     H265433   5.182   3.385   0.169
21731WAT      O65434   0.189   3.090   7.280
21731WAT     H165435   0.183   3.106   7.181
21731WAT     H265436   0.285   3.087   7.308
21732WAT      O65437   8.560   6.674   2.565
21732WAT     H165438   8.498   6.749   2.590
21732WAT     H265439   8.636   6.671   2.630
21733WAT      O65440   8.836   8.525   0.100
21733WAT     H165441   8.821   8.564   0.191
21733WAT     H265442   8.799   8.433   0.097
21734WAT      O65443   5.187   2.732   5.977
21734WAT     H165444   5.114   2.794   6.003
21734WAT     H265445   5.185   2.719   5.877
21735WAT      O65446   2.350   4.890   4.085
21735WAT     H165447   2.386   4.820   4.023
21735WAT     H265448   2.406   4.973   4.078
21736WAT      O65449   4.083   2.544   3.664
21736WAT     H165450   4.143   2.611   3.622
21736WAT     H265451   4.077   2.463   3.606
21737WAT      O65452   0.491   1.233   3.730
21737WAT     H165453   0.394   1.214   3.743
21737WAT     H265454   0.524   1.290   3.805
21738WAT      O65455   8.664   6.149   6.105
21738WAT     H165456   8.623   6.164   6.195
21738WAT     H265457   8.597   6.105   6.045
21739WAT      O65458   0.839   4.287   4.078
21739WAT     H165459   0.816   4.218   4.011
21739WAT     H265460   0.854   4.243   4.167
21740WAT      O65461   2.518   4.422   4.059
21740WAT     H165462   2.585   4.494   4.081
21740WAT     H265463   2.493   4.428   3.962
21741WAT      O65464   1.826   0.682   6.090
21741WAT     H165465   1.836   0.626   6.172
21741WAT     H265466   1.915   0.717   6.062
21742WAT      O65467   6.975   8.395   3.773
21742WAT     H165468   6.954   8.327   3.843
21742WAT     H265469   6.973   8.487   3.814
21743WAT      O65470   3.249   1.391   5.703
21743WAT     H165471   3.245   1.490   5.684
21743WAT     H265472   3.320   1.374   5.772
21744WAT      O65473   9.805   4.127   3.605
21744WAT     H165474   9.903   4.141   3.623
21744WAT     H265475   9.786   4.143   3.508
21745WAT      O65476   6.581   8.270   3.475
21745WAT     H165477   6.485   8.244   3.485
21745WAT     H265478   6.639   8.199   3.516
21746WAT      O65479   6.294   1.481   6.996
21746WAT     H165480   6.265   1.524   6.911
21746WAT     H265481   6.222   1.419   7.028
21747WAT      O65482   6.058   4.711   3.163
21747WAT     H165483   6.054   4.624   3.113
21747WAT     H265484   6.139   4.710   3.223
21748WAT      O65485   1.941   3.170   0.480
21748WAT     H165486   1.917   3.234   0.407
21748WAT     H265487   1.935   3.216   0.569
21749WAT      O65488   8.781   8.600   6.562
21749WAT     H165489   8.695   8.647   6.539
21749WAT     H265490   8.793   8.522   6.500
21750WAT      O65491   3.037   6.342   4.271
21750WAT     H165492   2.965   6.371   4.208
21750WAT     H265493   3.123   6.334   4.220
21751WAT      O65494   0.652   0.901   7.528
21751WAT     H165495   0.654   0.816   7.581
21751WAT     H265496   0.628   0.880   7.434
21752WAT      O65497   7.547   2.243   1.741
21752WAT     H165498   7.520   2.322   1.687
21752WAT     H265499   7.512   2.253   1.835
21753WAT      O65500   4.806   4.919   8.753
21753WAT     H165501   4.793   4.877   8.663
21753WAT     H265502   4.893   4.968   8.755
21754WAT      O65503   3.027   3.601   5.833
21754WAT     H165504   2.936   3.579   5.868
21754WAT     H265505   3.018   3.663   5.755
21755WAT      O65506   7.550   9.455   6.798
21755WAT     H165507   7.586   9.378   6.746
21755WAT     H265508   7.564   9.540   6.746
21756WAT      O65509   7.449   3.051   1.190
21756WAT     H165510   7.539   3.038   1.150
21756WAT     H265511   7.435   3.148   1.210
21757WAT      O65512   1.844   8.405   2.219
21757WAT     H165513   1.791   8.489   2.210
21757WAT     H265514   1.936   8.419   2.181
21758WAT      O65515   0.558   3.101   9.800
21758WAT     H165516   0.633   3.039   9.778
21758WAT     H265517   0.594   3.180   9.851
21759WAT      O65518   9.148   2.861   2.785
21759WAT     H165519   9.186   2.892   2.872
21759WAT     H265520   9.105   2.771   2.797
21760WAT      O65521   9.364   9.444   3.321
21760WAT     H165522   9.359   9.363   3.379
21760WAT     H265523   9.449   9.443   3.270
21761WAT      O65524   0.145   4.730   6.835
21761WAT     H165525   0.120   4.634   6.850
21761WAT     H265526   0.235   4.748   6.873
21762WAT      O65527   0.246   3.172   6.969
21762WAT     H165528   0.223   3.158   6.873
21762WAT     H265529   0.322   3.237   6.976
21763WAT      O65530   8.667   2.488   5.540
21763WAT     H165531   8.694   2.413   5.600
21763WAT     H265532   8.577   2.470   5.501
21764WAT      O65533   6.851   4.029   7.201
21764WAT     H165534   6.883   3.977   7.122
21764WAT     H265535   6.912   4.013   7.278
21765WAT      O65536   6.336   1.145   9.040
21765WAT     H165537   6.260   1.127   8.978
21765WAT     H265538   6.420   1.104   9.003
21766WAT      O65539   9.604   9.070   9.110
21766WAT     H165540   9.691   9.113   9.136
21766WAT     H265541   9.571   9.111   9.025
21767WAT      O65542   4.633   0.262   0.352
21767WAT     H165543   4.724   0.280   0.314
21767WAT     H265544   4.563   0.285   0.284
21768WAT      O65545   5.958   4.221   6.467
21768WAT     H165546   5.884   4.232   6.533
21768WAT     H265547   5.966   4.304   6.412
21769WAT      O65548   0.142   4.372   0.277
21769WAT     H165549   0.210   4.445   0.289
21769WAT     H265550   0.075   4.401   0.208
21770WAT      O65551   4.067   9.021   1.951
21770WAT     H165552   4.137   9.023   2.022
21770WAT     H265553   4.101   9.069   1.870
21771WAT      O65554   4.699   0.423   3.097
21771WAT     H165555   4.781   0.420   3.040
21771WAT     H265556   4.623   0.459   3.043
21772WAT      O65557   7.485   8.318   0.216
21772WAT     H165558   7.398   8.363   0.199
21772WAT     H265559   7.520   8.344   0.306
21773WAT      O65560   2.443   5.480   6.007
21773WAT     H165561   2.470   5.394   6.050
21773WAT     H265562   2.480   5.556   6.061
21774WAT      O65563   2.014   4.730   1.530
21774WAT     H165564   2.046   4.636   1.546
21774WAT     H265565   1.928   4.744   1.580
21775WAT      O65566   9.836   5.692   7.884
21775WAT     H165567   9.924   5.677   7.930
21775WAT     H265568   9.847   5.679   7.786
21776WAT      O65569   6.581   3.459   0.336
21776WAT     H165570   6.625   3.547   0.320
21776WAT     H265571   6.651   3.389   0.352
21777WAT      O65572   3.131   9.838   8.411
21777WAT     H165573   3.032   9.839   8.426
21777WAT     H265574   3.159   9.921   8.364
21778WAT      O65575   7.144   8.567   2.299
21778WAT     H165576   7.120   8.471   2.312
21778WAT     H265577   7.067   8.625   2.328
21779WAT      O65578   4.137   6.691   3.996
21779WAT     H165579   4.154   6.651   4.086
21779WAT     H265580   4.143   6.791   4.002
21780WAT      O65581   5.696   0.205   3.979
21780WAT     H165582   5.623   0.184   3.913
21780WAT     H265583   5.661   0.267   4.049
21781WAT      O65584   8.898   4.921   4.858
21781WAT     H165585   8.937   5.013   4.852
21781WAT     H265586   8.799   4.926   4.843
21782WAT      O65587   2.098   0.998   4.521
21782WAT     H165588   2.055   0.948   4.446
21782WAT     H265589   2.119   0.935   4.596
21783WAT      O65590   2.020   3.836   0.786
21783WAT     H165591   2.024   3.778   0.705
21783WAT     H265592   2.074   3.919   0.770
21784WAT      O65593   5.634   4.895   2.326
21784WAT     H165594   5.550   4.942   2.353
21784WAT     H265595   5.696   4.960   2.281
21785WAT      O65596   4.935   8.461   9.206
21785WAT     H165597   4.877   8.540   9.228
21785WAT     H265598   5.023   8.493   9.170
21786WAT      O65599   0.061   7.436   3.305
21786WAT     H165600   0.127   7.486   3.361
21786WAT     H265601   0.087   7.340   3.300
21787WAT      O65602   1.410   3.033   6.477
21787WAT     H165603   1.481   3.074   6.419
21787WAT     H265604   1.415   3.071   6.569
21788WAT      O65605   1.608   3.356   9.067
21788WAT     H165606   1.510   3.347   9.088
21788WAT     H265607   1.659   3.363   9.152
21789WAT      O65608   4.270   8.450   9.837
21789WAT     H165609   4.224   8.362   9.820
21789WAT     H265610   4.240   8.487   9.924
21790WAT      O65611   5.404   3.041   1.365
21790WAT     H165612   5.330   3.099   1.399
21790WAT     H265613   5.478   3.039   1.432
21791WAT      O65614   9.524   9.189   3.370
21791WAT     H165615   9.579   9.125   3.423
21791WAT     H265616   9.427   9.178   3.396
21792WAT      O65617   0.859   4.514   8.615
21792WAT     H165618   0.850   4.425   8.659
21792WAT     H265619   0.909   4.504   8.529
21793WAT      O65620   2.852   0.411   5.429
21793WAT     H165621   2.824   0.433   5.335
21793WAT     H265622   2.859   0.312   5.439
21794WAT      O65623   3.628   2.155   0.935
21794WAT     H165624   3.555   2.118   0.877
21794WAT     H265625   3.616   2.123   1.029
21795WAT      O65626   7.305   4.391   1.574
21795WAT     H165627   7.301   4.478   1.624
21795WAT     H265628   7.255   4.399   1.488
21796WAT      O65629   6.539   8.426   5.581
21796WAT     H165630   6.606   8.499   5.569
21796WAT     H265631   6.510   8.392   5.492
21797WAT      O65632   0.674   2.439   2.752
21797WAT     H165633   0.622   2.396   2.825
21797WAT     H265634   0.626   2.522   2.722
21798WAT      O65635   2.183   5.806   1.743
21798WAT     H165636   2.164   5.708   1.744
21798WAT     H265637   2.100   5.856   1.720
21799WAT      O65638   4.451   3.041   7.136
21799WAT     H165639   4.506   3.113   7.094
21799WAT     H265640   4.356   3.073   7.145
21800WAT      O65641   4.499   6.673   1.277
21800WAT     H165642   4.449   6.747   1.323
21800WAT     H265643   4.450   6.646   1.194
21801WAT      O65644   1.845   0.878   7.322
21801WAT     H165645   1.852   0.817   7.243
21801WAT     H265646   1.936   0.897   7.358
21802WAT      O65647   0.141   5.794   6.932
21802WAT     H165648   0.062   5.734   6.946
21802WAT     H265649   0.127   5.880   6.981
21803WAT      O65650   8.078   8.975   9.831
21803WAT     H165651   7.987   9.013   9.815
21803WAT     H265652   8.106   8.922   9.751
21804WAT      O65653   8.268   4.817   3.816
21804WAT     H165654   8.328   4.878   3.867
21804WAT     H265655   8.316   4.782   3.736
21805WAT      O65656   6.426   9.660   1.815
21805WAT     H165657   6.400   9.742   1.866
21805WAT     H265658   6.512   9.624   1.853
21806WAT      O65659   1.619   6.053   5.835
21806WAT     H165660   1.612   6.051   5.736
21806WAT     H265661   1.559   5.984   5.875
21807WAT      O65662   8.522   7.185   4.111
21807WAT     H165663   8.556   7.155   4.200
21807WAT     H265664   8.433   7.229   4.122
21808WAT      O65665   5.008   5.956   8.618
21808WAT     H165666   5.026   6.026   8.687
21808WAT     H265667   4.945   5.992   8.549
21809WAT      O65668   4.260   0.600   4.577
21809WAT     H165669   4.270   0.629   4.482
21809WAT     H265670   4.289   0.674   4.638
21810WAT      O65671   9.196   3.648   2.802
21810WAT     H165672   9.138   3.647   2.883
21810WAT     H265673   9.248   3.733   2.799
21811WAT      O65674   5.841   4.956   1.631
21811WAT     H165675   5.781   4.888   1.671
21811WAT     H265676   5.896   4.999   1.703
21812WAT      O65677   5.798   6.763   6.339
21812WAT     H165678   5.848   6.799   6.417
21812WAT     H265679   5.830   6.807   6.255
21813WAT      O65680   5.801   3.008   3.215
21813WAT     H165681   5.707   2.978   3.230
21813WAT     H265682   5.827   2.989   3.121
21814WAT      O65683   7.040   1.295   6.309
21814WAT     H165684   6.963   1.316   6.370
21814WAT     H265685   7.115   1.358   6.327
21815WAT      O65686   9.492   2.771   3.020
21815WAT     H165687   9.488   2.732   2.928
21815WAT     H265688   9.430   2.720   3.080
21816WAT      O65689   8.610   3.252   6.449
21816WAT     H165690   8.558   3.220   6.370
21816WAT     H265691   8.547   3.274   6.524
21817WAT      O65692   8.085   0.230   8.250
21817WAT     H165693   8.140   0.302   8.292
21817WAT     H265694   8.035   0.180   8.321
21818WAT      O65695   9.718   3.155   2.620
21818WAT     H165696   9.656   3.223   2.581
21818WAT     H265697   9.802   3.151   2.565
21819WAT      O65698   1.188   3.066   5.723
21819WAT     H165699   1.132   2.993   5.684
21819WAT     H265700   1.241   3.110   5.650
21820WAT      O65701   7.624   8.935   2.026
21820WAT     H165702   7.601   9.027   2.058
21820WAT     H265703   7.647   8.938   1.929
21821WAT      O65704   6.700   5.470   5.347
21821WAT     H165705   6.625   5.404   5.340
21821WAT     H265706   6.673   5.556   5.304
21822WAT      O65707   2.161   9.262   5.022
21822WAT     H165708   2.206   9.228   4.940
21822WAT     H265709   2.220   9.246   5.101
21823WAT      O65710   8.619   6.694   0.845
21823WAT     H165711   8.702   6.645   0.871
21823WAT     H265712   8.624   6.788   0.878
21824WAT      O65713   6.980   5.642   3.289
21824WAT     H165714   7.023   5.557   3.260
21824WAT     H265715   6.995   5.712   3.219
21825WAT      O65716   0.328   4.179   1.334
21825WAT     H165717   0.349   4.119   1.256
21825WAT     H265718   0.319   4.273   1.303
21826WAT      O65719   2.544   7.712   0.916
21826WAT     H165720   2.530   7.747   0.824
21826WAT     H265721   2.467   7.738   0.974
21827WAT      O65722   8.250   1.030   4.875
21827WAT     H165723   8.285   0.973   4.801
21827WAT     H265724   8.242   0.975   4.959
21828WAT      O65725   5.792   7.323   8.672
21828WAT     H165726   5.856   7.310   8.596
21828WAT     H265727   5.829   7.392   8.735
21829WAT      O65728   2.840   7.413   2.196
21829WAT     H165729   2.769   7.483   2.185
21829WAT     H265730   2.930   7.452   2.176
21830WAT      O65731   5.340   2.874   5.056
21830WAT     H165732   5.285   2.792   5.038
21830WAT     H265733   5.426   2.867   5.005
21831WAT      O65734   5.464   5.020   8.456
21831WAT     H165735   5.542   5.036   8.394
21831WAT     H265736   5.476   4.933   8.503
21832WAT      O65737   6.363   0.054   8.314
21832WAT     H165738   6.394  -0.032   8.274
21832WAT     H265739   6.422   0.078   8.391
21833WAT      O65740   9.260   7.978   2.728
21833WAT     H165741   9.251   8.018   2.819
21833WAT     H265742   9.177   7.927   2.705
21834WAT      O65743   0.227   0.039   1.690
21834WAT     H165744   0.325   0.043   1.707
21834WAT     H265745   0.210  -0.011   1.605
21835WAT      O65746   5.405   4.207   3.390
21835WAT     H165747   5.441   4.132   3.334
21835WAT     H265748   5.355   4.170   3.468
21836WAT      O65749   2.765   6.973   0.034
21836WAT     H165750   2.697   7.043   0.055
21836WAT     H265751   2.729   6.912  -0.036
21837WAT      O65752   5.620   1.177   2.892
21837WAT     H165753   5.586   1.254   2.839
21837WAT     H265754   5.679   1.120   2.834
21838WAT      O65755   0.462   5.385   1.845
21838WAT     H165756   0.397   5.431   1.785
21838WAT     H265757   0.513   5.453   1.898
21839WAT      O65758   7.243   8.074   9.243
21839WAT     H165759   7.234   8.101   9.147
21839WAT     H265760   7.152   8.058   9.281
21840WAT      O65761   3.126   6.675   2.237
21840WAT     H165762   3.140   6.771   2.260
21840WAT     H265763   3.179   6.652   2.155
21841WAT      O65764   6.277   5.598   1.780
21841WAT     H165765   6.375   5.615   1.786
21841WAT     H265766   6.236   5.611   1.871
21842WAT      O65767   8.682   7.257   6.032
21842WAT     H165768   8.750   7.279   5.962
21842WAT     H265769   8.710   7.174   6.080
21843WAT      O65770   2.851   9.186   4.166
21843WAT     H165771   2.758   9.213   4.192
21843WAT     H265772   2.858   9.086   4.167
21844WAT      O65773   2.819   0.869   9.616
21844WAT     H165774   2.725   0.853   9.648
21844WAT     H265775   2.867   0.782   9.608
21845WAT      O65776   2.303   2.185   5.174
21845WAT     H165777   2.328   2.089   5.165
21845WAT     H265778   2.366   2.230   5.238
21846WAT      O65779   0.450   1.790   7.889
21846WAT     H165780   0.495   1.736   7.961
21846WAT     H265781   0.392   1.860   7.931
21847WAT      O65782   3.947   8.411   6.269
21847WAT     H165783   3.994   8.459   6.342
21847WAT     H265784   3.899   8.332   6.306
21848WAT      O65785   1.885   3.245   7.714
21848WAT     H165786   1.820   3.171   7.693
21848WAT     H265787   1.921   3.282   7.629
21849WAT      O65788   3.888   7.490   7.950
21849WAT     H165789   3.935   7.564   7.997
21849WAT     H265790   3.793   7.485   7.982
21850WAT      O65791   0.186   8.402   9.105
21850WAT     H165792   0.201   8.490   9.059
21850WAT     H265793   0.195   8.328   9.039
21851WAT      O65794   5.050   8.062   9.051
21851WAT     H165795   5.135   8.091   9.093
21851WAT     H265796   5.070   8.016   8.964
21852WAT      O65797   5.641   7.150   5.197
21852WAT     H165798   5.579   7.113   5.128
21852WAT     H265799   5.711   7.205   5.152
21853WAT      O65800   7.272   7.183   3.261
21853WAT     H165801   7.309   7.263   3.307
21853WAT     H265802   7.209   7.135   3.322
21854WAT      O65803   3.455   5.306   7.226
21854WAT     H165804   3.468   5.207   7.215
21854WAT     H265805   3.478   5.352   7.140
21855WAT      O65806   8.831   3.861   3.319
21855WAT     H165807   8.736   3.831   3.326
21855WAT     H265808   8.848   3.937   3.382
21856WAT      O65809   8.154   0.884   9.220
21856WAT     H165810   8.111   0.921   9.302
21856WAT     H265811   8.100   0.808   9.185
21857WAT      O65812   6.943   1.349   5.785
21857WAT     H165813   6.927   1.358   5.687
21857WAT     H265814   6.932   1.254   5.813
21858WAT      O65815   2.416   6.334   8.038
21858WAT     H165816   2.381   6.344   8.131
21858WAT     H265817   2.495   6.394   8.026
21859WAT      O65818   4.150   0.169   5.815
21859WAT     H165819   4.093   0.243   5.850
21859WAT     H265820   4.099   0.116   5.747
21860WAT      O65821   8.607   2.560   6.903
21860WAT     H165822   8.632   2.466   6.928
21860WAT     H265823   8.580   2.610   6.986
21861WAT      O65824   3.537   2.057   2.073
21861WAT     H165825   3.592   2.105   2.004
21861WAT     H265826   3.498   2.123   2.137
21862WAT      O65827   6.387   9.224   5.110
21862WAT     H165828   6.414   9.320   5.102
21862WAT     H265829   6.429   9.184   5.191
21863WAT      O65830   4.383   9.791   1.708
21863WAT     H165831   4.378   9.724   1.634
21863WAT     H265832   4.326   9.761   1.785
21864WAT      O65833   2.726   1.367   5.828
21864WAT     H165834   2.727   1.270   5.804
21864WAT     H265835   2.660   1.382   5.902
21865WAT      O65836   2.896   5.604   8.798
21865WAT     H165837   2.979   5.661   8.795
21865WAT     H265838   2.898   5.547   8.880
21866WAT      O65839   6.680   9.235   5.707
21866WAT     H165840   6.605   9.279   5.657
21866WAT     H265841   6.731   9.304   5.758
21867WAT      O65842   1.704   2.670   2.664
21867WAT     H165843   1.671   2.704   2.576
21867WAT     H265844   1.685   2.572   2.672
21868WAT      O65845   4.340   1.587   3.131
21868WAT     H165846   4.310   1.520   3.063
21868WAT     H265847   4.290   1.571   3.216
21869WAT      O65848   6.310   4.763   8.482
21869WAT     H165849   6.256   4.838   8.445
21869WAT     H265850   6.345   4.789   8.573
21870WAT      O65851   1.256   9.099   8.116
21870WAT     H165852   1.216   9.046   8.190
21870WAT     H265853   1.187   9.118   8.047
21871WAT      O65854   6.249   9.122   6.537
21871WAT     H165855   6.228   9.207   6.489
21871WAT     H265856   6.185   9.110   6.613
21872WAT      O65857   5.863   5.737   0.578
21872WAT     H165858   5.947   5.791   0.566
21872WAT     H265859   5.788   5.783   0.531
21873WAT      O65860   0.610   3.472   9.373
21873WAT     H165861   0.534   3.408   9.379
21873WAT     H265862   0.598   3.546   9.440
21874WAT      O65863   2.664   4.136   9.653
21874WAT     H165864   2.727   4.078   9.602
21874WAT     H265865   2.616   4.080   9.722
21875WAT      O65866   6.612   3.626   6.772
21875WAT     H165867   6.658   3.578   6.848
21875WAT     H265868   6.566   3.559   6.714
21876WAT      O65869   4.157   1.393   5.615
21876WAT     H165870   4.198   1.474   5.573
21876WAT     H265871   4.165   1.315   5.552
21877WAT      O65872   6.858   2.641   9.583
21877WAT     H165873   6.891   2.551   9.613
21877WAT     H265874   6.871   2.649   9.485
21878WAT      O65875   6.351   3.348   8.528
21878WAT     H165876   6.315   3.359   8.436
21878WAT     H265877   6.449   3.329   8.523
21879WAT      O65878   3.231   1.162   4.070
21879WAT     H165879   3.137   1.156   4.102
21879WAT     H265880   3.232   1.195   3.976
21880WAT      O65881   5.438   0.252   1.715
21880WAT     H165882   5.391   0.322   1.660
21880WAT     H265883   5.478   0.294   1.796
21881WAT      O65884   1.735   3.398   5.214
21881WAT     H165885   1.768   3.305   5.201
21881WAT     H265886   1.812   3.456   5.242
21882WAT      O65887   7.428   6.528   5.406
21882WAT     H165888   7.414   6.529   5.307
21882WAT     H265889   7.457   6.436   5.434
21883WAT      O65890   8.517   7.144   1.713
21883WAT     H165891   8.447   7.213   1.731
21883WAT     H265892   8.478   7.053   1.721
21884WAT      O65893   6.229   6.634   1.080
21884WAT     H165894   6.314   6.654   1.128
21884WAT     H265895   6.248   6.582   0.997
21885WAT      O65896   2.699   3.280   5.260
21885WAT     H165897   2.651   3.206   5.307
21885WAT     H265898   2.675   3.279   5.163
21886WAT      O65899   2.283   2.744   3.267
21886WAT     H165900   2.284   2.842   3.248
21886WAT     H265901   2.377   2.711   3.279
21887WAT      O65902   5.981   4.964   4.867
21887WAT     H165903   6.069   4.978   4.822
21887WAT     H265904   5.961   5.043   4.925
21888WAT      O65905   5.657   7.973   9.218
21888WAT     H165906   5.725   8.012   9.280
21888WAT     H265907   5.679   7.878   9.199
21889WAT      O65908   8.543   4.868   9.189
21889WAT     H165909   8.449   4.855   9.159
21889WAT     H265910   8.551   4.838   9.284
21890WAT      O65911   1.915   8.270   9.872
21890WAT     H165912   1.983   8.199   9.890
21890WAT     H265913   1.826   8.239   9.906
21891WAT      O65914   5.690   0.779   4.511
21891WAT     H165915   5.724   0.806   4.601
21891WAT     H265916   5.695   0.857   4.448
21892WAT      O65917   6.550   5.017   4.016
21892WAT     H165918   6.636   4.997   3.970
21892WAT     H265919   6.541   4.960   4.097
21893WAT      O65920   4.268   0.963   9.498
21893WAT     H165921   4.307   1.040   9.549
21893WAT     H265922   4.333   0.887   9.498
21894WAT      O65923   5.365   0.411   1.000
21894WAT     H165924   5.336   0.504   0.976
21894WAT     H265925   5.464   0.408   1.011
21895WAT      O65926   5.269   7.625   8.075
21895WAT     H165927   5.205   7.563   8.120
21895WAT     H265928   5.363   7.595   8.092
21896WAT      O65929   3.564   0.616   3.091
21896WAT     H165930   3.623   0.553   3.041
21896WAT     H265931   3.481   0.632   3.038
21897WAT      O65932   0.334   0.150   5.749
21897WAT     H165933   0.378   0.073   5.795
21897WAT     H265934   0.259   0.116   5.693
21898WAT      O65935   0.304   0.315   0.691
21898WAT     H165936   0.295   0.291   0.594
21898WAT     H265937   0.238   0.262   0.744
21899WAT      O65938   1.007   1.076   0.285
21899WAT     H165939   1.013   0.982   0.321
21899WAT     H265940   0.929   1.122   0.327
21900WAT      O65941   7.546   2.568   5.943
21900WAT     H165942   7.632   2.604   5.979
21900WAT     H265943   7.528   2.479   5.985
21901WAT      O65944   9.006   6.961   7.081
21901WAT     H165945   8.971   7.042   7.032
21901WAT     H265946   9.012   6.983   7.179
21902WAT      O65947   2.350   6.811   6.349
21902WAT     H165948   2.286   6.867   6.296
21902WAT     H265949   2.333   6.824   6.447
21903WAT      O65950   5.356   0.624   2.998
21903WAT     H165951   5.378   0.538   3.045
21903WAT     H265952   5.313   0.604   2.910
21904WAT      O65953   6.205   5.646   2.823
21904WAT     H165954   6.130   5.649   2.888
21904WAT     H265955   6.288   5.616   2.868
21905WAT      O65956   0.386   7.248   6.555
21905WAT     H165957   0.469   7.211   6.597
21905WAT     H265958   0.311   7.184   6.568
21906WAT      O65959   4.329   8.116   6.068
21906WAT     H165960   4.380   8.060   6.133
21906WAT     H265961   4.232   8.112   6.089
21907WAT      O65962   4.552   0.834   6.816
21907WAT     H165963   4.596   0.829   6.727
21907WAT     H265964   4.460   0.794   6.810
21908WAT      O65965   4.980   7.623   7.342
21908WAT     H165966   5.063   7.586   7.386
21908WAT     H265967   4.936   7.550   7.289
21909WAT      O65968   8.426   0.891   5.600
21909WAT     H165969   8.418   0.977   5.550
21909WAT     H265970   8.521   0.877   5.629
21910WAT      O65971   8.404   0.324   8.211
21910WAT     H165972   8.359   0.273   8.284
21910WAT     H265973   8.488   0.277   8.183
21911WAT      O65974   1.906   5.815   2.961
21911WAT     H165975   1.981   5.879   2.944
21911WAT     H265976   1.940   5.736   3.012
21912WAT      O65977   8.555   7.446   5.220
21912WAT     H165978   8.590   7.529   5.177
21912WAT     H265979   8.557   7.457   5.320
21913WAT      O65980   3.800   6.606   6.268
21913WAT     H165981   3.775   6.649   6.182
21913WAT     H265982   3.843   6.674   6.328
21914WAT      O65983   0.574   9.233   3.119
21914WAT     H165984   0.538   9.153   3.165
21914WAT     H265985   0.536   9.316   3.161
21915WAT      O65986   1.322   1.184   9.603
21915WAT     H165987   1.355   1.113   9.665
21915WAT     H265988   1.381   1.189   9.523
21916WAT      O65989   6.220   1.845   7.787
21916WAT     H165990   6.279   1.857   7.708
21916WAT     H265991   6.223   1.928   7.843
21917WAT      O65992   0.497   8.769   7.546
21917WAT     H165993   0.547   8.849   7.514
21917WAT     H265994   0.401   8.793   7.563
21918WAT      O65995   6.515   7.293   9.297
21918WAT     H165996   6.548   7.270   9.205
21918WAT     H265997   6.586   7.341   9.347
21919WAT      O65998   5.311   4.372   0.553
21919WAT     H165999   5.406   4.342   0.551
21919WAT     H266000   5.275   4.378   0.460
21920WAT      O66001   3.343   4.969   5.482
21920WAT     H166002   3.259   4.990   5.531
21920WAT     H266003   3.326   4.972   5.383
21921WAT      O66004   9.001   9.598   3.999
21921WAT     H166005   9.026   9.670   4.064
21921WAT     H266006   8.902   9.584   4.000
21922WAT      O66007   3.850   0.545   0.303
21922WAT     H166008   3.869   0.508   0.394
21922WAT     H266009   3.753   0.570   0.297
21923WAT      O66010   7.329   1.460   1.512
21923WAT     H166011   7.413   1.420   1.476
21923WAT     H266012   7.277   1.503   1.438
21924WAT      O66013   2.172   1.470   1.262
21924WAT     H166014   2.208   1.399   1.323
21924WAT     H266015   2.102   1.430   1.202
21925WAT      O66016   1.495   4.017   4.874
21925WAT     H166017   1.413   4.011   4.932
21925WAT     H266018   1.560   3.947   4.901
21926WAT      O66019   9.014   8.249   5.998
21926WAT     H166020   9.067   8.226   5.916
21926WAT     H266021   9.052   8.332   6.039
21927WAT      O66022   8.114   2.156   9.562
21927WAT     H166023   8.109   2.234   9.500
21927WAT     H266024   8.022   2.132   9.593
21928WAT      O66025   2.961   6.489   1.503
21928WAT     H166026   2.869   6.455   1.520
21928WAT     H266027   3.006   6.508   1.590
21929WAT      O66028   6.121   3.259   8.628
21929WAT     H166029   6.050   3.265   8.557
21929WAT     H266030   6.211   3.253   8.584
21930WAT      O66031   1.279   7.065   9.367
21930WAT     H166032   1.204   7.129   9.380
21930WAT     H266033   1.242   6.974   9.348
21931WAT      O66034   1.558   6.810   9.053
21931WAT     H166035   1.473   6.779   9.011
21931WAT     H266036   1.556   6.792   9.152
21932WAT      O66037   3.667   6.507   6.558
21932WAT     H166038   3.708   6.553   6.479
21932WAT     H266039   3.703   6.414   6.565
21933WAT      O66040   3.185   4.368   9.570
21933WAT     H166041   3.105   4.407   9.524
21933WAT     H266042   3.155   4.307   9.643
21934WAT      O66043   9.403   5.401   1.256
21934WAT     H166044   9.372   5.324   1.312
21934WAT     H266045   9.498   5.386   1.228
21935WAT      O66046   8.814   1.376   2.033
21935WAT     H166047   8.736   1.438   2.041
21935WAT     H266048   8.892   1.414   2.084
21936WAT      O66049   1.369   9.070   2.711
21936WAT     H166050   1.432   9.120   2.771
21936WAT     H266051   1.394   8.973   2.710
21937WAT      O66052   0.074   1.862   9.306
21937WAT     H166053   0.012   1.791   9.340
21937WAT     H266054   0.155   1.819   9.266
21938WAT      O66055   8.814   3.731   1.865
21938WAT     H166056   8.781   3.639   1.845
21938WAT     H266057   8.759   3.798   1.816
21939WAT      O66058   6.045   5.395   2.419
21939WAT     H166059   6.009   5.321   2.477
21939WAT     H266060   6.019   5.483   2.458
21940WAT      O66061   4.680   8.002   4.958
21940WAT     H166062   4.767   8.051   4.957
21940WAT     H266063   4.694   7.909   4.993
21941WAT      O66064   6.456   4.770   8.721
21941WAT     H166065   6.444   4.829   8.801
21941WAT     H266066   6.420   4.679   8.742
21942WAT      O66067   4.064   0.091   2.818
21942WAT     H166068   3.967   0.117   2.819
21942WAT     H266069   4.112   0.139   2.891
21943WAT      O66070   3.411   3.620   5.605
21943WAT     H166071   3.356   3.623   5.688
21943WAT     H266072   3.487   3.557   5.617
21944WAT      O66073   7.623   0.242   7.967
21944WAT     H166074   7.529   0.234   7.933
21944WAT     H266075   7.682   0.181   7.915
21945WAT      O66076   0.689   5.635   1.240
21945WAT     H166077   0.595   5.641   1.276
21945WAT     H266078   0.743   5.575   1.299
21946WAT      O66079   3.331   7.320   0.993
21946WAT     H166080   3.400   7.268   0.942
21946WAT     H266081   3.296   7.393   0.935
21947WAT      O66082   4.404   6.088   9.001
21947WAT     H166083   4.430   6.084   9.098
21947WAT     H266084   4.462   6.026   8.949
21948WAT      O66085   0.357   6.310   2.881
21948WAT     H166086   0.358   6.230   2.821
21948WAT     H266087   0.284   6.300   2.948
21949WAT      O66088   4.658   7.744   7.139
21949WAT     H166089   4.583   7.681   7.120
21949WAT     H266090   4.630   7.810   7.209
21950WAT      O66091   5.572   4.347   0.614
21950WAT     H166092   5.601   4.412   0.544
21950WAT     H266093   5.593   4.384   0.704
21951WAT      O66094   5.114   2.051   9.648
21951WAT     H166095   5.190   2.105   9.684
21951WAT     H266096   5.142   2.008   9.562
21952WAT      O66097   8.073   7.850   4.716
21952WAT     H166098   8.141   7.921   4.733
21952WAT     H266099   8.025   7.870   4.630
21953WAT      O66100   5.736   2.256   3.801
21953WAT     H166101   5.714   2.329   3.866
21953WAT     H266102   5.665   2.186   3.805
21954WAT      O66103   2.166   0.906   8.045
21954WAT     H166104   2.242   0.868   7.992
21954WAT     H266105   2.149   0.848   8.125
21955WAT      O66106   9.170   2.750   4.148
21955WAT     H166107   9.191   2.655   4.124
21955WAT     H266108   9.246   2.787   4.202
21956WAT      O66109   4.995   6.309   6.307
21956WAT     H166110   4.985   6.402   6.340
21956WAT     H266111   5.084   6.298   6.262
21957WAT      O66112   4.859   9.442   5.117
21957WAT     H166113   4.951   9.413   5.091
21957WAT     H266114   4.791   9.382   5.073
21958WAT      O66115   6.453   5.350   9.563
21958WAT     H166116   6.379   5.288   9.535
21958WAT     H266117   6.414   5.436   9.595
21959WAT      O66118   8.486   0.261   3.855
21959WAT     H166119   8.443   0.329   3.796
21959WAT     H266120   8.436   0.174   3.847
21960WAT      O66121   7.548   7.804   9.373
21960WAT     H166122   7.530   7.819   9.470
21960WAT     H266123   7.611   7.728   9.362
21961WAT      O66124   5.684   9.549   3.738
21961WAT     H166125   5.742   9.484   3.786
21961WAT     H266126   5.615   9.585   3.801
21962WAT      O66127   2.359   4.580   9.322
21962WAT     H166128   2.411   4.553   9.403
21962WAT     H266129   2.421   4.618   9.254
21963WAT      O66130   2.179   6.446   5.811
21963WAT     H166131   2.221   6.516   5.868
21963WAT     H266132   2.110   6.397   5.863
21964WAT      O66133   3.509   6.650   4.166
21964WAT     H166134   3.432   6.676   4.225
21964WAT     H266135   3.514   6.714   4.089
21965WAT      O66136   7.456   9.829   1.647
21965WAT     H166137   7.366   9.871   1.658
21965WAT     H266138   7.476   9.819   1.550
21966WAT      O66139   4.366   0.585   5.646
21966WAT     H166140   4.390   0.611   5.553
21966WAT     H266141   4.337   0.489   5.648
21967WAT      O66142   9.205   9.792   6.009
21967WAT     H166143   9.292   9.831   6.040
21967WAT     H266144   9.132   9.860   6.021
21968WAT      O66145   8.601   0.432   1.025
21968WAT     H166146   8.532   0.485   1.074
21968WAT     H266147   8.627   0.481   0.942
21969WAT      O66148   5.965   3.851   2.720
21969WAT     H166149   6.012   3.771   2.757
21969WAT     H266150   5.941   3.913   2.795
21970WAT      O66151   5.948   3.472   6.488
21970WAT     H166152   5.979   3.556   6.533
21970WAT     H266153   6.019   3.439   6.426
21971WAT      O66154   5.005   4.794   2.261
21971WAT     H166155   4.923   4.782   2.205
21971WAT     H266156   5.033   4.890   2.259
21972WAT      O66157   8.144   9.285   0.814
21972WAT     H166158   8.154   9.188   0.834
21972WAT     H266159   8.233   9.331   0.827
21973WAT      O66160   6.695   4.538   4.804
21973WAT     H166161   6.698   4.548   4.704
21973WAT     H266162   6.716   4.626   4.847
21974WAT      O66163   1.923   7.100   0.350
21974WAT     H166164   2.010   7.110   0.301
21974WAT     H266165   1.854   7.062   0.289
21975WAT      O66166   1.123   1.381   3.002
21975WAT     H166167   1.043   1.406   3.056
21975WAT     H266168   1.184   1.459   2.994
21976WAT      O66169   5.719   1.518   4.333
21976WAT     H166170   5.784   1.460   4.285
21976WAT     H266171   5.629   1.474   4.333
21977WAT      O66172   1.566   8.160   6.165
21977WAT     H166173   1.532   8.132   6.075
21977WAT     H266174   1.574   8.259   6.169
21978WAT      O66175   0.967   8.311   8.374
21978WAT     H166176   0.985   8.277   8.282
21978WAT     H266177   0.998   8.244   8.442
21979WAT      O66178   3.584   0.595   6.500
21979WAT     H166179   3.563   0.538   6.580
21979WAT     H266180   3.629   0.539   6.431
21980WAT      O66181   5.201   0.310   2.741
21980WAT     H166182   5.295   0.340   2.755
21980WAT     H266183   5.177   0.240   2.809
21981WAT      O66184   8.976   1.589   4.220
21981WAT     H166185   8.981   1.584   4.121
21981WAT     H266186   8.897   1.535   4.252
21982WAT      O66187   2.241   1.388   5.301
21982WAT     H166188   2.310   1.350   5.362
21982WAT     H266189   2.167   1.322   5.287
21983WAT      O66190   1.592   3.597   8.526
21983WAT     H166191   1.555   3.507   8.551
21983WAT     H266192   1.681   3.609   8.571
21984WAT      O66193   1.788   9.248   7.631
21984WAT     H166194   1.877   9.247   7.677
21984WAT     H266195   1.720   9.292   7.690
21985WAT      O66196   9.631   4.424   6.336
21985WAT     H166197   9.723   4.464   6.340
21985WAT     H266198   9.564   4.496   6.320
21986WAT      O66199   6.297   9.384   1.793
21986WAT     H166200   6.320   9.481   1.796
21986WAT     H266201   6.349   9.339   1.720
21987WAT      O66202   5.075   4.045   7.864
21987WAT     H166203   5.079   3.949   7.892
21987WAT     H266204   5.125   4.057   7.779
21988WAT      O66205   6.119   8.656   3.465
21988WAT     H166206   6.146   8.561   3.448
21988WAT     H266207   6.067   8.690   3.387
21989WAT      O66208   9.022   8.893   0.225
21989WAT     H166209   9.005   8.934   0.135
21989WAT     H266210   8.946   8.914   0.286
21990WAT      O66211   7.942   6.168   5.462
21990WAT     H166212   7.886   6.120   5.530
21990WAT     H266213   7.893   6.249   5.429
21991WAT      O66214   3.281   2.143   7.751
21991WAT     H166215   3.278   2.223   7.812
21991WAT     H266216   3.229   2.069   7.792
21992WAT      O66217   5.236   6.891   1.754
21992WAT     H166218   5.330   6.925   1.757
21992WAT     H266219   5.227   6.822   1.682
21993WAT      O66220   6.713   4.656   9.868
21993WAT     H166221   6.780   4.671   9.940
21993WAT     H266222   6.722   4.728   9.799
21994WAT      O66223   0.869   0.327   0.655
21994WAT     H166224   0.791   0.295   0.709
21994WAT     H266225   0.882   0.267   0.576
21995WAT      O66226   9.349   1.270   2.985
21995WAT     H166227   9.432   1.326   2.990
21995WAT     H266228   9.374   1.176   2.963
21996WAT      O66229   9.336   2.976   8.834
21996WAT     H166230   9.331   3.074   8.813
21996WAT     H266231   9.314   2.961   8.930
21997WAT      O66232   7.619   1.047   2.758
21997WAT     H166233   7.519   1.057   2.755
21997WAT     H266234   7.643   0.950   2.745
21998WAT      O66235   9.766   5.403   7.977
21998WAT     H166236   9.800   5.488   7.937
21998WAT     H266237   9.666   5.402   7.974
21999WAT      O66238   8.818   8.429   3.680
21999WAT     H166239   8.878   8.509   3.671
21999WAT     H266240   8.778   8.427   3.772
22000WAT      O66241   4.478   1.205   3.706
22000WAT     H166242   4.577   1.211   3.719
22000WAT     H266243   4.434   1.283   3.752
22001WAT      O66244   2.863   8.329   7.575
22001WAT     H166245   2.874   8.422   7.611
22001WAT     H266246   2.858   8.331   7.476
22002WAT      O66247   3.767   4.063   0.682
22002WAT     H166248   3.773   4.124   0.761
22002WAT     H266249   3.838   3.992   0.689
22003WAT      O66250   8.356   9.140   0.286
22003WAT     H166251   8.415   9.084   0.345
22003WAT     H266252   8.369   9.237   0.309
22004WAT      O66253   4.501   5.873   1.308
22004WAT     H166254   4.432   5.813   1.350
22004WAT     H266255   4.587   5.864   1.357
22005WAT      O66256   7.074   9.278   4.744
22005WAT     H166257   7.147   9.327   4.696
22005WAT     H266258   6.995   9.268   4.683
22006WAT      O66259   9.125   6.174   7.059
22006WAT     H166260   9.189   6.251   7.048
22006WAT     H266261   9.135   6.111   6.982
22007WAT      O66262   3.736   0.776   6.175
22007WAT     H166263   3.772   0.850   6.231
22007WAT     H266264   3.812   0.731   6.127
22008WAT      O66265   6.383   7.348   3.883
22008WAT     H166266   6.317   7.410   3.841
22008WAT     H266267   6.468   7.398   3.902
22009WAT      O66268   7.534   6.772   0.955
22009WAT     H166269   7.573   6.681   0.970
22009WAT     H266270   7.552   6.800   0.860
22010WAT      O66271   2.361   5.965   6.575
22010WAT     H166272   2.441   6.022   6.590
22010WAT     H266273   2.325   5.979   6.483
22011WAT      O66274   0.851   4.623   1.809
22011WAT     H166275   0.779   4.565   1.849
22011WAT     H266276   0.825   4.649   1.717
22012WAT      O66277   4.146   3.662   5.433
22012WAT     H166278   4.101   3.578   5.462
22012WAT     H266279   4.157   3.661   5.334
22013WAT      O66280   7.110   8.293   4.953
22013WAT     H166281   7.016   8.288   4.918
22013WAT     H266282   7.110   8.338   5.042
22014WAT      O66283   3.942   6.282   7.965
22014WAT     H166284   3.976   6.337   7.888
22014WAT     H266285   3.897   6.200   7.930
22015WAT      O66286   2.423   9.646   1.160
22015WAT     H166287   2.481   9.588   1.218
22015WAT     H266288   2.456   9.740   1.164
22016WAT      O66289   6.588   6.179   4.174
22016WAT     H166290   6.584   6.106   4.107
22016WAT     H266291   6.609   6.141   4.264
22017WAT      O66292   3.828   1.907   2.799
22017WAT     H166293   3.868   1.835   2.856
22017WAT     H266294   3.890   1.927   2.723
22018WAT      O66295   1.998   0.182   4.133
22018WAT     H166296   1.967   0.108   4.192
22018WAT     H266297   1.943   0.184   4.049
22019WAT      O66298   4.673   7.291   5.600
22019WAT     H166299   4.579   7.297   5.566
22019WAT     H266300   4.730   7.356   5.550
22020WAT      O66301   9.657   2.386   5.163
22020WAT     H166302   9.716   2.344   5.094
22020WAT     H266303   9.709   2.401   5.247
22021WAT      O66304   8.799   7.564   4.141
22021WAT     H166305   8.855   7.585   4.221
22021WAT     H266306   8.788   7.465   4.133
22022WAT      O66307   7.528   8.061   8.912
22022WAT     H166308   7.570   7.993   8.852
22022WAT     H266309   7.533   8.029   9.006
22023WAT      O66310   2.576   3.175   2.138
22023WAT     H166311   2.528   3.106   2.192
22023WAT     H266312   2.667   3.191   2.177
22024WAT      O66313   0.654   1.598   1.105
22024WAT     H166314   0.656   1.550   1.017
22024WAT     H266315   0.560   1.625   1.125
22025WAT      O66316   1.276   1.949   5.154
22025WAT     H166317   1.188   1.951   5.202
22025WAT     H266318   1.276   2.018   5.082
22026WAT      O66319   3.215   8.338   4.824
22026WAT     H166320   3.118   8.345   4.847
22026WAT     H266321   3.258   8.427   4.835
22027WAT      O66322   2.892   4.344   3.068
22027WAT     H166323   2.829   4.306   3.136
22027WAT     H266324   2.981   4.299   3.075
22028WAT      O66325   7.440   3.186   6.690
22028WAT     H166326   7.401   3.186   6.782
22028WAT     H266327   7.522   3.242   6.688
22029WAT      O66328   8.942   9.176   2.030
22029WAT     H166329   9.013   9.237   1.992
22029WAT     H266330   8.985   9.092   2.062
22030WAT      O66331   6.657   6.976   6.396
22030WAT     H166332   6.713   6.967   6.315
22030WAT     H266333   6.606   7.062   6.393
22031WAT      O66334   5.909   6.365   0.852
22031WAT     H166335   5.901   6.351   0.951
22031WAT     H266336   5.896   6.277   0.805
22032WAT      O66337   1.505   7.083   8.985
22032WAT     H166338   1.479   7.093   8.889
22032WAT     H266339   1.514   6.986   9.008
22033WAT      O66340   5.893   0.257   8.245
22033WAT     H166341   5.969   0.213   8.292
22033WAT     H266342   5.856   0.331   8.301
22034WAT      O66343   1.733   4.375   6.188
22034WAT     H166344   1.705   4.404   6.279
22034WAT     H266345   1.730   4.453   6.125
22035WAT      O66346   3.504   4.830   8.593
22035WAT     H166347   3.485   4.758   8.660
22035WAT     H266348   3.457   4.809   8.508
22036WAT      O66349   1.378   3.628   5.316
22036WAT     H166350   1.329   3.682   5.385
22036WAT     H266351   1.376   3.677   5.228
22037WAT      O66352   5.815   6.976   3.293
22037WAT     H166353   5.769   6.910   3.234
22037WAT     H266354   5.827   7.062   3.243
22038WAT      O66355   2.833   5.089   3.357
22038WAT     H166356   2.867   5.044   3.441
22038WAT     H266357   2.770   5.163   3.382
22039WAT      O66358   7.530   3.387   5.950
22039WAT     H166359   7.601   3.380   5.880
22039WAT     H266360   7.504   3.483   5.961
22040WAT      O66361   2.263   9.388   1.424
22040WAT     H166362   2.351   9.359   1.461
22040WAT     H266363   2.190   9.365   1.488
22041WAT      O66364   6.795   8.825   0.082
22041WAT     H166365   6.893   8.844   0.088
22041WAT     H266366   6.771   8.801  -0.012
22042WAT      O66367   5.701   8.575   0.305
22042WAT     H166368   5.670   8.521   0.227
22042WAT     H266369   5.761   8.520   0.363
22043WAT      O66370   5.077   3.816   3.805
22043WAT     H166371   5.114   3.784   3.892
22043WAT     H266372   5.109   3.756   3.732
22044WAT      O66373   7.751   6.561   2.162
22044WAT     H166374   7.684   6.518   2.223
22044WAT     H266375   7.781   6.648   2.201
22045WAT      O66376   5.230   6.360   6.191
22045WAT     H166377   5.254   6.326   6.100
22045WAT     H266378   5.314   6.375   6.244
22046WAT      O66379   6.111   7.898   8.331
22046WAT     H166380   6.084   7.802   8.339
22046WAT     H266381   6.210   7.905   8.329
22047WAT      O66382   1.677   1.457   1.116
22047WAT     H166383   1.627   1.377   1.081
22047WAT     H266384   1.693   1.521   1.041
22048WAT      O66385   6.146   8.550   1.654
22048WAT     H166386   6.076   8.480   1.668
22048WAT     H266387   6.116   8.635   1.698
22049WAT      O66388   4.115   4.569   8.157
22049WAT     H166389   4.101   4.638   8.229
22049WAT     H266390   4.199   4.589   8.107
22050WAT      O66391   5.140   8.014   8.181
22050WAT     H166392   5.096   8.028   8.093
22050WAT     H266393   5.210   7.943   8.173
22051WAT      O66394   3.975   7.725   7.693
22051WAT     H166395   4.022   7.637   7.704
22051WAT     H266396   3.919   7.743   7.774
22052WAT      O66397   1.385   5.375   5.303
22052WAT     H166398   1.403   5.383   5.205
22052WAT     H266399   1.465   5.336   5.349
22053WAT      O66400   0.358   5.057   0.666
22053WAT     H166401   0.400   4.968   0.686
22053WAT     H266402   0.259   5.050   0.679
22054WAT      O66403   8.033   6.139   0.781
22054WAT     H166404   7.962   6.204   0.756
22054WAT     H266405   8.057   6.153   0.877
22055WAT      O66406   1.844   8.632   1.913
22055WAT     H166407   1.934   8.673   1.893
22055WAT     H266408   1.829   8.631   2.011
22056WAT      O66409   8.505   2.725   7.888
22056WAT     H166410   8.524   2.647   7.829
22056WAT     H266411   8.458   2.797   7.836
22057WAT      O66412   2.819   5.761   6.483
22057WAT     H166413   2.888   5.704   6.527
22057WAT     H266414   2.822   5.853   6.521
22058WAT      O66415   3.733   4.512   8.374
22058WAT     H166416   3.772   4.594   8.331
22058WAT     H266417   3.645   4.534   8.416
22059WAT      O66418   8.338   4.172   8.283
22059WAT     H166419   8.419   4.136   8.238
22059WAT     H266420   8.358   4.261   8.323
22060WAT      O66421   7.837   7.905   4.495
22060WAT     H166422   7.751   7.884   4.449
22060WAT     H266423   7.826   7.986   4.553
22061WAT      O66424   3.129   3.721   0.074
22061WAT     H166425   3.115   3.799   0.134
22061WAT     H266426   3.047   3.665   0.071
22062WAT      O66427   4.164   7.291   0.007
22062WAT     H166428   4.094   7.272   0.075
22062WAT     H266429   4.153   7.228  -0.071
22063WAT      O66430   7.426   6.181   8.887
22063WAT     H166431   7.455   6.200   8.981
22063WAT     H266432   7.500   6.136   8.838
22064WAT      O66433   6.872   5.321   8.450
22064WAT     H166434   6.876   5.221   8.441
22064WAT     H266435   6.963   5.355   8.474
22065WAT      O66436   2.206   4.629   5.678
22065WAT     H166437   2.185   4.717   5.722
22065WAT     H266438   2.252   4.647   5.590
22066WAT      O66439   5.543   0.523   8.011
22066WAT     H166440   5.513   0.428   7.999
22066WAT     H266441   5.463   0.581   8.029
22067WAT      O66442   4.923   7.316   1.696
22067WAT     H166443   4.963   7.234   1.739
22067WAT     H266444   4.838   7.291   1.650
22068WAT      O66445   6.179   3.054   2.997
22068WAT     H166446   6.261   3.014   2.957
22068WAT     H266447   6.204   3.133   3.053
22069WAT      O66448   9.873   8.995   1.007
22069WAT     H166449   9.955   8.961   0.961
22069WAT     H266450   9.878   8.972   1.104
22070WAT      O66451   3.366   7.737   5.884
22070WAT     H166452   3.463   7.750   5.906
22070WAT     H266453   3.312   7.740   5.968
22071WAT      O66454   6.766   5.166   8.690
22071WAT     H166455   6.736   5.080   8.649
22071WAT     H266456   6.795   5.229   8.617
22072WAT      O66457   4.231   7.659   8.070
22072WAT     H166458   4.248   7.587   8.138
22072WAT     H266459   4.279   7.637   7.986
22073WAT      O66460   0.168   4.851   5.121
22073WAT     H166461   0.152   4.872   5.024
22073WAT     H266462   0.104   4.903   5.177
22074WAT      O66463   4.882   3.765   3.437
22074WAT     H166464   4.900   3.853   3.479
22074WAT     H266465   4.784   3.747   3.440
22075WAT      O66466   8.304   2.362   7.568
22075WAT     H166467   8.341   2.338   7.658
22075WAT     H266468   8.206   2.381   7.576
22076WAT      O66469   4.677   3.739   8.376
22076WAT     H166470   4.595   3.703   8.420
22076WAT     H266471   4.703   3.825   8.421
22077WAT      O66472   6.038   0.075   1.395
22077WAT     H166473   5.989   0.157   1.366
22077WAT     H266474   6.098   0.044   1.321
22078WAT      O66475   5.967   7.180   2.127
22078WAT     H166476   5.948   7.169   2.029
22078WAT     H266477   5.898   7.131   2.180
22079WAT      O66478   0.544   6.694   0.369
22079WAT     H166479   0.446   6.676   0.360
22079WAT     H266480   0.596   6.613   0.342
22080WAT      O66481   4.858   9.444   6.489
22080WAT     H166482   4.946   9.484   6.466
22080WAT     H266483   4.800   9.440   6.408
22081WAT      O66484   3.886   1.894   9.853
22081WAT     H166485   3.794   1.858   9.865
22081WAT     H266486   3.950   1.817   9.841
22082WAT      O66487   9.574   1.530   3.874
22082WAT     H166488   9.546   1.441   3.837
22082WAT     H266489   9.507   1.600   3.849
22083WAT      O66490   8.631   2.019   9.299
22083WAT     H166491   8.720   1.981   9.274
22083WAT     H266492   8.567   2.007   9.224
22084WAT      O66493   0.443   8.562   5.953
22084WAT     H166494   0.410   8.602   6.039
22084WAT     H266495   0.502   8.484   5.973
22085WAT      O66496   0.609   4.761   0.321
22085WAT     H166497   0.586   4.833   0.256
22085WAT     H266498   0.704   4.733   0.309
22086WAT      O66499   3.689   2.199   7.725
22086WAT     H166500   3.616   2.197   7.656
22086WAT     H266501   3.653   2.237   7.810
22087WAT      O66502   1.263   6.426   3.972
22087WAT     H166503   1.242   6.524   3.968
22087WAT     H266504   1.314   6.400   3.890
22088WAT      O66505   2.468   7.083   2.064
22088WAT     H166506   2.546   7.134   2.099
22088WAT     H266507   2.500   7.004   2.012
22089WAT      O66508   5.661   4.492   7.513
22089WAT     H166509   5.594   4.431   7.554
22089WAT     H266510   5.647   4.496   7.414
22090WAT      O66511   5.241   2.155   8.616
22090WAT     H166512   5.158   2.110   8.583
22090WAT     H266513   5.268   2.228   8.553
22091WAT      O66514   3.495   4.560   4.062
22091WAT     H166515   3.463   4.585   3.970
22091WAT     H266516   3.451   4.475   4.091
22092WAT      O66517   1.475   6.642   2.359
22092WAT     H166518   1.501   6.564   2.301
22092WAT     H266519   1.509   6.726   2.317
22093WAT      O66520   8.311   2.572   7.337
22093WAT     H166521   8.355   2.657   7.362
22093WAT     H266522   8.320   2.506   7.411
22094WAT      O66523   7.872   5.796   6.024
22094WAT     H166524   7.966   5.770   6.046
22094WAT     H266525   7.810   5.750   6.087
22095WAT      O66526   9.715   8.189   2.258
22095WAT     H166527   9.703   8.225   2.351
22095WAT     H266528   9.677   8.097   2.253
22096WAT      O66529   1.509   3.322   6.134
22096WAT     H166530   1.454   3.240   6.118
22096WAT     H266531   1.471   3.373   6.210
22097WAT      O66532   4.400   6.642   0.735
22097WAT     H166533   4.382   6.727   0.685
22097WAT     H266534   4.498   6.623   0.735
22098WAT      O66535   2.974   4.687   5.629
22098WAT     H166536   3.067   4.697   5.663
22098WAT     H266537   2.953   4.763   5.567
22099WAT      O66538   5.564   1.645   5.897
22099WAT     H166539   5.649   1.604   5.865
22099WAT     H266540   5.518   1.691   5.822
22100WAT      O66541   6.805   5.713   1.379
22100WAT     H166542   6.713   5.749   1.394
22100WAT     H266543   6.868   5.788   1.363
22101WAT      O66544   2.434   3.032   6.362
22101WAT     H166545   2.484   3.077   6.288
22101WAT     H266546   2.340   3.065   6.364
22102WAT      O66547   5.988   6.805   6.968
22102WAT     H166548   5.919   6.859   6.919
22102WAT     H266549   5.994   6.714   6.927
22103WAT      O66550   9.407   3.511   7.616
22103WAT     H166551   9.398   3.416   7.584
22103WAT     H266552   9.317   3.547   7.642
22104WAT      O66553   4.641   9.832   5.992
22104WAT     H166554   4.695   9.857   5.912
22104WAT     H266555   4.544   9.853   5.974
22105WAT      O66556   1.705   3.827   4.907
22105WAT     H166557   1.741   3.749   4.959
22105WAT     H266558   1.772   3.854   4.837
22106WAT      O66559   4.080   3.652   0.009
22106WAT     H166560   4.114   3.653   0.103
22106WAT     H266561   4.063   3.746  -0.021
22107WAT      O66562   0.202   2.398   5.059
22107WAT     H166563   0.124   2.457   5.039
22107WAT     H266564   0.285   2.453   5.069
22108WAT      O66565   4.402   5.791   6.618
22108WAT     H166566   4.498   5.782   6.591
22108WAT     H266567   4.369   5.704   6.654
22109WAT      O66568   0.675   8.123   1.533
22109WAT     H166569   0.678   8.214   1.492
22109WAT     H266570   0.755   8.070   1.502
22110WAT      O66571   4.401   4.612   2.366
22110WAT     H166572   4.472   4.558   2.321
22110WAT     H266573   4.355   4.555   2.434
22111WAT      O66574   4.272   0.234   3.231
22111WAT     H166575   4.257   0.135   3.227
22111WAT     H266576   4.359   0.252   3.278
22112WAT      O66577   4.123   4.396   3.330
22112WAT     H166578   4.203   4.402   3.390
22112WAT     H266579   4.110   4.301   3.300
22113WAT      O66580   8.453   7.030   9.409
22113WAT     H166581   8.472   6.978   9.326
22113WAT     H266582   8.377   7.093   9.392
22114WAT      O66583   7.842   1.733   4.654
22114WAT     H166584   7.782   1.718   4.733
22114WAT     H266585   7.894   1.817   4.667
22115WAT      O66586   1.286   8.026   6.630
22115WAT     H166587   1.385   8.036   6.620
22115WAT     H266588   1.259   8.057   6.721
22116WAT      O66589   2.948   0.851   0.949
22116WAT     H166590   2.988   0.813   1.032
22116WAT     H266591   2.987   0.805   0.869
22117WAT      O66592   2.001   3.564   9.367
22117WAT     H166593   1.960   3.653   9.348
22117WAT     H266594   2.088   3.577   9.415
22118WAT      O66595   6.576   0.410   4.663
22118WAT     H166596   6.560   0.479   4.734
22118WAT     H266597   6.538   0.322   4.692
22119WAT      O66598   7.119   2.686   1.200
22119WAT     H166599   7.092   2.708   1.294
22119WAT     H266600   7.127   2.586   1.190
22120WAT      O66601   7.784   1.462   7.429
22120WAT     H166602   7.829   1.469   7.518
22120WAT     H266603   7.709   1.528   7.424
22121WAT      O66604   2.449   8.602   0.900
22121WAT     H166605   2.398   8.546   0.966
22121WAT     H266606   2.394   8.615   0.817
22122WAT      O66607   7.291   9.302   3.543
22122WAT     H166608   7.352   9.375   3.514
22122WAT     H266609   7.260   9.250   3.463
22123WAT      O66610   1.470   7.557   7.701
22123WAT     H166611   1.393   7.615   7.730
22123WAT     H266612   1.474   7.555   7.601
22124WAT      O66613   9.092   3.711   6.249
22124WAT     H166614   9.029   3.676   6.180
22124WAT     H266615   9.118   3.805   6.226
22125WAT      O66616   7.812   6.560   3.216
22125WAT     H166617   7.866   6.608   3.146
22125WAT     H266618   7.868   6.489   3.258
22126WAT      O66619   7.316   7.141   6.696
22126WAT     H166620   7.402   7.174   6.736
22126WAT     H266621   7.332   7.052   6.652
22127WAT      O66622   0.907   7.796   9.689
22127WAT     H166623   0.972   7.866   9.719
22127WAT     H266624   0.818   7.814   9.731
22128WAT      O66625   3.791   9.155   5.813
22128WAT     H166626   3.789   9.056   5.830
22128WAT     H266627   3.779   9.173   5.716
22129WAT      O66628   0.849   1.698   5.488
22129WAT     H166629   0.785   1.766   5.524
22129WAT     H266630   0.809   1.655   5.406
22130WAT      O66631   6.701   4.324   3.950
22130WAT     H166632   6.780   4.301   4.006
22130WAT     H266633   6.670   4.243   3.901
22131WAT      O66634   5.003   2.401   8.662
22131WAT     H166635   5.095   2.436   8.680
22131WAT     H266636   4.972   2.433   8.572
22132WAT      O66637   4.953   1.127   9.330
22132WAT     H166638   4.993   1.184   9.401
22132WAT     H266639   4.933   1.036   9.367
22133WAT      O66640   5.450   2.666   5.755
22133WAT     H166641   5.395   2.726   5.698
22133WAT     H266642   5.506   2.606   5.697
22134WAT      O66643   1.782   0.724   4.699
22134WAT     H166644   1.741   0.650   4.751
22134WAT     H266645   1.873   0.744   4.735
22135WAT      O66646   7.191   9.529   5.554
22135WAT     H166647   7.104   9.566   5.522
22135WAT     H266648   7.242   9.601   5.602
22136WAT      O66649   9.219   6.986   1.469
22136WAT     H166650   9.193   7.027   1.382
22136WAT     H266651   9.154   7.015   1.540
22137WAT      O66652   7.343   2.656   3.564
22137WAT     H166653   7.244   2.638   3.563
22137WAT     H266654   7.358   2.754   3.572
22138WAT      O66655   3.350   4.645   2.494
22138WAT     H166656   3.436   4.696   2.492
22138WAT     H266657   3.273   4.709   2.498
22139WAT      O66658   6.173   8.324   6.911
22139WAT     H166659   6.139   8.367   6.827
22139WAT     H266660   6.137   8.232   6.918
22140WAT      O66661   3.061   8.744   8.499
22140WAT     H166662   3.013   8.831   8.503
22140WAT     H266663   3.099   8.730   8.408
22141WAT      O66664   8.787   9.004   1.055
22141WAT     H166665   8.819   9.031   0.964
22141WAT     H266666   8.809   8.907   1.070
22142WAT      O66667   8.764   7.119   7.006
22142WAT     H166668   8.719   7.109   6.917
22142WAT     H266669   8.707   7.079   7.077
22143WAT      O66670   2.331   4.649   1.167
22143WAT     H166671   2.420   4.691   1.186
22143WAT     H266672   2.344   4.564   1.116
22144WAT      O66673   6.254   1.211   1.283
22144WAT     H166674   6.319   1.281   1.315
22144WAT     H266675   6.261   1.130   1.342
22145WAT      O66676   6.889   7.559   2.406
22145WAT     H166677   6.926   7.472   2.436
22145WAT     H266678   6.957   7.631   2.420
22146WAT      O66679   1.798   8.618   7.501
22146WAT     H166680   1.734   8.694   7.504
22146WAT     H266681   1.880   8.645   7.451
22147WAT      O66682   3.762   0.228   1.329
22147WAT     H166683   3.727   0.298   1.392
22147WAT     H266684   3.712   0.234   1.242
22148WAT      O66685   4.200   4.502   5.916
22148WAT     H166686   4.199   4.416   5.968
22148WAT     H266687   4.242   4.486   5.827
22149WAT      O66688   5.097   2.921   9.583
22149WAT     H166689   4.998   2.908   9.592
22149WAT     H266690   5.127   2.993   9.646
22150WAT      O66691   1.078   9.188   7.922
22150WAT     H166692   0.990   9.234   7.926
22150WAT     H266693   1.121   9.206   7.833
22151WAT      O66694   6.429   2.178   2.630
22151WAT     H166695   6.452   2.085   2.600
22151WAT     H266696   6.332   2.182   2.655
22152WAT      O66697   3.974   1.639   7.984
22152WAT     H166698   4.012   1.637   8.077
22152WAT     H266699   4.001   1.556   7.935
22153WAT      O66700   3.650   3.901   2.035
22153WAT     H166701   3.667   3.967   1.962
22153WAT     H266702   3.570   3.928   2.088
22154WAT      O66703   5.095   1.881   8.618
22154WAT     H166704   5.152   1.858   8.539
22154WAT     H266705   5.013   1.929   8.587
22155WAT      O66706   3.569   3.006   0.626
22155WAT     H166707   3.547   2.908   0.621
22155WAT     H266708   3.484   3.058   0.637
22156WAT      O66709   7.460   1.228   8.682
22156WAT     H166710   7.424   1.154   8.739
22156WAT     H266711   7.449   1.315   8.730
22157WAT      O66712   5.701   1.421   8.392
22157WAT     H166713   5.695   1.521   8.399
22157WAT     H266714   5.649   1.389   8.313
22158WAT      O66715   5.173   2.222   0.965
22158WAT     H166716   5.093   2.161   0.961
22158WAT     H266717   5.208   2.225   1.059
22159WAT      O66718   7.500   7.466   1.748
22159WAT     H166719   7.516   7.564   1.744
22159WAT     H266720   7.584   7.417   1.725
22160WAT      O66721   5.211   2.350   2.720
22160WAT     H166722   5.154   2.429   2.696
22160WAT     H266723   5.253   2.366   2.809
22161WAT      O66724   5.184   3.457   9.708
22161WAT     H166725   5.219   3.419   9.794
22161WAT     H266726   5.199   3.391   9.634
22162WAT      O66727   9.857   1.392   7.604
22162WAT     H166728   9.945   1.357   7.639
22162WAT     H266729   9.844   1.360   7.510
22163WAT      O66730   1.669   0.509   1.057
22163WAT     H166731   1.643   0.413   1.056
22163WAT     H266732   1.747   0.522   1.118
22164WAT      O66733   4.838   5.188   2.723
22164WAT     H166734   4.885   5.128   2.658
22164WAT     H266735   4.898   5.263   2.749
22165WAT      O66736   0.180   7.397   5.849
22165WAT     H166737   0.135   7.482   5.878
22165WAT     H266738   0.114   7.336   5.807
22166WAT      O66739   9.044   6.718   6.505
22166WAT     H166740   8.954   6.752   6.477
22166WAT     H266741   9.110   6.793   6.504
22167WAT      O66742   5.248   4.752   7.024
22167WAT     H166743   5.263   4.687   7.098
22167WAT     H266744   5.228   4.702   6.939
22168WAT      O66745   3.482   8.341   9.140
22168WAT     H166746   3.469   8.314   9.235
22168WAT     H266747   3.459   8.438   9.129
22169WAT      O66748   6.737   9.301   4.866
22169WAT     H166749   6.672   9.377   4.869
22169WAT     H266750   6.779   9.296   4.775
22170WAT      O66751   7.410   8.090   1.639
22170WAT     H166752   7.402   8.026   1.715
22170WAT     H266753   7.413   8.039   1.553
22171WAT      O66754   0.734   8.921   7.164
22171WAT     H166755   0.720   8.842   7.105
22171WAT     H266756   0.775   8.892   7.251
22172WAT      O66757   7.629   4.852   4.511
22172WAT     H166758   7.675   4.901   4.585
22172WAT     H266759   7.556   4.908   4.473
22173WAT      O66760   7.736   8.955   8.657
22173WAT     H166761   7.836   8.945   8.650
22173WAT     H266762   7.714   9.045   8.694
22174WAT      O66763   2.588   8.832   0.921
22174WAT     H166764   2.536   8.753   0.889
22174WAT     H266765   2.603   8.895   0.844
22175WAT      O66766   8.426   8.195   9.846
22175WAT     H166767   8.500   8.251   9.810
22175WAT     H266768   8.367   8.165   9.771
22176WAT      O66769   9.604   8.311   2.477
22176WAT     H166770   9.653   8.398   2.470
22176WAT     H266771   9.563   8.303   2.568
22177WAT      O66772   8.840   6.676   7.445
22177WAT     H166773   8.867   6.590   7.488
22177WAT     H266774   8.872   6.677   7.350
22178WAT      O66775   8.965   5.252   2.610
22178WAT     H166776   9.059   5.286   2.606
22178WAT     H266777   8.965   5.152   2.609
22179WAT      O66778   0.713   9.699   2.076
22179WAT     H166779   0.753   9.717   1.987
22179WAT     H266780   0.673   9.607   2.076
22180WAT      O66781   9.720   4.892   5.500
22180WAT     H166782   9.695   4.885   5.403
22180WAT     H266783   9.770   4.977   5.515
22181WAT      O66784   6.451   7.807   3.478
22181WAT     H166785   6.398   7.863   3.414
22181WAT     H266786   6.432   7.837   3.571
22182WAT      O66787   1.065   0.107   1.322
22182WAT     H166788   1.069   0.016   1.362
22182WAT     H266789   0.985   0.155   1.357
22183WAT      O66790   8.025   5.255   9.353
22183WAT     H166791   7.958   5.184   9.333
22183WAT     H266792   8.114   5.229   9.317
22184WAT      O66793   4.123   8.199   1.445
22184WAT     H166794   4.193   8.255   1.400
22184WAT     H266795   4.083   8.250   1.521
22185WAT      O66796   9.637   4.990   9.765
22185WAT     H166797   9.687   4.971   9.681
22185WAT     H266798   9.690   5.053   9.822
22186WAT      O66799   4.333   6.380   4.939
22186WAT     H166800   4.419   6.429   4.951
22186WAT     H266801   4.352   6.287   4.907
22187WAT      O66802   7.046   4.306   8.845
22187WAT     H166803   7.069   4.298   8.748
22187WAT     H266804   7.035   4.402   8.868
22188WAT      O66805   9.704   2.654   8.041
22188WAT     H166806   9.726   2.718   8.114
22188WAT     H266807   9.623   2.601   8.068
22189WAT      O66808   4.757   5.597   3.106
22189WAT     H166809   4.837   5.538   3.094
22189WAT     H266810   4.743   5.614   3.203
22190WAT      O66811   4.897   7.494   8.566
22190WAT     H166812   4.811   7.542   8.551
22190WAT     H266813   4.905   7.419   8.500
22191WAT      O66814   8.323   6.161   7.788
22191WAT     H166815   8.285   6.156   7.696
22191WAT     H266816   8.418   6.194   7.783
22192WAT      O66817   5.470   7.550   8.886
22192WAT     H166818   5.522   7.476   8.931
22192WAT     H266819   5.532   7.604   8.830
22193WAT      O66820   4.102   2.385   7.472
22193WAT     H166821   4.042   2.310   7.442
22193WAT     H266822   4.162   2.410   7.397
22194WAT      O66823   5.893   7.458   6.791
22194WAT     H166824   5.802   7.435   6.825
22194WAT     H266825   5.936   7.375   6.753
22195WAT      O66826   0.654   7.013   2.927
22195WAT     H166827   0.595   7.090   2.903
22195WAT     H266828   0.601   6.944   2.977
22196WAT      O66829   5.610   4.288   8.007
22196WAT     H166830   5.551   4.322   8.080
22196WAT     H266831   5.700   4.331   8.016
22197WAT      O66832   2.646   7.469   1.795
22197WAT     H166833   2.569   7.461   1.858
22197WAT     H266834   2.621   7.429   1.707
22198WAT      O66835   9.398   3.474   2.850
22198WAT     H166836   9.320   3.534   2.867
22198WAT     H266837   9.460   3.518   2.783
22199WAT      O66838   5.604   5.977   3.537
22199WAT     H166839   5.681   6.037   3.514
22199WAT     H266840   5.601   5.963   3.635
22200WAT      O66841   2.540   8.128   3.052
22200WAT     H166842   2.464   8.086   3.001
22200WAT     H266843   2.516   8.135   3.148
22201WAT      O66844   2.352   6.962   0.351
22201WAT     H166845   2.387   7.054   0.369
22201WAT     H266846   2.328   6.919   0.437
22202WAT      O66847   5.780   4.630   8.404
22202WAT     H166848   5.858   4.611   8.462
22202WAT     H266849   5.705   4.568   8.428
22203WAT      O66850   0.649   5.195   3.519
22203WAT     H166851   0.684   5.102   3.513
22203WAT     H266852   0.583   5.202   3.594
22204WAT      O66853   4.153   2.194   2.144
22204WAT     H166854   4.173   2.097   2.153
22204WAT     H266855   4.067   2.206   2.094
22205WAT      O66856   3.003   1.735   3.859
22205WAT     H166857   3.066   1.793   3.808
22205WAT     H266858   3.027   1.735   3.956
22206WAT      O66859   4.927   1.279   0.845
22206WAT     H166860   4.923   1.310   0.940
22206WAT     H266861   4.855   1.213   0.828
22207WAT      O66862   6.700   4.864   8.880
22207WAT     H166863   6.761   4.815   8.942
22207WAT     H266864   6.725   4.960   8.876
22208WAT      O66865   6.080   4.492   1.635
22208WAT     H166866   6.026   4.432   1.577
22208WAT     H266867   6.115   4.440   1.713
22209WAT      O66868   9.447   2.596   2.386
22209WAT     H166869   9.387   2.572   2.463
22209WAT     H266870   9.506   2.672   2.413
22210WAT      O66871   6.764   6.412   1.444
22210WAT     H166872   6.770   6.331   1.502
22210WAT     H266873   6.751   6.493   1.502
22211WAT      O66874   4.914   8.612   0.206
22211WAT     H166875   4.843   8.604   0.136
22211WAT     H266876   4.893   8.690   0.265
22212WAT      O66877   7.842   9.630   6.487
22212WAT     H166878   7.879   9.704   6.431
22212WAT     H266879   7.763   9.590   6.440
22213WAT      O66880   0.063   6.624   3.408
22213WAT     H166881   0.077   6.554   3.478
22213WAT     H266882   0.151   6.647   3.366
22214WAT      O66883   7.124   9.382   0.896
22214WAT     H166884   7.185   9.397   0.974
22214WAT     H266885   7.034   9.356   0.929
22215WAT      O66886   1.434   1.811   5.329
22215WAT     H166887   1.380   1.807   5.413
22215WAT     H266888   1.383   1.861   5.259
22216WAT      O66889   0.362   5.808   7.683
22216WAT     H166890   0.428   5.805   7.608
22216WAT     H266891   0.269   5.814   7.645
22217WAT      O66892   9.372   6.458   7.933
22217WAT     H166893   9.382   6.414   8.022
22217WAT     H266894   9.313   6.538   7.943
22218WAT      O66895   9.537   8.067   3.627
22218WAT     H166896   9.566   8.111   3.712
22218WAT     H266897   9.458   8.115   3.590
22219WAT      O66898   8.691   3.900   6.932
22219WAT     H166899   8.641   3.926   7.015
22219WAT     H266900   8.788   3.888   6.954
22220WAT      O66901   9.604   0.487   1.944
22220WAT     H166902   9.581   0.469   2.039
22220WAT     H266903   9.541   0.438   1.884
22221WAT      O66904   4.916   6.298   7.422
22221WAT     H166905   4.911   6.336   7.514
22221WAT     H266906   4.997   6.335   7.376
22222WAT      O66907   8.113   2.298   0.168
22222WAT     H166908   8.075   2.217   0.124
22222WAT     H266909   8.136   2.366   0.099
22223WAT      O66910   9.365   2.947   7.973
22223WAT     H166911   9.291   3.003   7.937
22223WAT     H266912   9.416   2.999   8.042
22224WAT      O66913   5.042   9.791   6.369
22224WAT     H166914   5.126   9.833   6.402
22224WAT     H266915   5.026   9.818   6.274
22225WAT      O66916   8.759   9.116   9.075
22225WAT     H166917   8.789   9.109   9.170
22225WAT     H266918   8.759   9.025   9.033
22226WAT      O66919   5.261   0.849   0.150
22226WAT     H166920   5.343   0.794   0.163
22226WAT     H266921   5.217   0.824   0.064
22227WAT      O66922   9.151   9.038   4.954
22227WAT     H166923   9.094   8.972   5.002
22227WAT     H266924   9.232   8.992   4.918
22228WAT      O66925   9.359   3.674   3.076
22228WAT     H166926   9.382   3.585   3.114
22228WAT     H266927   9.314   3.729   3.147
22229WAT      O66928   6.350   9.056   5.844
22229WAT     H166929   6.251   9.056   5.849
22229WAT     H266930   6.389   9.072   5.935
22230WAT      O66931   8.401   7.094   8.359
22230WAT     H166932   8.335   7.146   8.413
22230WAT     H266933   8.364   7.002   8.342
22231WAT      O66934   1.475   4.305   6.044
22231WAT     H166935   1.535   4.334   6.119
22231WAT     H266936   1.382   4.338   6.060
22232WAT      O66937   8.177   6.984   7.837
22232WAT     H166938   8.094   7.023   7.798
22232WAT     H266939   8.199   7.033   7.922
22233WAT      O66940   3.478   4.171   2.427
22233WAT     H166941   3.419   4.246   2.457
22233WAT     H266942   3.485   4.103   2.499
22234WAT      O66943   7.729   3.485   6.248
22234WAT     H166944   7.717   3.395   6.208
22234WAT     H266945   7.825   3.512   6.245
22235WAT      O66946   9.078   2.027   0.453
22235WAT     H166947   9.040   2.119   0.466
22235WAT     H266948   9.131   2.001   0.534
22236WAT      O66949   7.154   9.012   2.537
22236WAT     H166950   7.108   8.927   2.560
22236WAT     H266951   7.094   9.068   2.480
22237WAT      O66952   2.026   8.494   2.966
22237WAT     H166953   1.946   8.551   2.947
22237WAT     H266954   1.996   8.405   3.001
22238WAT      O66955   4.949   2.486   4.159
22238WAT     H166956   4.964   2.553   4.232
22238WAT     H266957   4.865   2.508   4.109
22239WAT      O66958   9.520   6.474   1.002
22239WAT     H166959   9.560   6.566   0.993
22239WAT     H266960   9.579   6.408   0.955
22240WAT      O66961   6.371   3.048   9.263
22240WAT     H166962   6.293   3.015   9.209
22240WAT     H266963   6.405   3.134   9.225
22241WAT      O66964   9.053   2.078   0.199
22241WAT     H166965   9.083   2.069   0.293
22241WAT     H266966   9.011   1.992   0.168
22242WAT      O66967   6.195   1.058   4.152
22242WAT     H166968   6.177   1.144   4.105
22242WAT     H266969   6.277   1.067   4.209
22243WAT      O66970   1.635   9.650   5.010
22243WAT     H166971   1.700   9.725   4.996
22243WAT     H266972   1.598   9.655   5.103
22244WAT      O66973   8.546   7.581   3.257
22244WAT     H166974   8.508   7.673   3.265
22244WAT     H266975   8.641   7.587   3.227
22245WAT      O66976   0.577   1.312   5.771
22245WAT     H166977   0.496   1.369   5.783
22245WAT     H266978   0.591   1.294   5.673
22246WAT      O66979   0.103   2.351   9.334
22246WAT     H166980   0.174   2.356   9.264
22246WAT     H266981   0.112   2.265   9.384
22247WAT      O66982   3.116   7.783   8.157
22247WAT     H166983   3.040   7.848   8.158
22247WAT     H266984   3.083   7.694   8.190
22248WAT      O66985   2.284   3.666   4.872
22248WAT     H166986   2.269   3.688   4.776
22248WAT     H266987   2.302   3.568   4.881
22249WAT      O66988   7.057   0.268   7.812
22249WAT     H166989   7.003   0.200   7.862
22249WAT     H266990   6.998   0.343   7.784
22250WAT      O66991   9.838   8.390   1.274
22250WAT     H166992   9.760   8.333   1.301
22250WAT     H266993   9.839   8.399   1.175
22251WAT      O66994   6.254   0.322   8.599
22251WAT     H166995   6.169   0.294   8.556
22251WAT     H266996   6.235   0.364   8.688
22252WAT      O66997   2.904   5.488   6.942
22252WAT     H166998   2.834   5.422   6.914
22252WAT     H266999   2.890   5.574   6.894
22253WAT      O67000   1.792   2.031   4.315
22253WAT     H167001   1.728   2.104   4.292
22253WAT     H267002   1.742   1.945   4.327
22254WAT      O67003   2.199   0.546   0.381
22254WAT     H167004   2.290   0.506   0.389
22254WAT     H267005   2.200   0.640   0.416
22255WAT      O67006   6.805   3.012   8.075
22255WAT     H167007   6.708   3.025   8.056
22255WAT     H267008   6.849   3.100   8.093
22256WAT      O67009   7.284   1.911   4.098
22256WAT     H167010   7.228   1.829   4.081
22256WAT     H267011   7.254   1.985   4.039
22257WAT      O67012   6.573   9.473   6.020
22257WAT     H167013   6.531   9.467   5.929
22257WAT     H267014   6.568   9.385   6.066
22258WAT      O67015   5.792   9.138   9.868
22258WAT     H167016   5.843   9.071   9.815
22258WAT     H267017   5.739   9.091   9.939
22259WAT      O67018   2.959   3.379   9.033
22259WAT     H167019   2.911   3.435   9.101
22259WAT     H267020   2.947   3.282   9.055
22260WAT      O67021   1.239   1.454   9.366
22260WAT     H167022   1.156   1.423   9.411
22260WAT     H267023   1.276   1.534   9.414
22261WAT      O67024   8.713   5.006   7.583
22261WAT     H167025   8.750   4.956   7.504
22261WAT     H267026   8.782   5.069   7.617
22262WAT      O67027   6.690   1.531   0.450
22262WAT     H167028   6.618   1.520   0.518
22262WAT     H267029   6.685   1.623   0.412
22263WAT      O67030   5.814   5.449   1.669
22263WAT     H167031   5.757   5.400   1.603
22263WAT     H267032   5.762   5.467   1.752
22264WAT      O67033   2.038   9.622   8.337
22264WAT     H167034   1.941   9.630   8.314
22264WAT     H267035   2.051   9.644   8.434
22265WAT      O67036   1.242   4.351   3.575
22265WAT     H167037   1.207   4.318   3.488
22265WAT     H267038   1.325   4.300   3.599
22266WAT      O67039   1.495   9.502   8.254
22266WAT     H167040   1.572   9.456   8.298
22266WAT     H267041   1.448   9.559   8.321
22267WAT      O67042   8.403   0.599   8.597
22267WAT     H167043   8.446   0.647   8.520
22267WAT     H267044   8.457   0.518   8.620
22268WAT      O67045   4.091   4.825   6.641
22268WAT     H167046   4.109   4.752   6.576
22268WAT     H267047   4.065   4.908   6.593
22269WAT      O67048   0.419   4.136   5.373
22269WAT     H167049   0.359   4.078   5.428
22269WAT     H267050   0.415   4.107   5.278
22270WAT      O67051   6.070   9.404   1.258
22270WAT     H167052   6.063   9.500   1.233
22270WAT     H267053   6.148   9.391   1.319
22271WAT      O67054   7.875   1.622   9.447
22271WAT     H167055   7.784   1.609   9.408
22271WAT     H267056   7.909   1.535   9.484
22272WAT      O67057   0.668   4.318   2.382
22272WAT     H167058   0.746   4.267   2.418
22272WAT     H267059   0.613   4.258   2.325
22273WAT      O67060   1.838   1.510   6.063
22273WAT     H167061   1.880   1.438   6.118
22273WAT     H267062   1.783   1.468   5.991
22274WAT      O67063   3.711   5.350   3.015
22274WAT     H167064   3.713   5.442   3.055
22274WAT     H267065   3.803   5.312   3.012
22275WAT      O67066   6.839   2.731   1.815
22275WAT     H167067   6.906   2.658   1.803
22275WAT     H267068   6.886   2.819   1.823
22276WAT      O67069   5.067   8.390   8.911
22276WAT     H167070   5.144   8.382   8.848
22276WAT     H267071   4.992   8.331   8.878
22277WAT      O67072   7.821   6.768   2.325
22277WAT     H167073   7.862   6.714   2.399
22277WAT     H267074   7.725   6.787   2.347
22278WAT      O67075   6.615   5.424   7.351
22278WAT     H167076   6.574   5.434   7.442
22278WAT     H267077   6.697   5.480   7.346
22279WAT      O67078   5.486   5.081   2.114
22279WAT     H167079   5.511   5.177   2.100
22279WAT     H267080   5.386   5.072   2.111
22280WAT      O67081   8.108   5.032   1.274
22280WAT     H167082   8.176   5.058   1.342
22280WAT     H267083   8.022   5.008   1.320
22281WAT      O67084   6.097   0.068   6.628
22281WAT     H167085   6.020   0.065   6.564
22281WAT     H267086   6.084  -0.001   6.699
22282WAT      O67087   8.904   7.098   3.273
22282WAT     H167088   8.859   7.181   3.307
22282WAT     H267089   8.909   7.030   3.346
22283WAT      O67090   4.762   6.879   6.128
22283WAT     H167091   4.790   6.837   6.214
22283WAT     H267092   4.700   6.818   6.080
22284WAT      O67093   0.695   6.403   4.069
22284WAT     H167094   0.784   6.405   4.024
22284WAT     H267095   0.658   6.310   4.064
22285WAT      O67096   8.427   5.782   8.661
22285WAT     H167097   8.478   5.828   8.734
22285WAT     H267098   8.472   5.800   8.573
22286WAT      O67099   7.692   9.144   6.408
22286WAT     H167100   7.724   9.074   6.345
22286WAT     H267101   7.763   9.213   6.419
22287WAT      O67102   5.228   8.753   1.331
22287WAT     H167103   5.307   8.723   1.277
22287WAT     H267104   5.208   8.686   1.402
22288WAT      O67105   0.761   8.944   9.446
22288WAT     H167106   0.790   8.855   9.482
22288WAT     H267107   0.836   9.009   9.455
22289WAT      O67108   5.672   2.291   0.502
22289WAT     H167109   5.603   2.353   0.463
22289WAT     H267110   5.695   2.221   0.434
22290WAT      O67111   4.199   4.029   5.390
22290WAT     H167112   4.290   4.063   5.414
22290WAT     H267113   4.207   3.950   5.330
22291WAT      O67114   9.792   8.571   1.626
22291WAT     H167115   9.782   8.607   1.718
22291WAT     H267116   9.780   8.471   1.627
22292WAT      O67117   6.078   4.813   3.688
22292WAT     H167118   6.144   4.889   3.689
22292WAT     H267119   6.040   4.800   3.779
22293WAT      O67120   6.116   4.855   7.172
22293WAT     H167121   6.039   4.791   7.175
22293WAT     H267122   6.107   4.912   7.090
22294WAT      O67123   7.270   1.404   7.233
22294WAT     H167124   7.295   1.313   7.266
22294WAT     H267125   7.200   1.396   7.162
22295WAT      O67126   0.449   6.807   1.594
22295WAT     H167127   0.424   6.871   1.667
22295WAT     H267128   0.485   6.722   1.634
22296WAT      O67129   2.362   9.651   7.696
22296WAT     H167130   2.332   9.662   7.791
22296WAT     H267131   2.314   9.718   7.639
22297WAT      O67132   8.960   4.793   4.354
22297WAT     H167133   9.026   4.726   4.319
22297WAT     H267134   9.002   4.884   4.355
22298WAT      O67135   0.705   2.823   1.649
22298WAT     H167136   0.756   2.777   1.722
22298WAT     H267137   0.757   2.817   1.563
22299WAT      O67138   8.615   1.515   5.828
22299WAT     H167139   8.534   1.457   5.835
22299WAT     H267140   8.695   1.458   5.811
22300WAT      O67141   5.968   7.598   2.519
22300WAT     H167142   6.028   7.656   2.574
22300WAT     H267143   5.969   7.629   2.424
22301WAT      O67144   4.498   5.461   3.459
22301WAT     H167145   4.429   5.420   3.519
22301WAT     H267146   4.535   5.544   3.502
22302WAT      O67147   6.559   7.781   8.666
22302WAT     H167148   6.604   7.751   8.750
22302WAT     H267149   6.470   7.821   8.688
22303WAT      O67150   0.060   6.453   4.401
22303WAT     H167151   0.006   6.452   4.316
22303WAT     H267152   0.088   6.547   4.422
22304WAT      O67153   0.841   7.954   0.594
22304WAT     H167154   0.757   7.908   0.623
22304WAT     H267155   0.886   7.993   0.674
22305WAT      O67156   3.989   4.604   0.830
22305WAT     H167157   3.993   4.546   0.748
22305WAT     H267158   3.923   4.677   0.815
22306WAT      O67159   8.038   3.081   0.082
22306WAT     H167160   8.069   2.996   0.125
22306WAT     H267161   7.941   3.072   0.057
22307WAT      O67162   6.295   0.429   0.173
22307WAT     H167163   6.219   0.374   0.209
22307WAT     H267164   6.378   0.411   0.226
22308WAT      O67165   6.135   2.205   8.187
22308WAT     H167166   6.040   2.174   8.187
22308WAT     H267167   6.137   2.304   8.171
22309WAT      O67168   1.909   3.935   3.815
22309WAT     H167169   1.955   3.880   3.745
22309WAT     H267170   1.817   3.898   3.831
22310WAT      O67171   0.283   4.949   2.448
22310WAT     H167172   0.272   5.043   2.418
22310WAT     H267173   0.328   4.896   2.376
22311WAT      O67174   9.054   2.940   5.792
22311WAT     H167175   9.045   3.039   5.803
22311WAT     H267176   9.135   2.919   5.737
22312WAT      O67177   0.199   3.159   0.313
22312WAT     H167178   0.291   3.136   0.346
22312WAT     H267179   0.136   3.085   0.338
22313WAT      O67180   5.961   0.778   3.289
22313WAT     H167181   5.900   0.751   3.364
22313WAT     H267182   5.929   0.738   3.203
22314WAT      O67183   1.554   7.812   7.165
22314WAT     H167184   1.485   7.739   7.170
22314WAT     H267185   1.587   7.833   7.257
22315WAT      O67186   3.615   2.656   6.806
22315WAT     H167187   3.651   2.709   6.883
22315WAT     H267188   3.690   2.605   6.764
22316WAT      O67189   9.047   2.188   8.685
22316WAT     H167190   9.022   2.168   8.780
22316WAT     H267191   9.043   2.104   8.631
22317WAT      O67192   2.697   7.284   8.129
22317WAT     H167193   2.660   7.200   8.169
22317WAT     H267194   2.797   7.279   8.127
22318WAT      O67195   5.951   4.659   4.617
22318WAT     H167196   6.050   4.675   4.609
22318WAT     H267197   5.935   4.589   4.686
22319WAT      O67198   1.269   9.496   2.496
22319WAT     H167199   1.292   9.399   2.495
22319WAT     H267200   1.170   9.506   2.506
22320WAT      O67201   6.321   6.001   5.103
22320WAT     H167202   6.297   6.086   5.056
22320WAT     H267203   6.394   5.954   5.053
22321WAT      O67204   3.868   5.157   4.449
22321WAT     H167205   3.813   5.106   4.383
22321WAT     H267206   3.956   5.110   4.461
22322WAT      O67207   6.465   7.972   0.135
22322WAT     H167208   6.395   8.016   0.191
22322WAT     H267209   6.532   8.040   0.106
22323WAT      O67210   5.550   7.280   4.616
22323WAT     H167211   5.510   7.360   4.572
22323WAT     H267212   5.649   7.291   4.623
22324WAT      O67213   5.237   9.411   8.662
22324WAT     H167214   5.226   9.361   8.747
22324WAT     H267215   5.280   9.500   8.681
22325WAT      O67216   5.319   2.246   9.665
22325WAT     H167217   5.356   2.255   9.757
22325WAT     H267218   5.388   2.204   9.605
22326WAT      O67219   8.362   5.485   7.303
22326WAT     H167220   8.385   5.413   7.369
22326WAT     H267221   8.381   5.453   7.210
22327WAT      O67222   0.183   6.284   3.097
22327WAT     H167223   0.138   6.195   3.100
22327WAT     H267224   0.198   6.317   3.190
22328WAT      O67225   0.980   0.092   7.719
22328WAT     H167226   0.991   0.049   7.809
22328WAT     H267227   1.069   0.098   7.674
22329WAT      O67228   2.853   5.998   0.896
22329WAT     H167229   2.880   6.056   0.973
22329WAT     H267230   2.931   5.987   0.834
22330WAT      O67231   9.585   1.096   3.580
22330WAT     H167232   9.684   1.097   3.591
22330WAT     H267233   9.556   1.009   3.539
22331WAT      O67234   0.254   6.276   0.617
22331WAT     H167235   0.209   6.201   0.666
22331WAT     H267236   0.286   6.344   0.683
22332WAT      O67237   3.432   6.055   0.179
22332WAT     H167238   3.461   6.068   0.274
22332WAT     H267239   3.392   5.964   0.169
22333WAT      O67240   3.337   4.105   7.384
22333WAT     H167241   3.388   4.093   7.469
22333WAT     H267242   3.289   4.193   7.387
22334WAT      O67243   1.391   4.823   5.618
22334WAT     H167244   1.458   4.830   5.692
22334WAT     H267245   1.356   4.730   5.613
22335WAT      O67246   1.659   4.717   9.424
22335WAT     H167247   1.674   4.781   9.348
22335WAT     H267248   1.617   4.633   9.389
22336WAT      O67249   7.194   1.769   2.820
22336WAT     H167250   7.194   1.750   2.722
22336WAT     H267251   7.287   1.759   2.856
22337WAT      O67252   5.189   1.443   4.371
22337WAT     H167253   5.236   1.437   4.459
22337WAT     H267254   5.201   1.358   4.320
22338WAT      O67255   9.084   7.193   1.672
22338WAT     H167256   9.134   7.194   1.759
22338WAT     H267257   8.986   7.190   1.690
22339WAT      O67258   8.237   3.100   6.964
22339WAT     H167259   8.247   3.195   6.993
22339WAT     H267260   8.141   3.079   6.949
22340WAT      O67261   8.633   4.572   9.586
22340WAT     H167262   8.592   4.560   9.676
22340WAT     H267263   8.596   4.504   9.523
22341WAT      O67264   5.061   7.115   5.721
22341WAT     H167265   5.160   7.103   5.722
22341WAT     H267266   5.038   7.209   5.745
22342WAT      O67267   1.804   7.056   3.407
22342WAT     H167268   1.770   7.147   3.385
22342WAT     H267269   1.727   6.992   3.409
22343WAT      O67270   3.700   8.264   1.824
22343WAT     H167271   3.678   8.168   1.811
22343WAT     H267272   3.635   8.321   1.773
22344WAT      O67273   9.780   5.195   9.880
22344WAT     H167274   9.773   5.283   9.834
22344WAT     H267275   9.871   5.156   9.865
22345WAT      O67276   2.477   0.631   0.789
22345WAT     H167277   2.444   0.542   0.759
22345WAT     H267278   2.567   0.620   0.832
22346WAT      O67279   2.001   4.284   2.311
22346WAT     H167280   2.075   4.217   2.305
22346WAT     H267281   2.022   4.363   2.253
22347WAT      O67282   7.455   2.616   5.445
22347WAT     H167283   7.439   2.713   5.429
22347WAT     H267284   7.387   2.562   5.395
22348WAT      O67285   4.562   8.128   2.331
22348WAT     H167286   4.499   8.166   2.398
22348WAT     H267287   4.608   8.048   2.369
22349WAT      O67288   9.346   1.697   0.276
22349WAT     H167289   9.366   1.624   0.342
22349WAT     H267290   9.349   1.786   0.323
22350WAT      O67291   5.260   2.237   0.336
22350WAT     H167292   5.341   2.290   0.361
22350WAT     H267293   5.288   2.148   0.301
22351WAT      O67294   6.520   1.073   2.712
22351WAT     H167295   6.472   1.016   2.646
22351WAT     H267296   6.508   1.170   2.688
22352WAT      O67297   1.542   8.505   6.461
22352WAT     H167298   1.633   8.463   6.468
22352WAT     H267299   1.473   8.441   6.496
22353WAT      O67300   0.909   8.179   2.682
22353WAT     H167301   0.922   8.131   2.769
22353WAT     H267302   0.928   8.116   2.606
22354WAT      O67303   3.540   5.786   9.589
22354WAT     H167304   3.440   5.794   9.589
22354WAT     H267305   3.575   5.808   9.498
22355WAT      O67306   3.477   2.741   7.874
22355WAT     H167307   3.502   2.719   7.968
22355WAT     H267308   3.398   2.687   7.847
22356WAT      O67309   4.448   0.680   5.940
22356WAT     H167310   4.444   0.640   5.848
22356WAT     H267311   4.503   0.621   5.999
22357WAT      O67312   1.311   5.003   6.432
22357WAT     H167313   1.358   5.064   6.368
22357WAT     H267314   1.275   5.056   6.509
22358WAT      O67315   2.097   9.724   6.835
22358WAT     H167316   2.176   9.767   6.792
22358WAT     H267317   2.015   9.742   6.779
22359WAT      O67318   1.576   4.633   4.883
22359WAT     H167319   1.589   4.721   4.928
22359WAT     H267320   1.478   4.613   4.877
22360WAT      O67321   9.564   2.324   3.610
22360WAT     H167322   9.470   2.312   3.644
22360WAT     H267323   9.562   2.381   3.528
22361WAT      O67324   3.793   9.464   6.491
22361WAT     H167325   3.779   9.421   6.580
22361WAT     H267326   3.706   9.475   6.444
22362WAT      O67327   2.403   3.512   0.728
22362WAT     H167328   2.402   3.550   0.821
22362WAT     H267329   2.433   3.581   0.663
22363WAT      O67330   4.511   1.483   2.464
22363WAT     H167331   4.606   1.487   2.433
22363WAT     H267332   4.465   1.568   2.440
22364WAT      O67333   9.321   8.803   2.493
22364WAT     H167334   9.223   8.809   2.473
22364WAT     H267335   9.365   8.747   2.423
22365WAT      O67336   7.129   8.315   0.636
22365WAT     H167337   7.092   8.382   0.571
22365WAT     H267338   7.142   8.227   0.590
22366WAT      O67339   1.181   7.104   1.568
22366WAT     H167340   1.217   7.022   1.525
22366WAT     H267341   1.175   7.178   1.500
22367WAT      O67342   4.500   8.778   7.074
22367WAT     H167343   4.515   8.822   7.163
22367WAT     H267344   4.414   8.811   7.035
22368WAT      O67345   0.937   3.780   8.514
22368WAT     H167346   0.917   3.702   8.454
22368WAT     H267347   0.928   3.751   8.609
22369WAT      O67348   0.081   9.544   2.236
22369WAT     H167349   0.099   9.461   2.290
22369WAT     H267350   0.070   9.519   2.140
22370WAT      O67351   8.138   0.215   9.298
22370WAT     H167352   8.202   0.164   9.240
22370WAT     H267353   8.052   0.165   9.305
22371WAT      O67354   4.811   9.442   9.276
22371WAT     H167355   4.715   9.420   9.256
22371WAT     H267356   4.837   9.526   9.228
22372WAT      O67357   4.522   1.169   0.031
22372WAT     H167358   4.527   1.071   0.012
22372WAT     H267359   4.611   1.202   0.062
22373WAT      O67360   6.815   2.113   2.438
22373WAT     H167361   6.721   2.143   2.421
22373WAT     H267362   6.845   2.144   2.528
22374WAT      O67363   9.485   2.552   8.170
22374WAT     H167364   9.432   2.467   8.165
22374WAT     H267365   9.514   2.567   8.265
22375WAT      O67366   3.184   5.608   6.276
22375WAT     H167367   3.139   5.677   6.332
22375WAT     H267368   3.223   5.651   6.195
22376WAT      O67369   0.670   6.075   1.017
22376WAT     H167370   0.717   5.996   1.056
22376WAT     H267371   0.702   6.159   1.061
22377WAT      O67372   7.297   5.949   1.787
22377WAT     H167373   7.370   6.017   1.785
22377WAT     H267374   7.212   5.993   1.818
22378WAT      O67375   3.227   7.728   7.694
22378WAT     H167376   3.295   7.691   7.757
22378WAT     H267377   3.161   7.656   7.670
22379WAT      O67378   3.125   1.325   2.058
22379WAT     H167379   3.081   1.407   2.094
22379WAT     H267380   3.174   1.278   2.132
22380WAT      O67381   8.194   9.393   6.403
22380WAT     H167382   8.175   9.401   6.305
22380WAT     H267383   8.259   9.318   6.417
22381WAT      O67384   2.651   7.641   9.472
22381WAT     H167385   2.606   7.552   9.464
22381WAT     H267386   2.656   7.684   9.383
22382WAT      O67387   4.766   3.543   0.968
22382WAT     H167388   4.845   3.517   1.024
22382WAT     H267389   4.796   3.560   0.874
22383WAT      O67390   1.525   8.392   4.805
22383WAT     H167391   1.436   8.348   4.800
22383WAT     H267392   1.517   8.480   4.852
22384WAT      O67393   1.284   3.906   0.478
22384WAT     H167394   1.185   3.920   0.486
22384WAT     H267395   1.302   3.814   0.446
22385WAT      O67396   5.872   0.539   7.605
22385WAT     H167397   5.896   0.532   7.702
22385WAT     H267398   5.773   0.529   7.594
22386WAT      O67399   4.916   7.822   7.170
22386WAT     H167400   4.819   7.809   7.149
22386WAT     H267401   4.949   7.744   7.223
22387WAT      O67402   1.081   7.228   5.668
22387WAT     H167403   0.993   7.181   5.662
22387WAT     H267404   1.130   7.217   5.582
22388WAT      O67405   3.474   9.209   2.230
22388WAT     H167406   3.493   9.300   2.268
22388WAT     H267407   3.422   9.220   2.145
22389WAT      O67408   4.731   0.198   9.868
22389WAT     H167409   4.783   0.229   9.948
22389WAT     H267410   4.777   0.228   9.785
22390WAT      O67411   6.237   5.641   8.068
22390WAT     H167412   6.143   5.625   8.037
22390WAT     H267413   6.291   5.559   8.052
22391WAT      O67414   2.227   7.812   8.378
22391WAT     H167415   2.146   7.865   8.404
22391WAT     H267416   2.204   7.714   8.380
22392WAT      O67417   3.416   4.210   2.879
22392WAT     H167418   3.435   4.147   2.804
22392WAT     H267419   3.502   4.242   2.918
22393WAT      O67420   8.431   4.057   3.744
22393WAT     H167421   8.510   4.078   3.802
22393WAT     H267422   8.451   3.977   3.688
22394WAT      O67423   2.266   4.925   6.018
22394WAT     H167424   2.293   4.838   5.977
22394WAT     H267425   2.206   4.907   6.096
22395WAT      O67426   4.983   7.714   0.083
22395WAT     H167427   4.955   7.724   0.179
22395WAT     H267428   4.912   7.753   0.024
22396WAT      O67429   3.538   7.934   2.782
22396WAT     H167430   3.459   7.949   2.723
22396WAT     H267431   3.590   7.854   2.750
22397WAT      O67432   1.662   8.154   5.030
22397WAT     H167433   1.587   8.092   5.051
22397WAT     H267434   1.670   8.165   4.931
22398WAT      O67435   7.875   8.485   4.139
22398WAT     H167436   7.787   8.441   4.152
22398WAT     H267437   7.948   8.427   4.175
22399WAT      O67438   3.719   9.189   6.574
22399WAT     H167439   3.749   9.140   6.656
22399WAT     H267440   3.626   9.224   6.589
22400WAT      O67441   1.487   1.893   2.686
22400WAT     H167442   1.513   1.835   2.608
22400WAT     H267443   1.509   1.988   2.665
22401WAT      O67444   4.423   8.618   9.533
22401WAT     H167445   4.427   8.580   9.440
22401WAT     H267446   4.328   8.641   9.556
22402WAT      O67447   6.550   3.315   6.078
22402WAT     H167448   6.460   3.359   6.074
22402WAT     H267449   6.608   3.364   6.143
22403WAT      O67450   1.741   9.071   7.455
22403WAT     H167451   1.760   9.110   7.365
22403WAT     H267452   1.768   9.136   7.526
22404WAT      O67453   6.844   0.248   2.755
22404WAT     H167454   6.941   0.227   2.770
22404WAT     H267455   6.796   0.163   2.732
22405WAT      O67456   6.937   6.677   7.691
22405WAT     H167457   6.860   6.715   7.742
22405WAT     H267458   6.966   6.591   7.732
22406WAT      O67459   0.082   4.287   8.216
22406WAT     H167460   0.156   4.248   8.270
22406WAT     H267461   0.091   4.386   8.213
22407WAT      O67462   8.159   9.816   1.133
22407WAT     H167463   8.097   9.755   1.084
22407WAT     H267464   8.131   9.911   1.118
22408WAT      O67465   4.491   4.187   4.145
22408WAT     H167466   4.469   4.285   4.150
22408WAT     H267467   4.432   4.137   4.208
22409WAT      O67468   8.485   9.739   9.505
22409WAT     H167469   8.392   9.705   9.515
22409WAT     H267470   8.529   9.743   9.594
22410WAT      O67471   6.033   3.110   0.121
22410WAT     H167472   6.107   3.059   0.078
22410WAT     H267473   6.062   3.205   0.137
22411WAT      O67474   5.777   2.846   6.655
22411WAT     H167475   5.690   2.813   6.619
22411WAT     H267476   5.838   2.868   6.579
22412WAT      O67477   8.653   0.536   5.635
22412WAT     H167478   8.554   0.530   5.647
22412WAT     H267479   8.692   0.443   5.631
22413WAT      O67480   7.254   4.316   5.665
22413WAT     H167481   7.264   4.220   5.692
22413WAT     H267482   7.162   4.348   5.687
22414WAT      O67483   3.322   9.781   2.890
22414WAT     H167484   3.274   9.860   2.851
22414WAT     H267485   3.265   9.738   2.959
22415WAT      O67486   0.753   1.200   1.364
22415WAT     H167487   0.784   1.273   1.303
22415WAT     H267488   0.723   1.240   1.450
22416WAT      O67489   1.668   0.814   9.264
22416WAT     H167490   1.728   0.882   9.307
22416WAT     H267491   1.692   0.723   9.296
22417WAT      O67492   9.315   7.235   9.143
22417WAT     H167493   9.412   7.211   9.153
22417WAT     H267494   9.301   7.328   9.177
22418WAT      O67495   4.518   8.942   6.605
22418WAT     H167496   4.419   8.931   6.594
22418WAT     H267497   4.536   9.028   6.652
22419WAT      O67498   2.451   1.690   3.611
22419WAT     H167499   2.450   1.752   3.532
22419WAT     H267500   2.504   1.608   3.587
22420WAT      O67501   3.955   2.814   5.013
22420WAT     H167502   3.938   2.894   5.070
22420WAT     H267503   3.910   2.734   5.054
22421WAT      O67504   0.555   3.824   5.225
22421WAT     H167505   0.560   3.887   5.148
22421WAT     H267506   0.484   3.755   5.208
22422WAT      O67507   1.445   2.024   1.784
22422WAT     H167508   1.520   1.960   1.769
22422WAT     H267509   1.362   1.973   1.806
22423WAT      O67510   6.243   5.036   9.566
22423WAT     H167511   6.203   4.946   9.547
22423WAT     H267512   6.226   5.060   9.661
22424WAT      O67513   7.967   9.324   5.575
22424WAT     H167514   8.065   9.317   5.594
22424WAT     H267515   7.953   9.367   5.486
22425WAT      O67516   0.470   8.586   9.279
22425WAT     H167517   0.408   8.645   9.227
22425WAT     H267518   0.543   8.554   9.219
22426WAT      O67519   3.149   4.822   9.558
22426WAT     H167520   3.150   4.812   9.458
22426WAT     H267521   3.158   4.732   9.600
22427WAT      O67522   4.286   1.447   5.849
22427WAT     H167523   4.227   1.427   5.770
22427WAT     H267524   4.295   1.546   5.860
22428WAT      O67525   2.851   1.289   7.968
22428WAT     H167526   2.949   1.298   7.982
22428WAT     H267527   2.826   1.192   7.963
22429WAT      O67528   8.738   5.798   7.343
22429WAT     H167529   8.691   5.745   7.414
22429WAT     H267530   8.821   5.749   7.314
22430WAT      O67531   6.469   3.895   0.203
22430WAT     H167532   6.398   3.846   0.152
22430WAT     H267533   6.438   3.988   0.222
22431WAT      O67534   4.971   0.707   7.865
22431WAT     H167535   5.028   0.738   7.788
22431WAT     H267536   4.977   0.608   7.873
22432WAT      O67537   6.799   9.682   2.857
22432WAT     H167538   6.795   9.725   2.947
22432WAT     H267539   6.769   9.747   2.787
22433WAT      O67540   8.442   1.757   7.465
22433WAT     H167541   8.501   1.701   7.523
22433WAT     H267542   8.365   1.791   7.519
22434WAT      O67543   3.495   1.044   1.358
22434WAT     H167544   3.468   1.027   1.453
22434WAT     H267545   3.413   1.053   1.301
22435WAT      O67546   6.983   6.725   4.517
22435WAT     H167547   6.940   6.635   4.524
22435WAT     H267548   7.071   6.717   4.472
22436WAT      O67549   7.142   5.911   8.489
22436WAT     H167550   7.090   5.991   8.520
22436WAT     H267551   7.232   5.911   8.531
22437WAT      O67552   3.121   3.426   2.992
22437WAT     H167553   3.198   3.365   2.972
22437WAT     H267554   3.042   3.400   2.937
22438WAT      O67555   5.714   8.298   9.815
22438WAT     H167556   5.769   8.354   9.753
22438WAT     H267557   5.622   8.287   9.777
22439WAT      O67558   5.026   6.162   8.796
22439WAT     H167559   4.989   6.254   8.804
22439WAT     H267560   5.125   6.164   8.814
22440WAT      O67561   7.007   5.007   2.038
22440WAT     H167562   7.073   5.082   2.029
22440WAT     H267563   6.956   5.017   2.123
22441WAT      O67564   1.621   8.132   1.889
22441WAT     H167565   1.672   8.137   1.975
22441WAT     H267566   1.535   8.182   1.898
22442WAT      O67567   4.182   1.785   1.621
22442WAT     H167568   4.209   1.820   1.531
22442WAT     H267569   4.235   1.831   1.691
22443WAT      O67570   1.514   0.448   5.296
22443WAT     H167571   1.445   0.500   5.346
22443WAT     H267572   1.472   0.366   5.257
22444WAT      O67573   2.935   6.072   4.600
22444WAT     H167574   2.856   6.021   4.632
22444WAT     H267575   2.907   6.165   4.577
22445WAT      O67576   3.903   5.691   0.382
22445WAT     H167577   3.856   5.606   0.356
22445WAT     H267578   4.001   5.682   0.363
22446WAT      O67579   0.193   9.052   1.233
22446WAT     H167580   0.236   9.076   1.320
22446WAT     H267581   0.243   9.094   1.157
22447WAT      O67582   7.670   4.575   6.212
22447WAT     H167583   7.656   4.570   6.113
22447WAT     H267584   7.591   4.535   6.258
22448WAT      O67585   0.048   3.000   9.398
22448WAT     H167586   0.051   3.080   9.338
22448WAT     H267587   0.013   2.922   9.346
22449WAT      O67588   8.342   5.010   4.684
22449WAT     H167589   8.291   5.091   4.659
22449WAT     H267590   8.291   4.928   4.657
22450WAT      O67591   1.312   9.232   3.168
22450WAT     H167592   1.293   9.150   3.223
22450WAT     H267593   1.307   9.313   3.227
22451WAT      O67594   5.670   8.542   7.081
22451WAT     H167595   5.658   8.456   7.130
22451WAT     H267596   5.619   8.538   6.995
22452WAT      O67597   4.143   2.411   2.283
22452WAT     H167598   4.164   2.324   2.238
22452WAT     H267599   4.061   2.450   2.241
22453WAT      O67600   1.335   8.863   1.023
22453WAT     H167601   1.347   8.918   0.941
22453WAT     H267602   1.301   8.921   1.097
22454WAT      O67603   0.135   2.179   0.954
22454WAT     H167604   0.131   2.239   1.034
22454WAT     H267605   0.120   2.084   0.984
22455WAT      O67606   8.074   8.406   5.353
22455WAT     H167607   8.129   8.395   5.436
22455WAT     H267608   8.120   8.361   5.277
22456WAT      O67609   2.660   8.802   5.266
22456WAT     H167610   2.648   8.724   5.205
22456WAT     H267611   2.755   8.832   5.265
22457WAT      O67612   1.188   6.226   1.746
22457WAT     H167613   1.219   6.135   1.772
22457WAT     H267614   1.194   6.287   1.826
22458WAT      O67615   9.546   0.467   2.575
22458WAT     H167616   9.506   0.413   2.502
22458WAT     H267617   9.510   0.436   2.663
22459WAT      O67618   0.929   2.061   5.652
22459WAT     H167619   0.912   2.159   5.660
22459WAT     H267620   0.845   2.014   5.624
22460WAT      O67621   8.270   3.660   3.878
22460WAT     H167622   8.328   3.632   3.801
22460WAT     H267623   8.205   3.729   3.847
22461WAT      O67624   5.716   0.023   8.602
22461WAT     H167625   5.669   0.065   8.680
22461WAT     H267626   5.747  -0.068   8.628
22462WAT      O67627   8.596   8.209   7.259
22462WAT     H167628   8.576   8.119   7.296
22462WAT     H267629   8.553   8.218   7.169
22463WAT      O67630   0.452   3.055   7.350
22463WAT     H167631   0.525   3.072   7.284
22463WAT     H267632   0.476   2.977   7.408
22464WAT      O67633   1.892   3.632   1.324
22464WAT     H167634   1.960   3.586   1.267
22464WAT     H267635   1.863   3.717   1.279
22465WAT      O67636   5.138   9.338   3.507
22465WAT     H167637   5.154   9.313   3.412
22465WAT     H267638   5.102   9.259   3.557
22466WAT      O67639   8.888   2.486   2.048
22466WAT     H167640   8.839   2.536   2.120
22466WAT     H267641   8.913   2.549   1.975
22467WAT      O67642   5.039   2.612   7.029
22467WAT     H167643   5.111   2.553   6.993
22467WAT     H267644   4.964   2.555   7.063
22468WAT      O67645   9.034   5.736   0.748
22468WAT     H167646   9.055   5.677   0.670
22468WAT     H267647   8.981   5.684   0.815
22469WAT      O67648   2.446   2.225   4.459
22469WAT     H167649   2.545   2.240   4.451
22469WAT     H267650   2.405   2.301   4.510
22470WAT      O67651   3.727   0.219   5.865
22470WAT     H167652   3.802   0.237   5.928
22470WAT     H267653   3.728   0.287   5.792
22471WAT      O67654   3.597   7.341   4.030
22471WAT     H167655   3.521   7.383   4.080
22471WAT     H267656   3.561   7.286   3.954
22472WAT      O67657   7.932   4.007   7.794
22472WAT     H167658   7.854   3.994   7.855
22472WAT     H267659   8.013   4.031   7.848
22473WAT      O67660   2.286   0.130   1.607
22473WAT     H167661   2.207   0.189   1.625
22473WAT     H267662   2.369   0.176   1.637
22474WAT      O67663   0.229   9.797   1.052
22474WAT     H167664   0.143   9.847   1.062
22474WAT     H267665   0.303   9.861   1.034
22475WAT      O67666   0.213   0.082   6.345
22475WAT     H167667   0.150   0.006   6.328
22475WAT     H267668   0.228   0.132   6.260
22476WAT      O67669   8.177   9.509   7.062
22476WAT     H167670   8.201   9.437   7.127
22476WAT     H267671   8.161   9.595   7.110
22477WAT      O67672   5.917   3.270   8.348
22477WAT     H167673   5.944   3.179   8.318
22477WAT     H267674   5.833   3.264   8.401
22478WAT      O67675   8.419   9.350   0.849
22478WAT     H167676   8.475   9.361   0.767
22478WAT     H267677   8.459   9.279   0.907
22479WAT      O67678   1.924   0.828   0.121
22479WAT     H167679   1.831   0.844   0.155
22479WAT     H267680   1.920   0.771   0.039
22480WAT      O67681   0.281   2.256   0.219
22480WAT     H167682   0.294   2.268   0.121
22480WAT     H267683   0.227   2.173   0.235
22481WAT      O67684   2.309   5.942   5.035
22481WAT     H167685   2.342   5.994   5.114
22481WAT     H267686   2.322   5.844   5.051
22482WAT      O67687   1.849   6.470   9.448
22482WAT     H167688   1.756   6.436   9.435
22482WAT     H267689   1.905   6.399   9.491
22483WAT      O67690   7.844   8.878   0.757
22483WAT     H167691   7.795   8.791   0.752
22483WAT     H267692   7.824   8.922   0.845
22484WAT      O67693   4.152   5.577   1.368
22484WAT     H167694   4.224   5.528   1.416
22484WAT     H267695   4.070   5.580   1.425
22485WAT      O67696   7.995   9.608   0.977
22485WAT     H167697   7.915   9.655   0.939
22485WAT     H267698   8.055   9.579   0.902
22486WAT      O67699   8.693   4.309   8.443
22486WAT     H167700   8.775   4.344   8.487
22486WAT     H267701   8.669   4.367   8.365
22487WAT      O67702   2.289   4.595   9.855
22487WAT     H167703   2.288   4.693   9.874
22487WAT     H267704   2.199   4.566   9.824
22488WAT      O67705   0.242   9.091   6.425
22488WAT     H167706   0.278   9.026   6.493
22488WAT     H267707   0.142   9.090   6.428
22489WAT      O67708   1.389   5.050   0.025
22489WAT     H167709   1.394   5.029  -0.072
22489WAT     H267710   1.471   5.101   0.053
22490WAT      O67711   7.610   2.911   9.444
22490WAT     H167712   7.619   2.977   9.518
22490WAT     H267713   7.612   2.818   9.480
22491WAT      O67714   3.748   3.361   1.344
22491WAT     H167715   3.743   3.362   1.244
22491WAT     H267716   3.844   3.349   1.372
22492WAT      O67717   7.239   8.753   6.774
22492WAT     H167718   7.235   8.845   6.737
22492WAT     H267719   7.157   8.735   6.828
22493WAT      O67720   5.771   1.388   9.734
22493WAT     H167721   5.868   1.365   9.742
22493WAT     H267722   5.742   1.438   9.816
22494WAT      O67723   8.973   0.151   2.718
22494WAT     H167724   9.064   0.178   2.751
22494WAT     H267725   8.962   0.052   2.728
22495WAT      O67726   9.199   4.136   8.526
22495WAT     H167727   9.192   4.218   8.469
22495WAT     H267728   9.291   4.130   8.565
22496WAT      O67729   0.534   1.369   3.976
22496WAT     H167730   0.578   1.445   3.928
22496WAT     H267731   0.595   1.335   4.047
22497WAT      O67732   8.410   2.970   7.738
22497WAT     H167733   8.343   3.044   7.729
22497WAT     H267734   8.469   2.970   7.657
22498WAT      O67735   4.612   4.047   0.944
22498WAT     H167736   4.538   4.005   0.890
22498WAT     H267737   4.684   4.078   0.883
22499WAT      O67738   0.805   5.066   9.526
22499WAT     H167739   0.890   5.059   9.474
22499WAT     H267740   0.790   5.161   9.552
22500WAT      O67741   8.445   3.789   5.724
22500WAT     H167742   8.378   3.751   5.659
22500WAT     H267743   8.537   3.773   5.690
22501WAT      O67744   6.330   6.139   1.000
22501WAT     H167745   6.357   6.123   0.905
22501WAT     H267746   6.247   6.088   1.020
22502WAT      O67747   1.903   0.552   7.577
22502WAT     H167748   1.848   0.527   7.497
22502WAT     H267749   1.981   0.490   7.584
22503WAT      O67750   2.058   6.947   5.233
22503WAT     H167751   1.959   6.961   5.230
22503WAT     H267752   2.079   6.867   5.289
22504WAT      O67753   6.697   1.216   8.241
22504WAT     H167754   6.749   1.302   8.239
22504WAT     H267755   6.602   1.236   8.267
22505WAT      O67756   4.468   6.347   3.491
22505WAT     H167757   4.516   6.398   3.420
22505WAT     H267758   4.439   6.259   3.454
22506WAT      O67759   5.434   3.636   7.985
22506WAT     H167760   5.492   3.717   7.979
22506WAT     H267761   5.347   3.659   8.028
22507WAT      O67762   3.029   7.833   8.644
22507WAT     H167763   3.045   7.895   8.567
22507WAT     H267764   3.041   7.739   8.613
22508WAT      O67765   2.921   6.763   3.480
22508WAT     H167766   2.945   6.782   3.575
22508WAT     H267767   2.821   6.752   3.473
22509WAT      O67768   8.764   3.137   4.595
22509WAT     H167769   8.686   3.193   4.624
22509WAT     H267770   8.752   3.113   4.498
22510WAT      O67771   2.091   8.716   2.245
22510WAT     H167772   2.121   8.747   2.335
22510WAT     H267773   2.140   8.767   2.174
22511WAT      O67774   5.792   0.709   9.041
22511WAT     H167775   5.720   0.648   9.007
22511WAT     H267776   5.830   0.673   9.126
22512WAT      O67777   6.203   5.667   7.404
22512WAT     H167778   6.191   5.716   7.318
22512WAT     H267779   6.179   5.571   7.392
22513WAT      O67780   1.687   6.118   3.429
22513WAT     H167781   1.738   6.108   3.344
22513WAT     H267782   1.627   6.039   3.442
22514WAT      O67783   3.855   6.983   8.853
22514WAT     H167784   3.762   6.997   8.819
22514WAT     H267785   3.852   6.961   8.950
22515WAT      O67786   5.494   1.494   7.824
22515WAT     H167787   5.513   1.532   7.914
22515WAT     H267788   5.399   1.460   7.822
22516WAT      O67789   3.835   1.330   1.907
22516WAT     H167790   3.837   1.401   1.837
22516WAT     H267791   3.918   1.274   1.901
22517WAT      O67792   4.000   2.298   4.875
22517WAT     H167793   3.908   2.258   4.883
22517WAT     H267794   4.059   2.259   4.946
22518WAT      O67795   0.085   7.725   1.353
22518WAT     H167796   0.100   7.644   1.297
22518WAT     H267797   0.100   7.807   1.298
22519WAT      O67798   2.241   3.674   2.713
22519WAT     H167799   2.338   3.696   2.707
22519WAT     H267800   2.226   3.581   2.681
22520WAT      O67801   9.249   1.859   6.491
22520WAT     H167802   9.267   1.775   6.439
22520WAT     H267803   9.317   1.928   6.466
22521WAT      O67804   2.848   5.578   5.153
22521WAT     H167805   2.845   5.479   5.135
22521WAT     H267806   2.901   5.595   5.236
22522WAT      O67807   4.252   8.944   6.621
22522WAT     H167808   4.207   8.887   6.688
22522WAT     H267809   4.226   8.915   6.529
22523WAT      O67810   7.455   7.855   7.115
22523WAT     H167811   7.510   7.939   7.119
22523WAT     H267812   7.403   7.845   7.200
22524WAT      O67813   0.030   1.581   2.567
22524WAT     H167814   0.035   1.532   2.654
22524WAT     H267815  -0.051   1.551   2.517
22525WAT      O67816   7.534   8.416   6.125
22525WAT     H167817   7.605   8.357   6.086
22525WAT     H267818   7.504   8.483   6.057
22526WAT      O67819   7.476   0.304   8.607
22526WAT     H167820   7.472   0.403   8.596
22526WAT     H267821   7.562   0.279   8.653
22527WAT      O67822   6.839   0.234   2.107
22527WAT     H167823   6.811   0.327   2.131
22527WAT     H267824   6.866   0.185   2.190
22528WAT      O67825   1.029   5.258   1.660
22528WAT     H167826   0.990   5.166   1.670
22528WAT     H267827   0.958   5.327   1.670
22529WAT      O67828   6.156   9.205   0.043
22529WAT     H167829   6.105   9.170  -0.036
22529WAT     H267830   6.196   9.294   0.021
22530WAT      O67831   8.869   7.173   3.651
22530WAT     H167832   8.800   7.201   3.585
22530WAT     H267833   8.879   7.244   3.721
22531WAT      O67834   8.110   2.309   2.907
22531WAT     H167835   8.137   2.240   2.974
22531WAT     H267836   8.022   2.349   2.933
22532WAT      O67837   9.591   5.809   1.513
22532WAT     H167838   9.658   5.863   1.564
22532WAT     H267839   9.507   5.801   1.567
22533WAT      O67840   7.448   4.269   6.100
22533WAT     H167841   7.497   4.233   6.021
22533WAT     H267842   7.460   4.207   6.178
22534WAT      O67843   0.183   1.088   3.186
22534WAT     H167844   0.128   1.065   3.105
22534WAT     H267845   0.128   1.143   3.249
22535WAT      O67846   8.895   1.204   2.520
22535WAT     H167847   8.934   1.177   2.432
22535WAT     H267848   8.876   1.302   2.520
22536WAT      O67849   7.613   2.107   6.930
22536WAT     H167850   7.685   2.154   6.982
22536WAT     H267851   7.611   2.010   6.955
22537WAT      O67852   4.784   9.247   0.225
22537WAT     H167853   4.862   9.269   0.284
22537WAT     H267854   4.815   9.190   0.149
22538WAT      O67855   0.431   3.354   6.882
22538WAT     H167856   0.472   3.346   6.791
22538WAT     H267857   0.366   3.430   6.883
22539WAT      O67858   4.303   9.341   0.740
22539WAT     H167859   4.330   9.424   0.692
22539WAT     H267860   4.383   9.300   0.784
22540WAT      O67861   3.454   0.110   5.018
22540WAT     H167862   3.494   0.110   4.927
22540WAT     H267863   3.482   0.193   5.067
22541WAT      O67864   4.033   6.110   2.596
22541WAT     H167865   4.022   6.139   2.691
22541WAT     H267866   3.985   6.023   2.583
22542WAT      O67867   1.571   2.814   8.547
22542WAT     H167868   1.544   2.813   8.643
22542WAT     H267869   1.533   2.895   8.502
22543WAT      O67870   5.344   6.548   8.471
22543WAT     H167871   5.320   6.472   8.532
22543WAT     H267872   5.263   6.576   8.420
22544WAT      O67873   7.448   6.880   9.886
22544WAT     H167874   7.456   6.885   9.986
22544WAT     H267875   7.538   6.892   9.845
22545WAT      O67876   4.078   9.554   4.724
22545WAT     H167877   4.127   9.474   4.758
22545WAT     H267878   4.032   9.531   4.638
22546WAT      O67879   9.700   5.879   2.955
22546WAT     H167880   9.796   5.855   2.971
22546WAT     H267881   9.648   5.795   2.938
22547WAT      O67882   6.827   0.083   4.284
22547WAT     H167883   6.863  -0.007   4.263
22547WAT     H267884   6.890   0.153   4.250
22548WAT      O67885   2.031   5.214   4.160
22548WAT     H167886   2.061   5.278   4.230
22548WAT     H267887   1.969   5.261   4.097
22549WAT      O67888   8.665   6.226   5.006
22549WAT     H167889   8.734   6.164   4.969
22549WAT     H267890   8.633   6.192   5.094
22550WAT      O67891   3.743   7.169   6.501
22550WAT     H167892   3.812   7.190   6.432
22550WAT     H267893   3.742   7.241   6.570
22551WAT      O67894   4.007   7.280   0.318
22551WAT     H167895   3.937   7.327   0.264
22551WAT     H267896   4.054   7.346   0.377
22552WAT      O67897   1.293   2.106   4.922
22552WAT     H167898   1.319   2.050   4.844
22552WAT     H267899   1.371   2.163   4.950
22553WAT      O67900   4.581   5.345   7.109
22553WAT     H167901   4.599   5.247   7.100
22553WAT     H267902   4.665   5.393   7.135
22554WAT      O67903   0.159   8.200   1.276
22554WAT     H167904   0.099   8.280   1.271
22554WAT     H267905   0.230   8.208   1.206
22555WAT      O67906   4.532   9.410   5.448
22555WAT     H167907   4.450   9.377   5.495
22555WAT     H267908   4.515   9.503   5.415
22556WAT      O67909   3.596   9.426   7.494
22556WAT     H167910   3.560   9.345   7.540
22556WAT     H267911   3.564   9.427   7.399
22557WAT      O67912   8.877   1.785   7.704
22557WAT     H167913   8.899   1.692   7.675
22557WAT     H267914   8.876   1.789   7.804
22558WAT      O67915   5.018   2.349   3.523
22558WAT     H167916   4.941   2.406   3.553
22558WAT     H267917   5.016   2.340   3.423
22559WAT      O67918   9.801   1.180   2.406
22559WAT     H167919   9.888   1.136   2.429
22559WAT     H267920   9.754   1.127   2.336
22560WAT      O67921   6.734   6.491   6.338
22560WAT     H167922   6.677   6.459   6.414
22560WAT     H267923   6.686   6.475   6.251
22561WAT      O67924   7.863   8.575   7.300
22561WAT     H167925   7.936   8.556   7.235
22561WAT     H267926   7.887   8.537   7.389
22562WAT      O67927   8.920   2.225   1.018
22562WAT     H167928   8.891   2.242   1.112
22562WAT     H267929   8.922   2.311   0.968
22563WAT      O67930   5.162   5.040   3.684
22563WAT     H167931   5.089   4.999   3.629
22563WAT     H267932   5.250   5.004   3.655
22564WAT      O67933   3.673   3.172   7.606
22564WAT     H167934   3.617   3.158   7.524
22564WAT     H267935   3.616   3.167   7.687
22565WAT      O67936   8.741   9.497   2.406
22565WAT     H167937   8.827   9.547   2.401
22565WAT     H267938   8.748   9.424   2.473
22566WAT      O67939   2.199   4.393   1.001
22566WAT     H167940   2.137   4.422   1.074
22566WAT     H267941   2.254   4.316   1.033
22567WAT      O67942   5.882   8.523   7.337
22567WAT     H167943   5.829   8.479   7.265
22567WAT     H267944   5.959   8.573   7.296
22568WAT      O67945   9.706   3.857   1.738
22568WAT     H167946   9.647   3.937   1.738
22568WAT     H267947   9.686   3.801   1.819
22569WAT      O67948   4.455   2.589   2.665
22569WAT     H167949   4.369   2.607   2.618
22569WAT     H267950   4.443   2.515   2.731
22570WAT      O67951   5.066   1.031   3.703
22570WAT     H167952   5.050   1.090   3.782
22570WAT     H267953   5.110   1.084   3.630
22571WAT      O67954   3.033   3.886   7.133
22571WAT     H167955   2.995   3.962   7.080
22571WAT     H267956   3.077   3.923   7.215
22572WAT      O67957   8.434   0.191   7.799
22572WAT     H167958   8.529   0.199   7.768
22572WAT     H267959   8.376   0.251   7.744
22573WAT      O67960   5.944   7.286   2.900
22573WAT     H167961   5.889   7.212   2.862
22573WAT     H267962   5.903   7.374   2.876
22574WAT      O67963   0.896   5.359   0.675
22574WAT     H167964   0.944   5.273   0.694
22574WAT     H267965   0.963   5.432   0.660
22575WAT      O67966   8.511   2.310   4.334
22575WAT     H167967   8.594   2.365   4.328
22575WAT     H267968   8.532   2.221   4.373
22576WAT      O67969   5.278   8.379   2.111
22576WAT     H167970   5.317   8.320   2.040
22576WAT     H267971   5.273   8.473   2.077
22577WAT      O67972   7.976   0.231   7.433
22577WAT     H167973   8.047   0.290   7.393
22577WAT     H267974   7.971   0.248   7.531
22578WAT      O67975   2.718   9.290   6.369
22578WAT     H167976   2.811   9.315   6.340
22578WAT     H267977   2.653   9.313   6.298
22579WAT      O67978   8.856   1.808   7.996
22579WAT     H167979   8.836   1.900   8.029
22579WAT     H267980   8.945   1.778   8.030
22580WAT      O67981   4.743   6.079   7.097
22580WAT     H167982   4.662   6.031   7.063
22580WAT     H267983   4.744   6.172   7.061
22581WAT      O67984   0.880   2.845   9.019
22581WAT     H167985   0.825   2.830   9.102
22581WAT     H267986   0.945   2.770   9.009
22582WAT      O67987   3.512   1.914   9.172
22582WAT     H167988   3.577   1.952   9.107
22582WAT     H267989   3.559   1.849   9.232
22583WAT      O67990   2.312   5.076   9.661
22583WAT     H167991   2.343   5.164   9.697
22583WAT     H267992   2.301   5.011   9.736
22584WAT      O67993   3.218   8.491   1.195
22584WAT     H167994   3.197   8.493   1.097
22584WAT     H267995   3.294   8.427   1.212
22585WAT      O67996   8.466   4.332   2.872
22585WAT     H167997   8.369   4.328   2.896
22585WAT     H267998   8.514   4.388   2.940
22586WAT      O67999   4.810   8.086   0.654
22586WAT     H168000   4.878   8.145   0.698
22586WAT     H268001   4.756   8.140   0.589
22587WAT      O68002   2.201   4.017   8.566
22587WAT     H168003   2.184   4.003   8.664
22587WAT     H268004   2.135   3.966   8.513
22588WAT      O68005   0.226   7.569   6.274
22588WAT     H168006   0.128   7.552   6.273
22588WAT     H268007   0.244   7.663   6.247
22589WAT      O68008   1.474   1.374   6.240
22589WAT     H168009   1.550   1.403   6.299
22589WAT     H268010   1.388   1.393   6.287
22590WAT      O68011   0.801   6.956   9.324
22590WAT     H168012   0.827   6.906   9.241
22590WAT     H268013   0.708   6.992   9.313
22591WAT      O68014   8.841   0.354   5.205
22591WAT     H168015   8.868   0.300   5.285
22591WAT     H268016   8.768   0.417   5.232
22592WAT      O68017   7.964   4.391   1.392
22592WAT     H168018   7.990   4.478   1.351
22592WAT     H268019   8.044   4.346   1.430
22593WAT      O68020   2.828   4.991   6.273
22593WAT     H168021   2.798   5.032   6.359
22593WAT     H268022   2.755   4.997   6.205
22594WAT      O68023   6.721   9.287   0.745
22594WAT     H168024   6.817   9.289   0.719
22594WAT     H268025   6.696   9.375   0.785
22595WAT      O68026   4.453   8.327   0.807
22595WAT     H168027   4.486   8.293   0.895
22595WAT     H268028   4.359   8.358   0.816
22596WAT      O68029   2.691   8.935   5.931
22596WAT     H168030   2.606   8.972   5.969
22596WAT     H268031   2.702   8.840   5.961
22597WAT      O68032   4.796   0.842   4.261
22597WAT     H168033   4.861   0.847   4.337
22597WAT     H268034   4.811   0.757   4.210
22598WAT      O68035   5.368   8.176   6.083
22598WAT     H168036   5.375   8.267   6.126
22598WAT     H268037   5.313   8.116   6.142
22599WAT      O68038   3.386   6.822   6.874
22599WAT     H168039   3.407   6.915   6.846
22599WAT     H268040   3.466   6.763   6.857
22600WAT      O68041   2.963   1.955   6.528
22600WAT     H168042   2.892   2.011   6.484
22600WAT     H268043   2.956   1.965   6.627
22601WAT      O68044   6.245   9.551   7.360
22601WAT     H168045   6.325   9.553   7.300
22601WAT     H268046   6.186   9.475   7.334
22602WAT      O68047   7.717   0.020   5.205
22602WAT     H168048   7.620   0.011   5.230
22602WAT     H268049   7.726   0.086   5.131
22603WAT      O68050   7.299   8.054   7.843
22603WAT     H168051   7.310   7.955   7.830
22603WAT     H268052   7.378   8.090   7.892
22604WAT      O68053   2.964   2.333   9.250
22604WAT     H168054   3.018   2.413   9.277
22604WAT     H268055   3.019   2.250   9.261
22605WAT      O68056   6.689   0.472   0.113
22605WAT     H168057   6.688   0.571   0.126
22605WAT     H268058   6.780   0.443   0.085
22606WAT      O68059   3.905   5.825   8.022
22606WAT     H168060   3.997   5.857   8.044
22606WAT     H268061   3.868   5.878   7.945
22607WAT      O68062   7.675   1.796   0.065
22607WAT     H168063   7.749   1.745   0.022
22607WAT     H268064   7.702   1.822   0.157
22608WAT      O68065   9.323   1.022   6.058
22608WAT     H168066   9.362   0.991   5.972
22608WAT     H268067   9.392   1.074   6.109
22609WAT      O68068   4.333   7.194   5.666
22609WAT     H168069   4.350   7.290   5.689
22609WAT     H268070   4.275   7.190   5.585
22610WAT      O68071   4.879   9.653   8.808
22610WAT     H168072   4.959   9.596   8.827
22610WAT     H268073   4.895   9.707   8.726
22611WAT      O68074   2.365   9.333   9.444
22611WAT     H168075   2.331   9.307   9.354
22611WAT     H268076   2.290   9.333   9.510
22612WAT      O68077   9.060   6.186   7.338
22612WAT     H168078   9.037   6.128   7.260
22612WAT     H268079   9.092   6.275   7.305
22613WAT      O68080   1.066   9.321   6.690
22613WAT     H168081   1.122   9.306   6.772
22613WAT     H268082   1.125   9.338   6.612
22614WAT      O68083   4.755   0.348   4.934
22614WAT     H168084   4.819   0.311   5.001
22614WAT     H268085   4.793   0.339   4.842
22615WAT      O68086   3.014   3.745   9.675
22615WAT     H168087   2.956   3.663   9.671
22615WAT     H268088   3.042   3.762   9.770
22616WAT      O68089   1.669   1.245   3.709
22616WAT     H168090   1.725   1.306   3.765
22616WAT     H268091   1.712   1.234   3.619
22617WAT      O68092   6.158   5.228   5.099
22617WAT     H168093   6.217   5.166   5.151
22617WAT     H268094   6.203   5.316   5.088
22618WAT      O68095   8.848   2.944   2.994
22618WAT     H168096   8.820   2.972   3.086
22618WAT     H268097   8.851   3.025   2.935
22619WAT      O68098   1.393   6.315   3.149
22619WAT     H168099   1.486   6.296   3.119
22619WAT     H268100   1.368   6.253   3.224
22620WAT      O68101   6.252   5.400   4.258
22620WAT     H168102   6.309   5.481   4.251
22620WAT     H268103   6.298   5.322   4.216
22621WAT      O68104   6.844   5.425   5.739
22621WAT     H168105   6.860   5.328   5.721
22621WAT     H268106   6.756   5.452   5.701
22622WAT      O68107   2.492   8.152   8.225
22622WAT     H168108   2.499   8.076   8.161
22622WAT     H268109   2.574   8.157   8.282
22623WAT      O68110   5.481   5.665   0.725
22623WAT     H168111   5.535   5.630   0.801
22623WAT     H268112   5.384   5.644   0.740
22624WAT      O68113   2.376   9.509   3.602
22624WAT     H168114   2.335   9.418   3.595
22624WAT     H268115   2.447   9.508   3.673
22625WAT      O68116   0.785   9.785   9.771
22625WAT     H168117   0.810   9.692   9.795
22625WAT     H268118   0.709   9.816   9.828
22626WAT      O68119   6.609   0.650   7.421
22626WAT     H168120   6.644   0.678   7.331
22626WAT     H268121   6.509   0.653   7.420
22627WAT      O68122   5.650   1.850   7.791
22627WAT     H168123   5.646   1.770   7.731
22627WAT     H268124   5.700   1.924   7.744
22628WAT      O68125   2.552   0.490   4.710
22628WAT     H168126   2.475   0.473   4.772
22628WAT     H268127   2.635   0.504   4.764
22629WAT      O68128   4.527   0.928   9.835
22629WAT     H168129   4.609   0.871   9.838
22629WAT     H268130   4.446   0.870   9.826
22630WAT      O68131   8.472   2.764   4.061
22630WAT     H168132   8.559   2.727   4.094
22630WAT     H268133   8.426   2.695   4.005
22631WAT      O68134   5.798   1.368   7.223
22631WAT     H168135   5.747   1.377   7.137
22631WAT     H268136   5.766   1.289   7.273
22632WAT      O68137   6.754   7.705   3.226
22632WAT     H168138   6.714   7.658   3.148
22632WAT     H268139   6.851   7.723   3.209
22633WAT      O68140   5.787   7.505   8.382
22633WAT     H168141   5.818   7.410   8.381
22633WAT     H268142   5.863   7.565   8.356
22634WAT      O68143   2.134   3.471   1.338
22634WAT     H168144   2.224   3.470   1.295
22634WAT     H268145   2.104   3.377   1.356
22635WAT      O68146   7.648   6.194   8.053
22635WAT     H168147   7.742   6.201   8.087
22635WAT     H268148   7.647   6.139   7.969
22636WAT      O68149   6.625   0.477   5.456
22636WAT     H168150   6.570   0.395   5.469
22636WAT     H268151   6.695   0.481   5.527
22637WAT      O68152   8.103   7.216   8.221
22637WAT     H168153   8.077   7.159   8.299
22637WAT     H268154   8.160   7.292   8.254
22638WAT      O68155   6.746   2.929   1.286
22638WAT     H168156   6.821   2.884   1.237
22638WAT     H268157   6.690   2.860   1.332
22639WAT      O68158   7.331   5.371   8.028
22639WAT     H168159   7.362   5.283   8.063
22639WAT     H268160   7.266   5.357   7.953
22640WAT      O68161   8.001   4.195   3.277
22640WAT     H168162   7.923   4.186   3.340
22640WAT     H268163   7.982   4.269   3.212
22641WAT      O68164   3.905   9.282   7.440
22641WAT     H168165   3.917   9.195   7.487
22641WAT     H268166   3.991   9.334   7.443
22642WAT      O68167   5.363   9.512   3.824
22642WAT     H168168   5.305   9.554   3.755
22642WAT     H268169   5.420   9.582   3.868
22643WAT      O68170   9.149   6.686   9.763
22643WAT     H168171   9.090   6.678   9.683
22643WAT     H268172   9.202   6.770   9.758
22644WAT      O68173   5.983   4.916   0.601
22644WAT     H168174   6.026   5.005   0.608
22644WAT     H268175   6.053   4.845   0.593
22645WAT      O68176   7.527   2.387   5.661
22645WAT     H168177   7.506   2.428   5.572
22645WAT     H268178   7.449   2.397   5.721
22646WAT      O68179   5.463   8.192   7.096
22646WAT     H168180   5.373   8.173   7.137
22646WAT     H268181   5.451   8.253   7.018
22647WAT      O68182   3.095   0.460   6.573
22647WAT     H168183   3.014   0.502   6.534
22647WAT     H268184   3.171   0.525   6.571
22648WAT      O68185   4.981   8.003   3.196
22648WAT     H168186   5.015   8.021   3.104
22648WAT     H268187   5.054   7.966   3.253
22649WAT      O68188   2.224   8.505   7.340
22649WAT     H168189   2.288   8.544   7.274
22649WAT     H268190   2.191   8.417   7.306
22650WAT      O68191   4.140   6.444   9.102
22650WAT     H168192   4.049   6.403   9.093
22650WAT     H268193   4.201   6.407   9.032
22651WAT      O68194   5.520   3.849   1.319
22651WAT     H168195   5.582   3.804   1.384
22651WAT     H268196   5.500   3.786   1.244
22652WAT      O68197   6.026   2.524   5.111
22652WAT     H168198   6.120   2.545   5.081
22652WAT     H268199   5.993   2.444   5.060
22653WAT      O68200   6.668   1.772   7.642
22653WAT     H168201   6.733   1.840   7.678
22653WAT     H268202   6.699   1.740   7.553
22654WAT      O68203   4.651   0.622   7.050
22654WAT     H168204   4.577   0.638   7.117
22654WAT     H268205   4.654   0.699   6.986
22655WAT      O68206   6.823   6.415   5.220
22655WAT     H168207   6.746   6.401   5.158
22655WAT     H268208   6.846   6.328   5.265
22656WAT      O68209   3.183   9.596   9.347
22656WAT     H168210   3.254   9.662   9.370
22656WAT     H268211   3.164   9.538   9.426
22657WAT      O68212   6.674   6.004   8.224
22657WAT     H168213   6.639   5.969   8.310
22657WAT     H268214   6.639   6.097   8.209
22658WAT      O68215   7.333   4.672   2.310
22658WAT     H168216   7.271   4.677   2.232
22658WAT     H268217   7.280   4.671   2.395
22659WAT      O68218   3.329   6.761   4.320
22659WAT     H168219   3.247   6.720   4.359
22659WAT     H268220   3.358   6.839   4.376
22660WAT      O68221   2.249   7.908   2.535
22660WAT     H168222   2.290   7.817   2.545
22660WAT     H268223   2.161   7.900   2.489
22661WAT      O68224   0.322   3.610   8.814
22661WAT     H168225   0.260   3.659   8.876
22661WAT     H268226   0.339   3.518   8.850
22662WAT      O68227   2.763   3.360   0.912
22662WAT     H168228   2.675   3.355   0.959
22662WAT     H268229   2.834   3.383   0.979
22663WAT      O68230   9.341   7.442   9.675
22663WAT     H168231   9.397   7.465   9.595
22663WAT     H268232   9.401   7.417   9.751
22664WAT      O68233   7.163   1.672   7.049
22664WAT     H168234   7.174   1.703   6.954
22664WAT     H268235   7.174   1.573   7.053
22665WAT      O68236   6.883   1.355   4.680
22665WAT     H168237   6.840   1.414   4.611
22665WAT     H268238   6.877   1.398   4.770
22666WAT      O68239   0.778   0.935   8.724
22666WAT     H168240   0.850   0.997   8.693
22666WAT     H268241   0.789   0.918   8.823
22667WAT      O68242   7.493   2.651   0.339
22667WAT     H168243   7.408   2.640   0.287
22667WAT     H268244   7.527   2.560   0.365
22668WAT      O68245   8.006   9.160   7.720
22668WAT     H168246   8.072   9.118   7.782
22668WAT     H268247   7.914   9.134   7.747
22669WAT      O68248   5.642   5.930   6.687
22669WAT     H168249   5.577   6.003   6.708
22669WAT     H268250   5.634   5.857   6.754
22670WAT      O68251   6.490   8.130   9.409
22670WAT     H168252   6.395   8.102   9.418
22670WAT     H268253   6.550   8.059   9.445
22671WAT      O68254   3.134   4.811   4.592
22671WAT     H168255   3.176   4.893   4.631
22671WAT     H268256   3.108   4.828   4.498
22672WAT      O68257   1.958   7.050   2.307
22672WAT     H168258   1.957   6.971   2.368
22672WAT     H268259   1.875   7.104   2.319
22673WAT      O68260   5.103   5.074   3.352
22673WAT     H168261   5.199   5.099   3.365
22673WAT     H268262   5.097   4.978   3.326
22674WAT      O68263   6.173   8.267   6.262
22674WAT     H168264   6.120   8.248   6.180
22674WAT     H268265   6.249   8.329   6.240
22675WAT      O68266   1.310   1.310   0.499
22675WAT     H168267   1.256   1.394   0.494
22675WAT     H268268   1.400   1.330   0.537
22676WAT      O68269   1.287   8.448   9.677
22676WAT     H168270   1.228   8.412   9.605
22676WAT     H268271   1.375   8.477   9.637
22677WAT      O68272   3.849   0.048   0.101
22677WAT     H168273   3.789  -0.014   0.153
22677WAT     H268274   3.935   0.060   0.150
22678WAT      O68275   2.804   3.725   5.416
22678WAT     H168276   2.841   3.805   5.369
22678WAT     H268277   2.706   3.718   5.398
22679WAT      O68278   6.757   1.858   6.208
22679WAT     H168279   6.838   1.909   6.236
22679WAT     H268280   6.685   1.871   6.276
22680WAT      O68281   2.606   1.897   7.957
22680WAT     H168282   2.617   1.995   7.943
22680WAT     H268283   2.564   1.880   8.047
22681WAT      O68284   9.238   3.465   9.096
22681WAT     H168285   9.244   3.385   9.036
22681WAT     H268286   9.171   3.447   9.168
22682WAT      O68287   3.331   4.351   4.780
22682WAT     H168288   3.399   4.424   4.777
22682WAT     H268289   3.343   4.291   4.701
22683WAT      O68290   3.323   7.966   0.619
22683WAT     H168291   3.255   7.952   0.547
22683WAT     H268292   3.391   8.032   0.588
22684WAT      O68293   4.390   8.445   7.357
22684WAT     H168294   4.473   8.475   7.311
22684WAT     H268295   4.312   8.500   7.327
22685WAT      O68296   2.725   7.992   4.626
22685WAT     H168297   2.745   7.986   4.724
22685WAT     H268298   2.793   8.049   4.581
22686WAT      O68299   9.802   8.497   8.360
22686WAT     H168300   9.758   8.458   8.280
22686WAT     H268301   9.894   8.529   8.335
22687WAT      O68302   5.872   4.272   4.188
22687WAT     H168303   5.963   4.259   4.149
22687WAT     H268304   5.868   4.232   4.279
22688WAT      O68305   1.266   3.037   7.572
22688WAT     H168306   1.231   3.125   7.540
22688WAT     H268307   1.233   3.020   7.665
22689WAT      O68308   1.086   5.206   7.465
22689WAT     H168309   1.089   5.112   7.498
22689WAT     H268310   1.023   5.259   7.521
22690WAT      O68311   7.021   0.109   9.229
22690WAT     H168312   7.110   0.134   9.268
22690WAT     H268313   6.949   0.156   9.279
22691WAT      O68314   6.150   4.440   7.269
22691WAT     H168315   6.199   4.438   7.182
22691WAT     H268316   6.077   4.507   7.266
22692WAT      O68317   6.295   6.569   4.937
22692WAT     H168318   6.313   6.510   4.858
22692WAT     H268319   6.205   6.549   4.974
22693WAT      O68320   0.324   9.485   6.074
22693WAT     H168321   0.378   9.423   6.015
22693WAT     H268322   0.316   9.445   6.165
22694WAT      O68323   6.969   0.318   5.404
22694WAT     H168324   7.028   0.248   5.363
22694WAT     H268325   6.995   0.408   5.367
22695WAT      O68326   6.660   5.333   6.237
22695WAT     H168327   6.645   5.337   6.336
22695WAT     H268328   6.572   5.322   6.191
22696WAT      O68329   7.740   0.566   0.360
22696WAT     H168330   7.712   0.509   0.283
22696WAT     H268331   7.752   0.509   0.441
22697WAT      O68332   0.851   4.945   3.515
22697WAT     H168333   0.846   4.960   3.417
22697WAT     H268334   0.922   5.004   3.555
22698WAT      O68335   4.784   7.848   8.330
22698WAT     H168336   4.851   7.876   8.398
22698WAT     H268337   4.831   7.808   8.251
22699WAT      O68338   3.835   7.936   0.315
22699WAT     H168339   3.863   7.841   0.331
22699WAT     H268340   3.905   7.998   0.350
22700WAT      O68341   4.900   0.475   8.167
22700WAT     H168342   4.970   0.545   8.166
22700WAT     H268343   4.837   0.492   8.243
22701WAT      O68344   9.367   0.117   8.013
22701WAT     H168345   9.438   0.051   8.037
22701WAT     H268346   9.361   0.188   8.083
22702WAT      O68347   4.308   7.835   8.659
22702WAT     H168348   4.233   7.853   8.596
22702WAT     H268349   4.317   7.912   8.722
22703WAT      O68350   4.226   9.262   8.319
22703WAT     H168351   4.206   9.165   8.310
22703WAT     H268352   4.313   9.274   8.367
22704WAT      O68353   2.870   2.743   6.713
22704WAT     H168354   2.867   2.711   6.619
22704WAT     H268355   2.952   2.708   6.758
22705WAT      O68356   6.221   0.713   5.861
22705WAT     H168357   6.126   0.699   5.833
22705WAT     H268358   6.282   0.667   5.797
22706WAT      O68359   7.641   3.833   1.438
22706WAT     H168360   7.715   3.786   1.390
22706WAT     H268361   7.617   3.916   1.388
22707WAT      O68362   0.537   8.654   9.533
22707WAT     H168363   0.451   8.667   9.584
22707WAT     H268364   0.516   8.626   9.440
22708WAT      O68365   4.583   1.188   8.529
22708WAT     H168366   4.496   1.221   8.564
22708WAT     H268367   4.637   1.149   8.604
22709WAT      O68368   7.588   3.292   4.648
22709WAT     H168369   7.533   3.213   4.620
22709WAT     H268370   7.535   3.347   4.713
22710WAT      O68371   2.211   2.825   6.296
22710WAT     H168372   2.214   2.800   6.199
22710WAT     H268373   2.164   2.755   6.348
22711WAT      O68374   1.477   4.844   3.300
22711WAT     H168375   1.396   4.890   3.266
22711WAT     H268376   1.538   4.910   3.343
22712WAT      O68377   2.471   2.403   9.135
22712WAT     H168378   2.445   2.395   9.038
22712WAT     H268379   2.559   2.359   9.150
22713WAT      O68380   8.745   4.032   8.797
22713WAT     H168381   8.835   4.064   8.766
22713WAT     H268382   8.744   3.932   8.800
22714WAT      O68383   3.617   4.171   4.990
22714WAT     H168384   3.550   4.201   5.058
22714WAT     H268385   3.681   4.245   4.970
22715WAT      O68386   3.141   3.015   8.396
22715WAT     H168387   3.181   3.097   8.437
22715WAT     H268388   3.190   2.934   8.429
22716WAT      O68389   5.966   8.371   4.986
22716WAT     H168390   5.984   8.402   4.893
22716WAT     H268391   5.977   8.448   5.050
22717WAT      O68392   1.755   4.842   5.090
22717WAT     H168393   1.709   4.912   5.144
22717WAT     H268394   1.814   4.886   5.022
22718WAT      O68395   7.921   1.457   8.204
22718WAT     H168396   7.919   1.545   8.155
22718WAT     H268397   7.833   1.441   8.249
22719WAT      O68398   5.476   3.695   4.791
22719WAT     H168399   5.395   3.669   4.843
22719WAT     H268400   5.536   3.615   4.781
22720WAT      O68401   8.815   4.141   8.061
22720WAT     H168402   8.896   4.156   8.119
22720WAT     H268403   8.790   4.226   8.016
22721WAT      O68404   9.635   0.198   1.153
22721WAT     H168405   9.593   0.266   1.093
22721WAT     H268406   9.564   0.157   1.211
22722WAT      O68407   9.801   5.246   4.132
22722WAT     H168408   9.812   5.252   4.033
22722WAT     H268409   9.875   5.192   4.171
22723WAT      O68410   8.264   9.686   4.435
22723WAT     H168411   8.234   9.774   4.471
22723WAT     H268412   8.362   9.675   4.450
22724WAT      O68413   2.335   0.404   2.044
22724WAT     H168414   2.325   0.338   2.119
22724WAT     H268415   2.245   0.431   2.011
22725WAT      O68416   0.267   7.496   2.510
22725WAT     H168417   0.365   7.478   2.515
22725WAT     H268418   0.229   7.451   2.429
22726WAT      O68419   6.450   5.791   7.482
22726WAT     H168420   6.365   5.740   7.469
22726WAT     H268421   6.440   5.854   7.560
22727WAT      O68422   8.529   6.433   8.001
22727WAT     H168423   8.551   6.395   7.911
22727WAT     H268424   8.518   6.358   8.067
22728WAT      O68425   0.348   0.932   0.503
22728WAT     H168426   0.313   0.895   0.589
22728WAT     H268427   0.409   0.866   0.459
22729WAT      O68428   6.441   5.182   2.187
22729WAT     H168429   6.396   5.115   2.127
22729WAT     H268430   6.437   5.272   2.145
22730WAT      O68431   3.776   5.172   9.879
22730WAT     H168432   3.719   5.149   9.800
22730WAT     H268433   3.868   5.195   9.849
22731WAT      O68434   2.937   3.121   7.172
22731WAT     H168435   3.037   3.120   7.169
22731WAT     H268436   2.900   3.105   7.081
22732WAT      O68437   6.407   0.287   7.550
22732WAT     H168438   6.327   0.228   7.538
22732WAT     H268439   6.461   0.254   7.627
22733WAT      O68440   7.687   1.491   6.831
22733WAT     H168441   7.679   1.391   6.823
22733WAT     H268442   7.780   1.519   6.810
22734WAT      O68443   1.608   4.970   8.520
22734WAT     H168444   1.634   4.964   8.424
22734WAT     H268445   1.524   4.919   8.535
22735WAT      O68446   7.210   0.403   1.945
22735WAT     H168447   7.300   0.368   1.968
22735WAT     H268448   7.144   0.327   1.947
22736WAT      O68449   3.508   4.418   8.141
22736WAT     H168450   3.495   4.442   8.238
22736WAT     H268451   3.590   4.362   8.132
22737WAT      O68452   9.481   2.045   6.349
22737WAT     H168453   9.457   2.128   6.299
22737WAT     H268454   9.548   2.067   6.420
22738WAT      O68455   6.766   3.358   5.271
22738WAT     H168456   6.839   3.422   5.297
22738WAT     H268457   6.806   3.274   5.236
22739WAT      O68458   0.785   4.413   2.857
22739WAT     H168459   0.714   4.357   2.815
22739WAT     H268460   0.814   4.372   2.943
22740WAT      O68461   6.692   1.792   6.815
22740WAT     H168462   6.759   1.811   6.743
22740WAT     H268463   6.606   1.837   6.792
22741WAT      O68464   2.484   0.154   7.354
22741WAT     H168465   2.477   0.072   7.411
22741WAT     H268466   2.573   0.198   7.369
22742WAT      O68467   1.083   9.732   1.501
22742WAT     H168468   1.181   9.715   1.495
22742WAT     H268469   1.033   9.652   1.469
22743WAT      O68470   8.987   3.564   2.430
22743WAT     H168471   9.080   3.581   2.464
22743WAT     H268472   8.982   3.589   2.334
22744WAT      O68473   9.527   2.940   3.899
22744WAT     H168474   9.487   3.012   3.955
22744WAT     H268475   9.466   2.922   3.821
22745WAT      O68476   3.195   5.503   7.479
22745WAT     H168477   3.200   5.473   7.383
22745WAT     H268478   3.287   5.520   7.514
22746WAT      O68479   5.418   8.824   9.856
22746WAT     H168480   5.338   8.883   9.868
22746WAT     H268481   5.430   8.804   9.759
22747WAT      O68482   9.357   1.714   8.212
22747WAT     H168483   9.263   1.741   8.193
22747WAT     H268484   9.369   1.699   8.310
22748WAT      O68485   2.642   1.113   5.756
22748WAT     H168486   2.634   1.105   5.855
22748WAT     H268487   2.678   1.028   5.718
22749WAT      O68488   3.285   6.439   5.246
22749WAT     H168489   3.278   6.391   5.334
22749WAT     H268490   3.203   6.423   5.192
22750WAT      O68491   9.596   5.736   8.656
22750WAT     H168492   9.632   5.810   8.712
22750WAT     H268493   9.496   5.745   8.649
22751WAT      O68494   1.089   8.617   2.166
22751WAT     H168495   1.135   8.600   2.253
22751WAT     H268496   1.154   8.609   2.091
22752WAT      O68497   1.111   9.826   9.168
22752WAT     H168498   1.128   9.909   9.116
22752WAT     H268499   1.178   9.820   9.243
22753WAT      O68500   0.975   7.394   7.844
22753WAT     H168501   0.897   7.408   7.783
22753WAT     H268502   1.047   7.460   7.821
22754WAT      O68503   5.733   5.754   1.971
22754WAT     H168504   5.827   5.777   1.946
22754WAT     H268505   5.687   5.835   2.008
22755WAT      O68506   5.671   1.255   0.497
22755WAT     H168507   5.704   1.325   0.561
22755WAT     H268508   5.746   1.196   0.470
22756WAT      O68509   5.830   1.784   3.484
22756WAT     H168510   5.770   1.787   3.564
22756WAT     H268511   5.776   1.760   3.403
22757WAT      O68512   1.269   0.314   7.879
22757WAT     H168513   1.282   0.235   7.938
22757WAT     H268514   1.326   0.390   7.910
22758WAT      O68515   5.539   4.119   1.226
22758WAT     H168516   5.524   4.026   1.261
22758WAT     H268517   5.562   4.115   1.129
22759WAT      O68518   6.316   5.637   6.798
22759WAT     H168519   6.404   5.645   6.845
22759WAT     H268520   6.258   5.571   6.847
22760WAT      O68521   6.863   2.743   9.324
22760WAT     H168522   6.852   2.680   9.247
22760WAT     H268523   6.955   2.781   9.323
22761WAT      O68524   8.166   1.494   3.764
22761WAT     H168525   8.130   1.432   3.694
22761WAT     H268526   8.105   1.573   3.772
22762WAT      O68527   7.424   7.923   8.427
22762WAT     H168528   7.488   7.851   8.399
22762WAT     H268529   7.475   8.000   8.465
22763WAT      O68530   4.785   9.576   9.614
22763WAT     H168531   4.796   9.665   9.568
22763WAT     H268532   4.772   9.505   9.545
22764WAT      O68533   7.362   2.575   1.430
22764WAT     H168534   7.388   2.671   1.437
22764WAT     H268535   7.401   2.535   1.347
22765WAT      O68536   8.473   4.238   1.497
22765WAT     H168537   8.525   4.202   1.574
22765WAT     H268538   8.480   4.338   1.494
22766WAT      O68539   5.811   5.879   9.695
22766WAT     H168540   5.867   5.895   9.613
22766WAT     H268541   5.778   5.966   9.730
22767WAT      O68542   8.701   8.699   6.249
22767WAT     H168543   8.695   8.659   6.158
22767WAT     H268544   8.610   8.727   6.280
22768WAT      O68545   2.841   4.538   4.786
22768WAT     H168546   2.890   4.584   4.712
22768WAT     H268547   2.756   4.498   4.749
22769WAT      O68548   4.237   4.443   6.894
22769WAT     H168549   4.176   4.514   6.857
22769WAT     H268550   4.289   4.481   6.970
22770WAT      O68551   0.454   0.143   9.015
22770WAT     H168552   0.395   0.131   8.935
22770WAT     H268553   0.415   0.095   9.093
22771WAT      O68554   8.922   4.159   0.985
22771WAT     H168555   8.964   4.097   0.919
22771WAT     H268556   8.991   4.189   1.051
22772WAT      O68557   3.237   1.230   1.836
22772WAT     H168558   3.256   1.314   1.784
22772WAT     H268559   3.193   1.254   1.923
22773WAT      O68560   3.147   7.590   2.554
22773WAT     H168561   3.050   7.598   2.534
22773WAT     H268562   3.167   7.631   2.642
22774WAT      O68563   4.845   4.300   9.247
22774WAT     H168564   4.894   4.331   9.328
22774WAT     H268565   4.752   4.337   9.247
22775WAT      O68566   2.905   4.414   1.991
22775WAT     H168567   2.943   4.505   2.003
22775WAT     H268568   2.968   4.346   2.030
22776WAT      O68569   3.025   9.375   5.285
22776WAT     H168570   2.948   9.418   5.238
22776WAT     H268571   2.992   9.325   5.364
22777WAT      O68572   1.337   2.475   7.900
22777WAT     H168573   1.434   2.485   7.925
22777WAT     H268574   1.324   2.501   7.804
22778WAT      O68575   1.104   3.411   7.756
22778WAT     H168576   1.200   3.386   7.742
22778WAT     H268577   1.057   3.337   7.804
22779WAT      O68578   9.046   9.131   0.028
22779WAT     H168579   9.013   9.203  -0.032
22779WAT     H268580   8.999   9.045   0.006
22780WAT      O68581   0.303   2.896   3.355
22780WAT     H168582   0.340   2.918   3.445
22780WAT     H268583   0.241   2.969   3.326
22781WAT      O68584   0.115   2.907   5.089
22781WAT     H168585   0.028   2.945   5.055
22781WAT     H268586   0.182   2.906   5.015
22782WAT      O68587   8.945   9.779   5.560
22782WAT     H168588   9.030   9.804   5.514
22782WAT     H268589   8.908   9.695   5.520
22783WAT      O68590   1.328   6.732   8.950
22783WAT     H168591   1.271   6.802   8.994
22783WAT     H268592   1.317   6.737   8.851
22784WAT      O68593   8.366   7.244   4.503
22784WAT     H168594   8.293   7.218   4.440
22784WAT     H268595   8.403   7.333   4.477
22785WAT      O68596   5.547   6.934   9.679
22785WAT     H168597   5.624   6.885   9.719
22785WAT     H268598   5.578   7.022   9.644
22786WAT      O68599   2.788   5.013   2.595
22786WAT     H168600   2.772   4.927   2.548
22786WAT     H268601   2.804   5.086   2.528
22787WAT      O68602   5.144   9.059   7.546
22787WAT     H168603   5.180   9.059   7.453
22787WAT     H268604   5.167   8.973   7.591
22788WAT      O68605   3.615   5.127   9.668
22788WAT     H168606   3.682   5.091   9.603
22788WAT     H268607   3.555   5.052   9.698
22789WAT      O68608   5.603   3.058   4.182
22789WAT     H168609   5.638   2.967   4.203
22789WAT     H268610   5.521   3.076   4.238
22790WAT      O68611   8.559   0.181   1.490
22790WAT     H168612   8.535   0.141   1.402
22790WAT     H268613   8.659   0.186   1.498
22791WAT      O68614   6.612   1.260   6.334
22791WAT     H168615   6.664   1.226   6.255
22791WAT     H268616   6.521   1.286   6.304
22792WAT      O68617   0.711   8.442   2.927
22792WAT     H168618   0.644   8.514   2.940
22792WAT     H268619   0.785   8.453   2.993
22793WAT      O68620   9.173   3.856   0.663
22793WAT     H168621   9.241   3.783   0.657
22793WAT     H268622   9.151   3.889   0.571
22794WAT      O68623   8.715   8.594   4.190
22794WAT     H168624   8.802   8.600   4.238
22794WAT     H268625   8.663   8.678   4.205
22795WAT      O68626   9.368   3.111   2.200
22795WAT     H168627   9.346   3.020   2.164
22795WAT     H268628   9.466   3.115   2.222
22796WAT      O68629   0.912   2.810   4.256
22796WAT     H168630   0.831   2.812   4.314
22796WAT     H268631   0.884   2.797   4.161
22797WAT      O68632   8.427   6.767   4.492
22797WAT     H168633   8.428   6.670   4.519
22797WAT     H268634   8.333   6.799   4.485
22798WAT      O68635   6.747   2.254   6.719
22798WAT     H168636   6.726   2.352   6.724
22798WAT     H268637   6.842   2.242   6.689
22799WAT      O68638   8.405   1.331   5.804
22799WAT     H168639   8.341   1.325   5.728
22799WAT     H268640   8.475   1.260   5.796
22800WAT      O68641   6.297   0.803   1.230
22800WAT     H168642   6.344   0.757   1.155
22800WAT     H268643   6.200   0.815   1.207
22801WAT      O68644   1.777   6.487   7.522
22801WAT     H168645   1.816   6.525   7.606
22801WAT     H268646   1.680   6.468   7.535
22802WAT      O68647   7.017   1.592   1.390
22802WAT     H168648   7.115   1.608   1.375
22802WAT     H268649   6.997   1.598   1.488
22803WAT      O68650   1.563   2.018   8.196
22803WAT     H168651   1.481   2.008   8.140
22803WAT     H268652   1.633   2.067   8.145
22804WAT      O68653   2.928   2.027   1.865
22804WAT     H168654   2.988   2.104   1.884
22804WAT     H268655   2.841   2.060   1.827
22805WAT      O68656   6.319   4.334   7.825
22805WAT     H168657   6.220   4.322   7.831
22805WAT     H268658   6.360   4.316   7.915
22806WAT      O68659   8.199   5.591   0.420
22806WAT     H168660   8.205   5.664   0.487
22806WAT     H268661   8.291   5.558   0.399
22807WAT      O68662   6.987   6.419   7.362
22807WAT     H168663   6.894   6.454   7.356
22807WAT     H268664   7.020   6.394   7.271
22808WAT      O68665   8.796   5.047   0.746
22808WAT     H168666   8.775   4.971   0.808
22808WAT     H268667   8.896   5.055   0.737
22809WAT      O68668   2.731   4.299   2.769
22809WAT     H168669   2.799   4.365   2.802
22809WAT     H268670   2.669   4.344   2.705
22810WAT      O68671   2.833   3.509   7.941
22810WAT     H168672   2.776   3.574   7.992
22810WAT     H268673   2.839   3.423   7.991
22811WAT      O68674   2.938   3.727   3.397
22811WAT     H168675   3.021   3.705   3.449
22811WAT     H268676   2.963   3.746   3.302
22812WAT      O68677   6.593   4.641   8.991
22812WAT     H168678   6.651   4.629   9.071
22812WAT     H268679   6.611   4.730   8.949
22813WAT      O68680   4.941   8.255   8.246
22813WAT     H168681   4.988   8.315   8.311
22813WAT     H268682   4.949   8.160   8.277
22814WAT      O68683   6.405   4.338   3.321
22814WAT     H168684   6.479   4.376   3.376
22814WAT     H268685   6.325   4.322   3.379
22815WAT      O68686   7.319   4.266   2.195
22815WAT     H168687   7.256   4.188   2.188
22815WAT     H268688   7.328   4.310   2.106
22816WAT      O68689   3.708   4.993   0.490
22816WAT     H168690   3.709   5.045   0.575
22816WAT     H268691   3.801   4.968   0.465
22817WAT      O68692   6.110   9.649   3.787
22817WAT     H168693   6.053   9.692   3.717
22817WAT     H268694   6.067   9.661   3.877
22818WAT      O68695   4.332   5.086   3.623
22818WAT     H168696   4.328   5.002   3.677
22818WAT     H268697   4.424   5.095   3.584
22819WAT      O68698   5.054   2.623   6.362
22819WAT     H168699   5.004   2.704   6.335
22819WAT     H268700   5.137   2.615   6.307
22820WAT      O68701   6.915   0.238   1.300
22820WAT     H168702   6.815   0.232   1.308
22820WAT     H268703   6.949   0.308   1.362
22821WAT      O68704   7.018   3.430   6.132
22821WAT     H168705   7.113   3.454   6.154
22821WAT     H268706   7.016   3.347   6.077
22822WAT      O68707   3.311   7.691   1.744
22822WAT     H168708   3.300   7.618   1.676
22822WAT     H268709   3.268   7.774   1.711
22823WAT      O68710   2.962   9.681   6.242
22823WAT     H168711   3.012   9.679   6.156
22823WAT     H268712   3.008   9.742   6.307
22824WAT      O68713   0.589   7.950   0.973
22824WAT     H168714   0.652   7.903   1.034
22824WAT     H268715   0.554   8.032   1.017
22825WAT      O68716   3.463   8.885   1.455
22825WAT     H168717   3.437   8.818   1.386
22825WAT     H268718   3.411   8.969   1.442
22826WAT      O68719   9.429   6.871   0.703
22826WAT     H168720   9.402   6.924   0.784
22826WAT     H268721   9.349   6.825   0.665
22827WAT      O68722   7.185   9.842   2.113
22827WAT     H168723   7.109   9.778   2.125
22827WAT     H268724   7.258   9.798   2.061
22828WAT      O68725   0.028   2.269   7.901
22828WAT     H168726  -0.033   2.227   7.969
22828WAT     H268727  -0.021   2.341   7.852
22829WAT      O68728   6.679   5.734   5.265
22829WAT     H168729   6.693   5.813   5.324
22829WAT     H268730   6.734   5.743   5.182
22830WAT      O68731   8.201   8.595   9.781
22830WAT     H168732   8.197   8.682   9.730
22830WAT     H268733   8.276   8.600   9.847
22831WAT      O68734   1.470   0.987   9.738
22831WAT     H168735   1.496   0.891   9.728
22831WAT     H268736   1.511   1.024   9.822
22832WAT      O68737   7.582   2.194   6.083
22832WAT     H168738   7.527   2.123   6.038
22832WAT     H268739   7.628   2.249   6.013
22833WAT      O68740   1.432   6.604   0.268
22833WAT     H168741   1.471   6.598   0.360
22833WAT     H268742   1.421   6.512   0.231
22834WAT      O68743   1.765   0.987   9.432
22834WAT     H168744   1.767   0.916   9.503
22834WAT     H268745   1.858   1.024   9.419
22835WAT      O68746   0.860   8.074   2.400
22835WAT     H168747   0.771   8.097   2.439
22835WAT     H268748   0.888   7.983   2.431
22836WAT      O68749   8.312   4.045   9.276
22836WAT     H168750   8.265   3.997   9.201
22836WAT     H268751   8.365   4.121   9.239
22837WAT      O68752   2.745   6.962   0.704
22837WAT     H168753   2.787   7.025   0.770
22837WAT     H268754   2.805   6.952   0.625
22838WAT      O68755   7.917   2.786   0.001
22838WAT     H168756   7.874   2.696   0.005
22838WAT     H268757   8.016   2.776  -0.007
22839WAT      O68758   1.320   1.497   8.838
22839WAT     H168759   1.300   1.475   8.934
22839WAT     H268760   1.363   1.418   8.794
22840WAT      O68761   3.991   4.443   9.647
22840WAT     H168762   4.066   4.508   9.639
22840WAT     H268763   4.024   4.357   9.687
22841WAT      O68764   4.130   2.553   0.351
22841WAT     H168765   4.069   2.575   0.275
22841WAT     H268766   4.098   2.471   0.398
22842WAT      O68767   7.198   3.915   2.463
22842WAT     H168768   7.289   3.938   2.499
22842WAT     H268769   7.156   3.996   2.423
22843WAT      O68770   3.872   6.749   9.167
22843WAT     H168771   3.854   6.844   9.142
22843WAT     H268772   3.971   6.733   9.170
22844WAT      O68773   9.381   4.411   3.107
22844WAT     H168774   9.450   4.369   3.047
22844WAT     H268775   9.290   4.380   3.079
22845WAT      O68776   3.627   7.003   8.125
22845WAT     H168777   3.620   6.963   8.033
22845WAT     H268778   3.535   7.017   8.162
22846WAT      O68779   6.462   8.329   7.720
22846WAT     H168780   6.418   8.295   7.804
22846WAT     H268781   6.457   8.429   7.718
22847WAT      O68782   7.866   9.378   0.314
22847WAT     H168783   7.770   9.392   0.336
22847WAT     H268784   7.921   9.448   0.358
22848WAT      O68785   4.640   1.528   9.780
22848WAT     H168786   4.688   1.458   9.727
22848WAT     H268787   4.549   1.494   9.806
22849WAT      O68788   6.746   4.409   7.211
22849WAT     H168789   6.759   4.492   7.157
22849WAT     H268790   6.651   4.404   7.242
22850WAT      O68791   3.558   4.931   7.545
22850WAT     H168792   3.523   5.020   7.573
22850WAT     H268793   3.654   4.940   7.517
22851WAT      O68794   1.545   3.272   4.937
22851WAT     H168795   1.557   3.370   4.919
22851WAT     H268796   1.621   3.238   4.991
22852WAT      O68797   0.119   0.413   4.404
22852WAT     H168798   0.075   0.501   4.421
22852WAT     H268799   0.149   0.373   4.491
22853WAT      O68800   6.786   9.110   0.519
22853WAT     H168801   6.753   9.166   0.595
22853WAT     H268802   6.748   9.145   0.434
22854WAT      O68803   0.348   7.627   9.055
22854WAT     H168804   0.347   7.608   9.153
22854WAT     H268805   0.257   7.654   9.025
22855WAT      O68806   2.955   8.578   5.130
22855WAT     H168807   2.950   8.505   5.061
22855WAT     H268808   2.879   8.569   5.194
22856WAT      O68809   9.596   8.688   4.575
22856WAT     H168810   9.626   8.782   4.589
22856WAT     H268811   9.607   8.663   4.479
22857WAT      O68812   1.230   9.133   6.244
22857WAT     H168813   1.328   9.117   6.233
22857WAT     H268814   1.190   9.158   6.156
22858WAT      O68815   9.295   5.799   0.876
22858WAT     H168816   9.269   5.884   0.922
22858WAT     H268817   9.221   5.770   0.814
22859WAT      O68818   0.099   1.765   5.377
22859WAT     H168819   0.048   1.837   5.425
22859WAT     H268820   0.039   1.721   5.310
22860WAT      O68821   0.132   5.052   1.010
22860WAT     H168822   0.184   5.131   0.977
22860WAT     H268823   0.059   5.083   1.070
22861WAT      O68824   8.902   3.162   1.322
22861WAT     H168825   8.953   3.206   1.396
22861WAT     H268826   8.894   3.064   1.341
22862WAT      O68827   7.788   2.738   8.453
22862WAT     H168828   7.870   2.785   8.486
22862WAT     H268829   7.754   2.784   8.371
22863WAT      O68830   4.387   0.653   7.726
22863WAT     H168831   4.482   0.631   7.752
22863WAT     H268832   4.365   0.745   7.758
22864WAT      O68833   5.875   6.357   1.140
22864WAT     H168834   5.922   6.437   1.178
22864WAT     H268835   5.873   6.285   1.208
22865WAT      O68836   9.219   2.364   6.448
22865WAT     H168837   9.129   2.322   6.449
22865WAT     H268838   9.275   2.322   6.377
22866WAT      O68839   4.032   8.206   7.106
22866WAT     H168840   4.018   8.292   7.057
22866WAT     H268841   4.127   8.200   7.137
22867WAT      O68842   0.708   2.201   8.257
22867WAT     H168843   0.714   2.105   8.284
22867WAT     H268844   0.701   2.258   8.339
22868WAT      O68845   4.871   3.223   2.123
22868WAT     H168846   4.778   3.196   2.148
22868WAT     H268847   4.904   3.165   2.048
22869WAT      O68848   3.735   8.500   8.434
22869WAT     H168849   3.767   8.507   8.529
22869WAT     H268850   3.779   8.423   8.390
22870WAT      O68851   7.064   6.461   9.460
22870WAT     H168852   7.054   6.474   9.361
22870WAT     H268853   7.123   6.382   9.477
22871WAT      O68854   7.772   6.562   6.421
22871WAT     H168855   7.843   6.495   6.442
22871WAT     H268856   7.758   6.566   6.322
22872WAT      O68857   2.314   2.652   4.535
22872WAT     H168858   2.305   2.696   4.446
22872WAT     H268859   2.247   2.690   4.598
22873WAT      O68860   6.695   9.832   4.051
22873WAT     H168861   6.705   9.867   4.144
22873WAT     H268862   6.704   9.732   4.051
22874WAT      O68863   4.905   7.245   0.787
22874WAT     H168864   4.903   7.192   0.702
22874WAT     H268865   4.813   7.277   0.808
22875WAT      O68866   4.908   3.029   1.918
22875WAT     H168867   4.850   2.954   1.949
22875WAT     H268868   4.947   3.005   1.829
22876WAT      O68869   6.229   6.496   1.578
22876WAT     H168870   6.328   6.489   1.586
22876WAT     H268871   6.189   6.404   1.584
22877WAT      O68872   6.039   8.231   2.669
22877WAT     H168873   6.062   8.263   2.577
22877WAT     H268874   5.944   8.256   2.690
22878WAT      O68875   5.158   0.233   3.193
22878WAT     H168876   5.181   0.160   3.256
22878WAT     H268877   5.158   0.320   3.241
22879WAT      O68878   6.864   5.980   7.139
22879WAT     H168879   6.784   5.937   7.181
22879WAT     H268880   6.934   5.996   7.209
22880WAT      O68881   9.571   0.390   5.642
22880WAT     H168882   9.590   0.315   5.578
22880WAT     H268883   9.610   0.367   5.732
22881WAT      O68884   6.981   5.410   7.018
22881WAT     H168885   7.043   5.370   7.086
22881WAT     H268886   7.033   5.472   6.959
22882WAT      O68887   7.422   7.014   4.008
22882WAT     H168888   7.520   7.027   3.997
22882WAT     H268889   7.397   7.022   4.105
22883WAT      O68890   1.717   0.802   1.466
22883WAT     H168891   1.719   0.715   1.515
22883WAT     H268892   1.790   0.861   1.500
22884WAT      O68893   5.939   3.797   8.206
22884WAT     H168894   6.004   3.774   8.134
22884WAT     H268895   5.895   3.713   8.239
22885WAT      O68896   9.414   7.799   2.281
22885WAT     H168897   9.409   7.700   2.290
22885WAT     H268898   9.331   7.840   2.319
22886WAT      O68899   8.482   6.442   9.619
22886WAT     H168900   8.407   6.507   9.612
22886WAT     H268901   8.525   6.431   9.529
22887WAT      O68902   9.598   1.674   0.942
22887WAT     H168903   9.574   1.587   0.985
22887WAT     H268904   9.543   1.686   0.859
22888WAT      O68905   8.196   9.428   3.593
22888WAT     H168906   8.156   9.514   3.559
22888WAT     H268907   8.198   9.430   3.693
22889WAT      O68908   7.862   0.177   3.680
22889WAT     H168909   7.831   0.253   3.624
22889WAT     H268910   7.940   0.206   3.736
22890WAT      O68911   3.221   2.719   6.312
22890WAT     H168912   3.219   2.818   6.297
22890WAT     H268913   3.156   2.674   6.251
22891WAT      O68914   2.564   1.439   6.407
22891WAT     H168915   2.660   1.459   6.389
22891WAT     H268916   2.543   1.459   6.502
22892WAT      O68917   8.622   7.487   3.763
22892WAT     H168918   8.592   7.476   3.668
22892WAT     H268919   8.558   7.545   3.812
22893WAT      O68920   5.196   8.650   0.486
22893WAT     H168921   5.268   8.624   0.423
22893WAT     H268922   5.232   8.653   0.579
22894WAT      O68923   9.181   5.334   0.839
22894WAT     H168924   9.262   5.370   0.793
22894WAT     H268925   9.142   5.405   0.898
22895WAT      O68926   9.136   1.848   4.815
22895WAT     H168927   9.103   1.775   4.755
22895WAT     H268928   9.076   1.856   4.894
22896WAT      O68929   7.020   5.255   3.576
22896WAT     H168930   7.072   5.325   3.625
22896WAT     H268931   6.990   5.184   3.641
22897WAT      O68932   4.211   8.125   4.235
22897WAT     H168933   4.295   8.096   4.281
22897WAT     H268934   4.150   8.168   4.301
22898WAT      O68935   7.468   5.881   9.212
22898WAT     H168936   7.415   5.802   9.180
22898WAT     H268937   7.406   5.948   9.252
22899WAT      O68938   2.391   0.948   8.551
22899WAT     H168939   2.366   1.045   8.551
22899WAT     H268940   2.347   0.903   8.629
22900WAT      O68941   7.093   1.468   5.104
22900WAT     H168942   7.090   1.537   5.031
22900WAT     H268943   7.142   1.506   5.183
22901WAT      O68944   4.617   4.695   3.553
22901WAT     H168945   4.648   4.669   3.645
22901WAT     H268946   4.670   4.774   3.521
22902WAT      O68947   8.433   4.549   0.241
22902WAT     H168948   8.392   4.546   0.333
22902WAT     H268949   8.392   4.624   0.189
22903WAT      O68950   5.881   3.264   3.166
22903WAT     H168951   5.854   3.170   3.185
22903WAT     H268952   5.934   3.300   3.243
22904WAT      O68953   3.404   0.581   1.675
22904WAT     H168954   3.350   0.628   1.743
22904WAT     H268955   3.352   0.575   1.589
22905WAT      O68956   2.667   3.135   9.173
22905WAT     H168957   2.582   3.185   9.190
22905WAT     H268958   2.663   3.093   9.083
22906WAT      O68959   4.640   9.715   9.271
22906WAT     H168960   4.719   9.715   9.209
22906WAT     H268961   4.559   9.746   9.221
22907WAT      O68962   5.105   2.205   9.092
22907WAT     H168963   5.112   2.116   9.045
22907WAT     H268964   5.061   2.192   9.181
22908WAT      O68965   0.060   3.732   2.120
22908WAT     H168966   0.083   3.744   2.023
22908WAT     H268967  -0.009   3.799   2.147
22909WAT      O68968   0.846   7.309   0.071
22909WAT     H168969   0.885   7.401   0.078
22909WAT     H268970   0.803   7.284   0.157
22910WAT      O68971   5.874   1.840   1.458
22910WAT     H168972   5.949   1.836   1.393
22910WAT     H268973   5.888   1.918   1.520
22911WAT      O68974   4.707   5.696   8.306
22911WAT     H168975   4.689   5.769   8.240
22911WAT     H268976   4.803   5.668   8.299
22912WAT      O68977   1.259   4.355   5.085
22912WAT     H168978   1.191   4.319   5.021
22912WAT     H268979   1.345   4.305   5.074
22913WAT      O68980   3.139   6.961   1.823
22913WAT     H168981   3.110   7.052   1.794
22913WAT     H268982   3.207   6.925   1.759
22914WAT      O68983   7.001   8.630   1.030
22914WAT     H168984   7.064   8.567   0.985
22914WAT     H268985   7.036   8.654   1.121
22915WAT      O68986   8.221   7.775   7.535
22915WAT     H168987   8.134   7.807   7.573
22915WAT     H268988   8.267   7.851   7.488
22916WAT      O68989   3.910   9.135   5.046
22916WAT     H168990   3.870   9.207   4.989
22916WAT     H268991   3.985   9.174   5.100
22917WAT      O68992   2.135   8.454   8.731
22917WAT     H168993   2.047   8.411   8.715
22917WAT     H268994   2.198   8.387   8.770
22918WAT      O68995   8.076   0.407   7.167
22918WAT     H168996   8.049   0.463   7.245
22918WAT     H268997   8.152   0.452   7.119
22919WAT      O68998   4.033   3.935   9.801
22919WAT     H168999   3.943   3.953   9.842
22919WAT     H269000   4.025   3.937   9.701
22920WAT      O69001   8.882   3.884   8.081
22920WAT     H169002   8.823   3.832   8.143
22920WAT     H269003   8.836   3.968   8.054
22921WAT      O69004   0.092   0.878   1.819
22921WAT     H169005   0.172   0.918   1.863
22921WAT     H269006   0.040   0.826   1.886
22922WAT      O69007   0.268   3.426   7.215
22922WAT     H169008   0.260   3.445   7.313
22922WAT     H269009   0.350   3.372   7.197
22923WAT      O69010   9.610   7.302   5.881
22923WAT     H169011   9.630   7.399   5.879
22923WAT     H269012   9.533   7.283   5.820
22924WAT      O69013   8.481   4.046   1.305
22924WAT     H169014   8.497   3.960   1.355
22924WAT     H269015   8.489   4.123   1.368
22925WAT      O69016   3.461   1.406   8.934
22925WAT     H169017   3.495   1.404   8.840
22925WAT     H269018   3.493   1.488   8.980
22926WAT      O69019   1.856   8.178   3.801
22926WAT     H169020   1.846   8.164   3.702
22926WAT     H269021   1.901   8.099   3.842
22927WAT      O69022   1.566   0.457   9.758
22927WAT     H169023   1.638   0.524   9.740
22927WAT     H269024   1.545   0.407   9.674
22928WAT      O69025   9.646   1.024   3.134
22928WAT     H169026   9.717   0.976   3.082
22928WAT     H269027   9.557   1.010   3.089
22929WAT      O69028   1.694   9.784   0.133
22929WAT     H169029   1.646   9.778   0.046
22929WAT     H269030   1.740   9.697   0.152
22930WAT      O69031   8.222   4.767   4.876
22930WAT     H169032   8.218   4.775   4.776
22930WAT     H269033   8.141   4.719   4.909
22931WAT      O69034   0.059   4.550   2.287
22931WAT     H169035   0.129   4.524   2.354
22931WAT     H269036  -0.022   4.583   2.335
22932WAT      O69037   9.403   5.413   0.658
22932WAT     H169038   9.363   5.394   0.568
22932WAT     H269039   9.448   5.502   0.656
22933WAT      O69040   2.774   9.713   5.307
22933WAT     H169041   2.777   9.718   5.407
22933WAT     H269042   2.854   9.760   5.269
22934WAT      O69043   5.254   6.095   0.205
22934WAT     H169044   5.196   6.175   0.187
22934WAT     H269045   5.324   6.119   0.273
22935WAT      O69046   8.258   4.370   9.372
22935WAT     H169047   8.197   4.382   9.450
22935WAT     H269048   8.275   4.273   9.358
22936WAT      O69049   8.522   1.388   9.215
22936WAT     H169050   8.423   1.380   9.208
22936WAT     H269051   8.550   1.375   9.311
22937WAT      O69052   3.958   1.954   9.003
22937WAT     H169053   3.951   1.907   9.090
22937WAT     H269054   3.882   1.926   8.943
22938WAT      O69055   1.561   2.342   0.443
22938WAT     H169056   1.592   2.247   0.447
22938WAT     H269057   1.467   2.347   0.477
22939WAT      O69058   2.429   9.456   3.082
22939WAT     H169059   2.394   9.492   3.169
22939WAT     H269060   2.361   9.394   3.041
22940WAT      O69061   2.058   9.813   1.151
22940WAT     H169062   1.964   9.788   1.129
22940WAT     H269063   2.063   9.848   1.245
22941WAT      O69064   1.383   7.288   4.149
22941WAT     H169065   1.463   7.330   4.107
22941WAT     H269066   1.333   7.235   4.081
22942WAT      O69067   7.270   2.615   0.160
22942WAT     H169068   7.181   2.568   0.169
22942WAT     H269069   7.272   2.665   0.073
22943WAT      O69070   9.101   0.677   5.328
22943WAT     H169071   9.060   0.717   5.246
22943WAT     H269072   9.201   0.684   5.321
22944WAT      O69073   6.017   5.492   1.940
22944WAT     H169074   6.068   5.510   2.024
22944WAT     H269075   5.962   5.572   1.917
22945WAT      O69076   4.724   7.106   3.111
22945WAT     H169077   4.700   7.013   3.138
22945WAT     H269078   4.779   7.103   3.028
22946WAT      O69079   8.188   2.450   6.236
22946WAT     H169080   8.223   2.508   6.310
22946WAT     H269081   8.100   2.410   6.263
22947WAT      O69082   5.923   6.227   4.612
22947WAT     H169083   5.834   6.204   4.573
22947WAT     H269084   5.995   6.204   4.546
22948WAT      O69085   0.646   8.415   3.343
22948WAT     H169086   0.684   8.498   3.303
22948WAT     H269087   0.549   8.408   3.322
22949WAT      O69088   8.158   8.412   9.338
22949WAT     H169089   8.254   8.395   9.313
22949WAT     H269090   8.150   8.416   9.437
22950WAT      O69091   9.643   8.896   8.130
22950WAT     H169092   9.544   8.910   8.129
22950WAT     H269093   9.669   8.831   8.059
22951WAT      O69094   0.416   8.885   6.004
22951WAT     H169095   0.509   8.916   6.018
22951WAT     H269096   0.417   8.793   5.963
22952WAT      O69097   7.647   5.972   8.522
22952WAT     H169098   7.707   5.902   8.483
22952WAT     H269099   7.665   6.060   8.476
22953WAT      O69100   3.571   2.634   8.134
22953WAT     H169101   3.548   2.547   8.177
22953WAT     H269102   3.607   2.697   8.203
22954WAT      O69103   6.405   4.256   6.435
22954WAT     H169104   6.484   4.201   6.462
22954WAT     H269105   6.332   4.244   6.502
22955WAT      O69106   8.270   2.656   7.664
22955WAT     H169107   8.360   2.613   7.656
22955WAT     H269108   8.200   2.591   7.636
22956WAT      O69109   2.263   2.245   1.085
22956WAT     H169110   2.336   2.192   1.042
22956WAT     H269111   2.175   2.212   1.052
22957WAT      O69112   7.767   1.384   3.063
22957WAT     H169113   7.755   1.285   3.069
22957WAT     H269114   7.771   1.423   3.155
22958WAT      O69115   6.458   4.002   8.274
22958WAT     H169116   6.437   4.100   8.263
22958WAT     H269117   6.375   3.949   8.259
22959WAT      O69118   6.529   7.165   1.521
22959WAT     H169119   6.436   7.200   1.512
22959WAT     H269120   6.527   7.074   1.564
22960WAT      O69121   9.343   5.297   8.591
22960WAT     H169122   9.418   5.347   8.634
22960WAT     H269123   9.257   5.320   8.637
22961WAT      O69124   2.591   8.366   6.291
22961WAT     H169125   2.655   8.313   6.235
22961WAT     H269126   2.586   8.325   6.382
22962WAT      O69127   5.848   9.358   6.019
22962WAT     H169128   5.806   9.341   5.930
22962WAT     H269129   5.873   9.271   6.061
22963WAT      O69130   5.250   8.028   5.772
22963WAT     H169131   5.179   8.082   5.818
22963WAT     H269132   5.247   7.934   5.806
22964WAT      O69133   0.708   2.833   3.418
22964WAT     H169134   0.711   2.871   3.511
22964WAT     H269135   0.745   2.739   3.420
22965WAT      O69136   0.889   1.357   6.436
22965WAT     H169137   0.895   1.269   6.388
22965WAT     H269138   0.793   1.376   6.456
22966WAT      O69139   1.432   0.971   9.165
22966WAT     H169140   1.337   0.944   9.183
22966WAT     H269141   1.494   0.897   9.191
22967WAT      O69142   5.502   1.439   2.104
22967WAT     H169143   5.552   1.520   2.073
22967WAT     H269144   5.452   1.399   2.027
22968WAT      O69145   2.649   0.015   7.748
22968WAT     H169146   2.649  -0.037   7.662
22968WAT     H269147   2.632   0.111   7.729
22969WAT      O69148   8.522   1.009   9.023
22969WAT     H169149   8.554   0.947   8.952
22969WAT     H269150   8.590   1.081   9.037
22970WAT      O69151   9.659   8.574   6.121
22970WAT     H169152   9.613   8.659   6.148
22970WAT     H269153   9.757   8.582   6.139
22971WAT      O69154   0.405   6.772   4.346
22971WAT     H169155   0.399   6.853   4.287
22971WAT     H269156   0.471   6.708   4.308
22972WAT      O69157   4.959   1.976   0.315
22972WAT     H169158   4.925   2.053   0.368
22972WAT     H269159   5.018   1.919   0.373
22973WAT      O69160   8.201   0.817   8.528
22973WAT     H169161   8.141   0.763   8.587
22973WAT     H269162   8.283   0.764   8.507
22974WAT      O69163   6.013   2.930   0.895
22974WAT     H169164   6.040   3.016   0.940
22974WAT     H269165   5.932   2.892   0.940
22975WAT      O69166   4.587   1.517   5.271
22975WAT     H169167   4.545   1.431   5.243
22975WAT     H269168   4.516   1.582   5.299
22976WAT      O69169   6.457   4.629   7.815
22976WAT     H169170   6.392   4.553   7.816
22976WAT     H269171   6.420   4.704   7.760
22977WAT      O69172   1.327   8.504   0.617
22977WAT     H169173   1.400   8.559   0.656
22977WAT     H269174   1.342   8.494   0.518
22978WAT      O69175   9.576   5.389   9.201
22978WAT     H169176   9.504   5.322   9.217
22978WAT     H269177   9.665   5.346   9.212
22979WAT      O69178   3.139   5.931   0.013
22979WAT     H169179   3.109   6.005   0.075
22979WAT     H269180   3.210   5.878   0.057
22980WAT      O69181   7.765   0.980   0.627
22980WAT     H169182   7.698   1.053   0.637
22980WAT     H269183   7.718   0.894   0.608
22981WAT      O69184   2.801   0.346   9.645
22981WAT     H169185   2.879   0.297   9.607
22981WAT     H269186   2.762   0.293   9.721
22982WAT      O69187   0.868   8.542   7.257
22982WAT     H169188   0.809   8.568   7.181
22982WAT     H269189   0.958   8.516   7.222
22983WAT      O69190   8.996   7.526   9.102
22983WAT     H169191   8.951   7.439   9.088
22983WAT     H269192   8.928   7.598   9.116
22984WAT      O69193   1.876   4.554   0.801
22984WAT     H169194   1.822   4.568   0.719
22984WAT     H269195   1.884   4.456   0.820
22985WAT      O69196   5.184   6.925   0.903
22985WAT     H169197   5.124   6.914   0.983
22985WAT     H269198   5.251   6.996   0.922
22986WAT      O69199   9.112   2.355   5.303
22986WAT     H169200   9.120   2.306   5.216
22986WAT     H269201   9.025   2.404   5.305
22987WAT      O69202   8.591   9.480   1.788
22987WAT     H169203   8.592   9.391   1.742
22987WAT     H269204   8.505   9.527   1.766
22988WAT      O69205   0.180   8.766   0.848
22988WAT     H169206   0.196   8.715   0.764
22988WAT     H269207   0.211   8.860   0.837
22989WAT      O69208   4.469   6.203   4.044
22989WAT     H169209   4.408   6.207   3.965
22989WAT     H269210   4.497   6.296   4.068
22990WAT      O69211   5.833   9.291   2.326
22990WAT     H169212   5.746   9.264   2.286
22990WAT     H269213   5.817   9.358   2.399
22991WAT      O69214   2.043   3.746   0.519
22991WAT     H169215   2.023   3.831   0.469
22991WAT     H269216   2.112   3.694   0.469
22992WAT      O69217   8.116   6.739   5.300
22992WAT     H169218   8.037   6.775   5.349
22992WAT     H269219   8.192   6.804   5.307
22993WAT      O69220   5.714   9.078   6.177
22993WAT     H169221   5.625   9.066   6.132
22993WAT     H269222   5.785   9.092   6.108
22994WAT      O69223   1.446   9.254   5.930
22994WAT     H169224   1.543   9.263   5.906
22994WAT     H269225   1.421   9.328   5.993
22995WAT      O69226   6.950   3.333   4.694
22995WAT     H169227   6.877   3.310   4.758
22995WAT     H269228   6.929   3.420   4.649
22996WAT      O69229   0.283   0.509   4.825
22996WAT     H169230   0.260   0.606   4.829
22996WAT     H269231   0.375   0.498   4.788
22997WAT      O69232   8.701   2.090   7.494
22997WAT     H169233   8.779   2.131   7.447
22997WAT     H269234   8.682   2.000   7.455
22998WAT      O69235   5.474   9.614   6.479
22998WAT     H169236   5.470   9.514   6.480
22998WAT     H269237   5.448   9.648   6.389
22999WAT      O69238   6.782   7.090   9.627
22999WAT     H169239   6.731   7.032   9.692
22999WAT     H269240   6.767   7.056   9.534
23000WAT      O69241   2.712   7.205   7.412
23000WAT     H169242   2.725   7.123   7.357
23000WAT     H269243   2.653   7.184   7.490
23001WAT      O69244   7.640   6.405   8.657
23001WAT     H169245   7.674   6.495   8.630
23001WAT     H269246   7.545   6.412   8.686
23002WAT      O69247   4.071   3.392   4.507
23002WAT     H169248   4.119   3.379   4.594
23002WAT     H269249   4.112   3.470   4.459
23003WAT      O69250   0.842   7.897   3.534
23003WAT     H169251   0.873   7.816   3.483
23003WAT     H269252   0.829   7.872   3.630
23004WAT      O69253   0.400   8.213   8.216
23004WAT     H169254   0.439   8.301   8.241
23004WAT     H269255   0.371   8.164   8.298
23005WAT      O69256   5.124   7.856   5.135
23005WAT     H169257   5.165   7.769   5.165
23005WAT     H269258   5.048   7.837   5.074
23006WAT      O69259   9.313   2.344   1.302
23006WAT     H169260   9.397   2.394   1.323
23006WAT     H269261   9.332   2.245   1.304
23007WAT      O69262   6.520   5.324   8.283
23007WAT     H169263   6.564   5.240   8.253
23007WAT     H269264   6.589   5.389   8.315
23008WAT      O69265   5.955   3.454   7.127
23008WAT     H169266   5.887   3.478   7.057
23008WAT     H269267   5.994   3.537   7.165
23009WAT      O69268   5.938   6.607   8.610
23009WAT     H169269   5.891   6.633   8.695
23009WAT     H269270   5.932   6.682   8.544
23010WAT      O69271   1.435   7.402   4.563
23010WAT     H169272   1.417   7.485   4.510
23010WAT     H269273   1.485   7.336   4.507
23011WAT      O69274   6.471   5.076   5.969
23011WAT     H169275   6.446   5.161   6.016
23011WAT     H269276   6.540   5.027   6.022
23012WAT      O69277   4.153   2.051   0.727
23012WAT     H169278   4.061   2.081   0.699
23012WAT     H269279   4.159   2.049   0.826
23013WAT      O69280   6.033   6.488   9.751
23013WAT     H169281   6.055   6.585   9.736
23013WAT     H269282   6.026   6.441   9.663
23014WAT      O69283   2.637   3.289   3.985
23014WAT     H169284   2.546   3.296   4.025
23014WAT     H269285   2.697   3.237   4.046
23015WAT      O69286   4.890   3.609   4.948
23015WAT     H169287   4.925   3.558   4.870
23015WAT     H269288   4.799   3.644   4.928
23016WAT      O69289   8.744   6.777   3.194
23016WAT     H169290   8.726   6.784   3.292
23016WAT     H269291   8.821   6.836   3.170
23017WAT      O69292   8.072   7.271   3.575
23017WAT     H169293   7.989   7.297   3.526
23017WAT     H269294   8.136   7.348   3.576
23018WAT      O69295   7.504   8.010   1.061
23018WAT     H169296   7.451   8.029   1.144
23018WAT     H269297   7.593   7.972   1.087
23019WAT      O69298   4.012   8.051   5.806
23019WAT     H169299   3.977   7.968   5.762
23019WAT     H269300   3.961   8.070   5.889
23020WAT      O69301   3.464   1.170   7.608
23020WAT     H169302   3.468   1.080   7.564
23020WAT     H269303   3.556   1.200   7.631
23021WAT      O69304   8.974   0.310   7.789
23021WAT     H169305   9.011   0.236   7.844
23021WAT     H269306   8.945   0.275   7.700
23022WAT      O69307   1.174   8.838   9.499
23022WAT     H169308   1.137   8.830   9.592
23022WAT     H269309   1.156   8.753   9.449
23023WAT      O69310   9.021   1.122   4.403
23023WAT     H169311   8.979   1.198   4.452
23023WAT     H269312   8.950   1.069   4.356
23024WAT      O69313   4.725   0.726   8.808
23024WAT     H169314   4.708   0.763   8.900
23024WAT     H269315   4.638   0.703   8.765
23025WAT      O69316   1.960   2.699   8.736
23025WAT     H169317   1.921   2.617   8.695
23025WAT     H269318   1.907   2.724   8.818
23026WAT      O69319   9.088   8.593   3.652
23026WAT     H169320   9.036   8.593   3.738
23026WAT     H269321   9.186   8.587   3.672
23027WAT      O69322   9.883   6.682   7.088
23027WAT     H169323   9.930   6.601   7.055
23027WAT     H269324   9.860   6.671   7.184
23028WAT      O69325   3.359   4.836   4.063
23028WAT     H169326   3.406   4.814   4.149
23028WAT     H269327   3.374   4.933   4.041
23029WAT      O69328   7.954   4.545   6.240
23029WAT     H169329   7.859   4.569   6.224
23029WAT     H269330   7.959   4.455   6.283
23030WAT      O69331   1.968   0.844   4.273
23030WAT     H169332   1.936   0.931   4.236
23030WAT     H269333   1.901   0.810   4.339
23031WAT      O69334   2.531   2.602   0.972
23031WAT     H169335   2.610   2.644   0.927
23031WAT     H269336   2.530   2.504   0.954
23032WAT      O69337   3.370   6.411   1.170
23032WAT     H169338   3.452   6.461   1.197
23032WAT     H269339   3.296   6.429   1.235
23033WAT      O69340   5.056   7.842   1.317
23033WAT     H169341   5.102   7.807   1.235
23033WAT     H269342   5.122   7.890   1.374
23034WAT      O69343   1.415   5.344   8.322
23034WAT     H169344   1.336   5.372   8.378
23034WAT     H269345   1.409   5.246   8.303
23035WAT      O69346   8.812   0.812   8.623
23035WAT     H169347   8.828   0.905   8.658
23035WAT     H269348   8.856   0.746   8.684
23036WAT      O69349   1.035   7.159   9.088
23036WAT     H169350   1.063   7.224   9.018
23036WAT     H269351   0.946   7.187   9.125
23037WAT      O69352   4.825   4.118   3.164
23037WAT     H169353   4.815   4.083   3.071
23037WAT     H269354   4.739   4.105   3.214
23038WAT      O69355   5.215   4.370   1.528
23038WAT     H169356   5.123   4.344   1.496
23038WAT     H269357   5.279   4.296   1.508
23039WAT      O69358   8.917   6.724   8.344
23039WAT     H169359   8.871   6.773   8.270
23039WAT     H269360   8.883   6.631   8.350
23040WAT      O69361   2.614   0.392   9.438
23040WAT     H169362   2.679   0.359   9.507
23040WAT     H269363   2.626   0.340   9.354
23041WAT      O69364   9.680   9.771   6.516
23041WAT     H169365   9.666   9.754   6.419
23041WAT     H269366   9.679   9.870   6.533
23042WAT      O69367   8.785   1.010   1.185
23042WAT     H169368   8.720   1.051   1.121
23042WAT     H269369   8.743   0.929   1.228
23043WAT      O69370   6.561   0.762   6.824
23043WAT     H169371   6.465   0.735   6.831
23043WAT     H269372   6.570   0.860   6.841
23044WAT      O69373   1.077   6.813   8.423
23044WAT     H169374   0.985   6.838   8.393
23044WAT     H269375   1.073   6.774   8.515
23045WAT      O69376   3.904   1.700   3.112
23045WAT     H169377   3.952   1.700   3.024
23045WAT     H269378   3.809   1.670   3.098
23046WAT      O69379   4.939   8.121   4.979
23046WAT     H169380   5.010   8.107   5.049
23046WAT     H269381   4.940   8.216   4.949
23047WAT      O69382   6.718   7.105   3.530
23047WAT     H169383   6.716   7.187   3.474
23047WAT     H269384   6.626   7.067   3.539
23048WAT      O69385   3.348   0.826   5.237
23048WAT     H169386   3.274   0.843   5.173
23048WAT     H269387   3.325   0.867   5.326
23049WAT      O69388   5.944   0.135   4.973
23049WAT     H169389   5.942   0.107   4.877
23049WAT     H269390   6.011   0.079   5.022
23050WAT      O69391   8.094   3.983   1.361
23050WAT     H169392   8.033   4.007   1.285
23050WAT     H269393   8.040   3.960   1.441
23051WAT      O69394   9.612   7.818   3.279
23051WAT     H169395   9.610   7.823   3.180
23051WAT     H269396   9.640   7.906   3.317
23052WAT      O69397   3.472   9.090   8.052
23052WAT     H169398   3.442   9.185   8.058
23052WAT     H269399   3.537   9.071   8.126
23053WAT      O69400   8.117   6.685   0.304
23053WAT     H169401   8.153   6.628   0.378
23053WAT     H269402   8.190   6.706   0.239
23054WAT      O69403   9.173   7.236   0.665
23054WAT     H169404   9.106   7.308   0.649
23054WAT     H269405   9.258   7.276   0.699
23055WAT      O69406   0.121   5.111   8.295
23055WAT     H169407   0.111   5.094   8.393
23055WAT     H269408   0.126   5.024   8.246
23056WAT      O69409   3.328   3.665   0.326
23056WAT     H169410   3.235   3.641   0.299
23056WAT     H269411   3.369   3.723   0.255
23057WAT      O69412   6.643   7.274   2.902
23057WAT     H169413   6.600   7.352   2.856
23057WAT     H269414   6.718   7.239   2.847
23058WAT      O69415   9.243   5.245   2.511
23058WAT     H169416   9.337   5.268   2.537
23058WAT     H269417   9.242   5.156   2.465
23059WAT      O69418   0.465   5.149   5.924
23059WAT     H169419   0.423   5.239   5.908
23059WAT     H269420   0.393   5.080   5.924
23060WAT      O69421   3.314   9.375   1.014
23060WAT     H169422   3.374   9.417   1.082
23060WAT     H269423   3.261   9.446   0.968
23061WAT      O69424   6.782   8.146   1.659
23061WAT     H169425   6.705   8.206   1.637
23061WAT     H269426   6.751   8.051   1.659
23062WAT      O69427   8.093   5.853   7.262
23062WAT     H169428   8.090   5.953   7.262
23062WAT     H269429   8.052   5.819   7.177
23063WAT      O69430   6.281   3.959   1.722
23063WAT     H169431   6.326   3.886   1.669
23063WAT     H269432   6.236   3.919   1.801
23064WAT      O69433   3.512   6.075   8.590
23064WAT     H169434   3.530   6.161   8.542
23064WAT     H269435   3.513   6.091   8.689
23065WAT      O69436   5.294   9.546   2.168
23065WAT     H169437   5.328   9.482   2.099
23065WAT     H269438   5.357   9.624   2.174
23066WAT      O69439   1.021   2.889   2.506
23066WAT     H169440   0.961   2.958   2.547
23066WAT     H269441   1.025   2.904   2.407
23067WAT      O69442   5.364   3.792   9.826
23067WAT     H169443   5.412   3.795   9.913
23067WAT     H269444   5.268   3.768   9.842
23068WAT      O69445   0.133   3.990   7.700
23068WAT     H169446   0.035   4.008   7.691
23068WAT     H269447   0.150   3.892   7.691
23069WAT      O69448   2.995   4.994   8.967
23069WAT     H169449   3.063   5.016   9.037
23069WAT     H269450   3.023   5.034   8.880
23070WAT      O69451   7.909   5.426   0.691
23070WAT     H169452   7.845   5.503   0.691
23070WAT     H269453   7.864   5.345   0.653
23071WAT      O69454   4.741   0.110   1.294
23071WAT     H169455   4.743   0.016   1.260
23071WAT     H269456   4.785   0.171   1.228
23072WAT      O69457   3.290   6.859   8.636
23072WAT     H169458   3.204   6.848   8.587
23072WAT     H269459   3.288   6.945   8.687
23073WAT      O69460   9.308   1.634   6.355
23073WAT     H169461   9.225   1.581   6.338
23073WAT     H269462   9.388   1.578   6.333
23074WAT      O69463   2.775   0.407   3.485
23074WAT     H169464   2.708   0.350   3.531
23074WAT     H269465   2.855   0.352   3.460
23075WAT      O69466   9.682   3.625   6.615
23075WAT     H169467   9.626   3.707   6.614
23075WAT     H269468   9.627   3.546   6.587
23076WAT      O69469   3.725   4.244   9.307
23076WAT     H169470   3.776   4.330   9.310
23076WAT     H269471   3.632   4.258   9.342
23077WAT      O69472   9.036   2.071   3.690
23077WAT     H169473   9.120   2.047   3.642
23077WAT     H269474   9.013   2.166   3.669
23078WAT      O69475   3.469   4.344   7.710
23078WAT     H169476   3.493   4.409   7.783
23078WAT     H269477   3.446   4.394   7.627
23079WAT      O69478   4.786   3.778   6.027
23079WAT     H169479   4.780   3.688   5.983
23079WAT     H269480   4.876   3.790   6.067
23080WAT      O69481   1.022   6.878   9.773
23080WAT     H169482   0.991   6.849   9.682
23080WAT     H269483   0.942   6.892   9.832
23081WAT      O69484   7.179   6.298   1.105
23081WAT     H169485   7.105   6.318   1.168
23081WAT     H269486   7.220   6.384   1.073
23082WAT      O69487   2.131   9.536   4.818
23082WAT     H169488   2.036   9.509   4.804
23082WAT     H269489   2.192   9.464   4.786
23083WAT      O69490   6.138   8.518   2.746
23083WAT     H169491   6.069   8.525   2.818
23083WAT     H269492   6.190   8.603   2.741
23084WAT      O69493   1.045   3.488   7.307
23084WAT     H169494   1.066   3.442   7.221
23084WAT     H269495   1.129   3.511   7.355
23085WAT      O69496   9.152   9.825   1.508
23085WAT     H169497   9.077   9.782   1.457
23085WAT     H269498   9.161   9.920   1.480
23086WAT      O69499   1.429   3.058   8.872
23086WAT     H169500   1.511   3.116   8.863
23086WAT     H269501   1.347   3.115   8.867
23087WAT      O69502   3.553   2.436   6.525
23087WAT     H169503   3.464   2.433   6.480
23087WAT     H269504   3.578   2.531   6.543
23088WAT      O69505   2.939   2.418   4.407
23088WAT     H169506   2.959   2.338   4.465
23088WAT     H269507   2.882   2.483   4.457
23089WAT      O69508   4.325   8.163   9.569
23089WAT     H169509   4.371   8.088   9.618
23089WAT     H269510   4.228   8.163   9.591
23090WAT      O69511   3.533   0.898   3.633
23090WAT     H169512   3.519   0.804   3.602
23090WAT     H269513   3.478   0.960   3.577
23091WAT      O69514   4.739   2.742   4.922
23091WAT     H169515   4.672   2.782   4.859
23091WAT     H269516   4.778   2.814   4.980
23092WAT      O69517   8.204   5.135   8.164
23092WAT     H169518   8.134   5.070   8.134
23092WAT     H269519   8.291   5.113   8.120
23093WAT      O69520   9.643   2.638   7.267
23093WAT     H169521   9.622   2.613   7.172
23093WAT     H269522   9.558   2.642   7.320
23094WAT      O69523   9.092   2.163   3.173
23094WAT     H169524   9.110   2.107   3.092
23094WAT     H269525   9.157   2.138   3.245
23095WAT      O69526   0.375   6.037   8.964
23095WAT     H169527   0.350   5.973   8.892
23095WAT     H269528   0.329   6.011   9.050
23096WAT      O69529   0.342   7.003   6.090
23096WAT     H169530   0.426   6.971   6.046
23096WAT     H269531   0.363   7.085   6.145
23097WAT      O69532   2.668   3.487   4.569
23097WAT     H169533   2.700   3.401   4.529
23097WAT     H269534   2.709   3.500   4.659
23098WAT      O69535   7.610   8.171   7.707
23098WAT     H169536   7.655   8.082   7.708
23098WAT     H269537   7.659   8.232   7.644
23099WAT      O69538   2.296   0.478   9.431
23099WAT     H169539   2.380   0.526   9.458
23099WAT     H269540   2.290   0.391   9.479
23100WAT      O69541   6.876   6.227   9.715
23100WAT     H169542   6.849   6.178   9.798
23100WAT     H269543   6.973   6.213   9.697
23101WAT      O69544   9.186   0.105   2.109
23101WAT     H169545   9.279   0.106   2.146
23101WAT     H269546   9.161   0.012   2.083
23102WAT      O69547   7.619   4.081   1.319
23102WAT     H169548   7.554   4.129   1.378
23102WAT     H269549   7.631   4.131   1.234
23103WAT      O69550   9.802   8.399   3.084
23103WAT     H169551   9.821   8.367   2.992
23103WAT     H269552   9.747   8.483   3.080
23104WAT      O69553   7.824   6.947   8.530
23104WAT     H169554   7.731   6.939   8.493
23104WAT     H269555   7.820   6.994   8.618
23105WAT      O69556   2.063   0.103   1.870
23105WAT     H169557   2.071   0.154   1.956
23105WAT     H269558   2.053   0.005   1.890
23106WAT      O69559   7.560   2.547   4.739
23106WAT     H169560   7.503   2.501   4.807
23106WAT     H269561   7.502   2.598   4.675
23107WAT      O69562   9.867   1.009   3.472
23107WAT     H169563   9.964   1.017   3.494
23107WAT     H269564   9.837   1.090   3.422
23108WAT      O69565   2.403   0.896   5.906
23108WAT     H169566   2.439   0.989   5.904
23108WAT     H269567   2.311   0.894   5.867
23109WAT      O69568   5.563   2.112   8.312
23109WAT     H169569   5.525   2.062   8.389
23109WAT     H269570   5.527   2.205   8.312
23110WAT      O69571   0.987   2.152   6.684
23110WAT     H169572   0.906   2.200   6.717
23110WAT     H269573   1.004   2.071   6.740
23111WAT      O69574   7.589   8.438   7.790
23111WAT     H169575   7.604   8.346   7.755
23111WAT     H269576   7.565   8.499   7.714
23112WAT      O69577   0.161   0.829   8.993
23112WAT     H169578   0.177   0.746   8.940
23112WAT     H269579   0.081   0.815   9.051
23113WAT      O69580   5.789   9.288   7.817
23113WAT     H169581   5.882   9.284   7.782
23113WAT     H269582   5.747   9.197   7.811
23114WAT      O69583   3.441   0.724   0.710
23114WAT     H169584   3.515   0.745   0.774
23114WAT     H269585   3.371   0.794   0.716
23115WAT      O69586   1.554   4.471   8.688
23115WAT     H169587   1.556   4.461   8.589
23115WAT     H269588   1.459   4.465   8.720
23116WAT      O69589   8.292   2.264   8.005
23116WAT     H169590   8.286   2.321   8.086
23116WAT     H269591   8.203   2.222   7.987
23117WAT      O69592   2.199   8.143   5.744
23117WAT     H169593   2.100   8.134   5.760
23117WAT     H269594   2.214   8.210   5.672
23118WAT      O69595   1.371   5.764   2.902
23118WAT     H169596   1.349   5.861   2.918
23118WAT     H269597   1.288   5.716   2.872
23119WAT      O69598   6.551   7.795   6.424
23119WAT     H169599   6.496   7.870   6.462
23119WAT     H269600   6.501   7.754   6.347
23120WAT      O69601   7.197   3.226   8.176
23120WAT     H169602   7.224   3.273   8.092
23120WAT     H269603   7.097   3.217   8.178
23121WAT      O69604   1.490   3.872   6.706
23121WAT     H169605   1.479   3.895   6.803
23121WAT     H269606   1.455   3.779   6.691
23122WAT      O69607   9.397   4.049   9.130
23122WAT     H169608   9.301   4.032   9.107
23122WAT     H269609   9.451   3.967   9.111
23123WAT      O69610   0.073   2.021   6.043
23123WAT     H169611   0.147   2.072   5.999
23123WAT     H269612   0.111   1.939   6.087
23124WAT      O69613   3.990   1.032   8.887
23124WAT     H169614   3.942   1.058   8.803
23124WAT     H269615   4.001   0.933   8.889
23125WAT      O69616   6.932   8.037   5.033
23125WAT     H169617   6.914   8.096   4.954
23125WAT     H269618   7.028   8.045   5.059
23126WAT      O69619   0.276   6.650   3.234
23126WAT     H169620   0.250   6.639   3.138
23126WAT     H269621   0.274   6.560   3.279
23127WAT      O69622   6.103   3.686   2.895
23127WAT     H169623   6.193   3.643   2.892
23127WAT     H269624   6.039   3.627   2.944
23128WAT      O69625   2.907   7.467   6.982
23128WAT     H169626   2.892   7.554   7.028
23128WAT     H269627   2.938   7.483   6.888
23129WAT      O69628   3.217   8.107   1.655
23129WAT     H169629   3.156   8.186   1.653
23129WAT     H269630   3.245   8.088   1.749
23130WAT      O69631   3.466   4.059   9.126
23130WAT     H169632   3.473   4.127   9.199
23130WAT     H269633   3.385   4.002   9.141
23131WAT      O69634   0.119   4.992   6.373
23131WAT     H169635   0.051   5.056   6.408
23131WAT     H269636   0.125   4.913   6.434
23132WAT      O69637   7.926   9.150   2.514
23132WAT     H169638   7.916   9.143   2.614
23132WAT     H269639   7.864   9.086   2.470
23133WAT      O69640   3.148   2.173   1.865
23133WAT     H169641   3.149   2.162   1.765
23133WAT     H269642   3.240   2.194   1.897
23134WAT      O69643   0.629   5.245   0.509
23134WAT     H169644   0.670   5.260   0.599
23134WAT     H269645   0.530   5.264   0.514
23135WAT      O69646   8.629   5.486   2.391
23135WAT     H169647   8.550   5.547   2.383
23135WAT     H269648   8.709   5.538   2.420
23136WAT      O69649   4.867   0.327   4.702
23136WAT     H169650   4.792   0.299   4.642
23136WAT     H269651   4.929   0.388   4.652
23137WAT      O69652   0.391   6.605   4.728
23137WAT     H169653   0.336   6.530   4.693
23137WAT     H269654   0.337   6.659   4.792
23138WAT      O69655   2.643   8.081   8.836
23138WAT     H169656   2.709   8.156   8.834
23138WAT     H269657   2.681   8.002   8.789
23139WAT      O69658   6.977   5.657   9.141
23139WAT     H169659   6.897   5.596   9.148
23139WAT     H269660   7.060   5.606   9.165
23140WAT      O69661   5.722   4.365   2.900
23140WAT     H169662   5.650   4.374   2.832
23140WAT     H269663   5.686   4.320   2.982
23141WAT      O69664   6.310   6.793   7.338
23141WAT     H169665   6.332   6.696   7.337
23141WAT     H269666   6.322   6.831   7.246
23142WAT      O69667   2.229   3.415   7.882
23142WAT     H169668   2.319   3.454   7.903
23142WAT     H269669   2.189   3.462   7.803
23143WAT      O69670   5.226   8.269   6.940
23143WAT     H169671   5.150   8.290   7.001
23143WAT     H269672   5.250   8.351   6.889
23144WAT      O69673   9.313   4.275   5.695
23144WAT     H169674   9.214   4.266   5.682
23144WAT     H269675   9.360   4.205   5.642
23145WAT      O69676   5.577   0.691   4.040
23145WAT     H169677   5.570   0.764   3.971
23145WAT     H269678   5.669   0.652   4.037
23146WAT      O69679   4.357   1.353   4.686
23146WAT     H169680   4.324   1.392   4.772
23146WAT     H269681   4.452   1.381   4.671
23147WAT      O69682   6.040   7.754   1.725
23147WAT     H169683   6.127   7.801   1.719
23147WAT     H269684   6.055   7.659   1.752
23148WAT      O69685   1.292   6.555   2.834
23148WAT     H169686   1.327   6.615   2.906
23148WAT     H269687   1.194   6.540   2.847
23149WAT      O69688   2.284   3.764   3.907
23149WAT     H169689   2.234   3.684   3.876
23149WAT     H269690   2.378   3.738   3.930
23150WAT      O69691   5.452   0.397   2.806
23150WAT     H169692   5.523   0.467   2.806
23150WAT     H269693   5.493   0.308   2.782
23151WAT      O69694   5.334   6.276   3.242
23151WAT     H169695   5.345   6.200   3.306
23151WAT     H269696   5.321   6.241   3.150
23152WAT      O69697   6.194   7.219   5.086
23152WAT     H169698   6.279   7.168   5.102
23152WAT     H269699   6.124   7.157   5.049
23153WAT      O69700   7.986   0.875   5.369
23153WAT     H169701   7.922   0.798   5.360
23153WAT     H269702   8.079   0.842   5.357
23154WAT      O69703   0.384   6.298   3.823
23154WAT     H169704   0.461   6.275   3.883
23154WAT     H269705   0.316   6.224   3.827
23155WAT      O69706   3.570   1.262   3.780
23155WAT     H169707   3.615   1.266   3.870
23155WAT     H269708   3.633   1.223   3.713
23156WAT      O69709   5.921   6.004   4.090
23156WAT     H169710   5.851   6.006   4.161
23156WAT     H269711   5.989   5.935   4.112
23157WAT      O69712   2.006   1.243   5.173
23157WAT     H169713   1.943   1.315   5.203
23157WAT     H269714   1.986   1.158   5.222
23158WAT      O69715   2.233   5.928   5.653
23158WAT     H169716   2.185   5.914   5.567
23158WAT     H269717   2.332   5.930   5.637
23159WAT      O69718   0.269   7.209   9.313
23159WAT     H169719   0.262   7.115   9.279
23159WAT     H269720   0.211   7.269   9.259
23160WAT      O69721   7.625   4.416   0.576
23160WAT     H169722   7.590   4.451   0.489
23160WAT     H269723   7.589   4.470   0.651
23161WAT      O69724   5.292   6.755   6.753
23161WAT     H169725   5.367   6.766   6.818
23161WAT     H269726   5.329   6.739   6.662
23162WAT      O69727   6.867   4.226   6.707
23162WAT     H169728   6.889   4.180   6.621
23162WAT     H269729   6.778   4.272   6.699
23163WAT      O69730   3.751   4.645   3.235
23163WAT     H169731   3.846   4.670   3.253
23163WAT     H269732   3.712   4.603   3.317
23164WAT      O69733   1.053   2.604   2.860
23164WAT     H169734   1.052   2.649   2.771
23164WAT     H269735   1.077   2.670   2.931
23165WAT      O69736   4.661   2.090   5.175
23165WAT     H169737   4.730   2.025   5.206
23165WAT     H269738   4.605   2.119   5.252
23166WAT      O69739   6.513   7.416   0.428
23166WAT     H169740   6.592   7.451   0.478
23166WAT     H269741   6.528   7.319   0.406
23167WAT      O69742   5.132   7.998   7.674
23167WAT     H169743   5.130   8.089   7.632
23167WAT     H269744   5.205   7.944   7.632
23168WAT      O69745   9.792   2.230   4.998
23168WAT     H169746   9.792   2.211   4.900
23168WAT     H269747   9.779   2.145   5.049
23169WAT      O69748   3.063   1.054   5.532
23169WAT     H169749   2.969   1.023   5.548
23169WAT     H269750   3.089   1.036   5.437
23170WAT      O69751   0.641   9.798   8.325
23170WAT     H169752   0.678   9.759   8.240
23170WAT     H269753   0.664   9.895   8.329
23171WAT      O69754   3.702   9.780   8.016
23171WAT     H169755   3.798   9.775   8.043
23171WAT     H269756   3.676   9.876   8.002
23172WAT      O69757   2.849   5.489   9.614
23172WAT     H169758   2.791   5.564   9.582
23172WAT     H269759   2.867   5.426   9.539
23173WAT      O69760   9.851   3.065   8.840
23173WAT     H169761   9.918   3.027   8.776
23173WAT     H269762   9.760   3.033   8.816
23174WAT      O69763   7.753   3.564   6.594
23174WAT     H169764   7.754   3.470   6.629
23174WAT     H269765   7.833   3.580   6.537
23175WAT      O69766   0.860   4.192   0.804
23175WAT     H169767   0.911   4.199   0.890
23175WAT     H269768   0.829   4.098   0.791
23176WAT      O69769   1.252   0.762   6.259
23176WAT     H169770   1.232   0.728   6.351
23176WAT     H269771   1.285   0.687   6.202
23177WAT      O69772   6.020   2.485   0.429
23177WAT     H169773   6.004   2.520   0.521
23177WAT     H269774   5.932   2.466   0.385
23178WAT      O69775   4.049   7.948   7.550
23178WAT     H169776   4.131   7.892   7.554
23178WAT     H269777   3.984   7.917   7.620
23179WAT      O69778   0.131   7.770   6.801
23179WAT     H169779   0.153   7.806   6.710
23179WAT     H269780   0.147   7.841   6.870
23180WAT      O69781   7.068   1.348   1.996
23180WAT     H169782   7.016   1.433   2.003
23180WAT     H269783   7.155   1.358   2.043
23181WAT      O69784   2.238   9.719   4.441
23181WAT     H169785   2.326   9.672   4.429
23181WAT     H269786   2.176   9.692   4.368
23182WAT      O69787   3.019   3.557   2.141
23182WAT     H169788   3.116   3.581   2.139
23182WAT     H269789   3.005   3.477   2.199
23183WAT      O69790   8.296   6.979   7.192
23183WAT     H169791   8.374   7.041   7.179
23183WAT     H269792   8.229   6.994   7.120
23184WAT      O69793   3.555   3.256   8.087
23184WAT     H169794   3.568   3.263   8.186
23184WAT     H269795   3.634   3.211   8.046
23185WAT      O69796   6.204   8.625   8.352
23185WAT     H169797   6.176   8.705   8.405
23185WAT     H269798   6.178   8.637   8.256
23186WAT      O69799   3.241   2.298   0.646
23186WAT     H169800   3.178   2.331   0.576
23186WAT     H269801   3.193   2.287   0.733
23187WAT      O69802   5.457   2.332   2.240
23187WAT     H169803   5.526   2.405   2.242
23187WAT     H269804   5.429   2.314   2.145
23188WAT      O69805   6.715   1.359   7.578
23188WAT     H169806   6.748   1.403   7.495
23188WAT     H269807   6.773   1.281   7.601
23189WAT      O69808   1.498   2.731   3.649
23189WAT     H169809   1.477   2.760   3.556
23189WAT     H269810   1.588   2.687   3.650
23190WAT      O69811   7.734   7.755   1.346
23190WAT     H169812   7.661   7.711   1.293
23190WAT     H269813   7.732   7.719   1.440
23191WAT      O69814   4.198   3.972   5.761
23191WAT     H169815   4.266   3.899   5.770
23191WAT     H269816   4.127   3.942   5.697
23192WAT      O69817   2.775   6.145   1.587
23192WAT     H169818   2.759   6.048   1.610
23192WAT     H269819   2.721   6.169   1.507
23193WAT      O69820   6.462   3.074   6.114
23193WAT     H169821   6.500   3.167   6.109
23193WAT     H269822   6.414   3.053   6.029
23194WAT      O69823   9.223   4.982   3.504
23194WAT     H169824   9.269   4.934   3.578
23194WAT     H269825   9.291   5.025   3.444
23195WAT      O69826   7.735   7.676   3.637
23195WAT     H169827   7.673   7.656   3.712
23195WAT     H269828   7.683   7.689   3.553
23196WAT      O69829   9.672   3.831   1.194
23196WAT     H169830   9.686   3.780   1.109
23196WAT     H269831   9.679   3.768   1.272
23197WAT      O69832   6.429   3.294   7.983
23197WAT     H169833   6.340   3.267   8.019
23197WAT     H269834   6.494   3.304   8.058
23198WAT      O69835   6.965   9.703   4.179
23198WAT     H169836   7.009   9.729   4.093
23198WAT     H269837   6.967   9.603   4.188
23199WAT      O69838   0.454   3.794   2.328
23199WAT     H169839   0.386   3.722   2.323
23199WAT     H269840   0.533   3.762   2.382
23200WAT      O69841   9.290   3.596   4.743
23200WAT     H169842   9.350   3.623   4.668
23200WAT     H269843   9.203   3.564   4.705
23201WAT      O69844   7.025   1.979   4.487
23201WAT     H169845   7.034   2.079   4.493
23201WAT     H269846   6.984   1.954   4.400
23202WAT      O69847   7.602   5.114   5.494
23202WAT     H169848   7.566   5.096   5.403
23202WAT     H269849   7.633   5.209   5.499
23203WAT      O69850   8.356   7.695   1.071
23203WAT     H169851   8.418   7.735   1.138
23203WAT     H269852   8.321   7.608   1.106
23204WAT      O69853   3.794   0.139   2.859
23204WAT     H169854   3.826   0.194   2.936
23204WAT     H269855   3.757   0.053   2.893
23205WAT      O69856   8.466   9.136   9.155
23205WAT     H169857   8.560   9.110   9.134
23205WAT     H269858   8.403   9.066   9.121
23206WAT      O69859   5.836   0.313   4.374
23206WAT     H169860   5.866   0.406   4.353
23206WAT     H269861   5.913   0.251   4.368
23207WAT      O69862   7.071   2.263   5.470
23207WAT     H169863   7.047   2.277   5.566
23207WAT     H269864   7.168   2.241   5.463
23208WAT      O69865   1.956   9.563   6.296
23208WAT     H169866   2.002   9.571   6.384
23208WAT     H269867   1.858   9.580   6.308
23209WAT      O69868   0.151   5.813   0.656
23209WAT     H169869   0.156   5.883   0.727
23209WAT     H269870   0.237   5.811   0.605
23210WAT      O69871   2.405   8.754   5.352
23210WAT     H169872   2.352   8.835   5.375
23210WAT     H269873   2.497   8.781   5.324
23211WAT      O69874   1.550   8.111   1.155
23211WAT     H169875   1.599   8.121   1.069
23211WAT     H269876   1.602   8.051   1.216
23212WAT      O69877   3.517   5.670   6.780
23212WAT     H169878   3.424   5.670   6.743
23212WAT     H269879   3.581   5.696   6.708
23213WAT      O69880   7.841   4.618   3.680
23213WAT     H169881   7.849   4.717   3.669
23213WAT     H269882   7.860   4.574   3.592
23214WAT      O69883   2.246   7.504   2.131
23214WAT     H169884   2.260   7.503   2.230
23214WAT     H269885   2.151   7.477   2.111
23215WAT      O69886   7.185   4.813   9.628
23215WAT     H169887   7.231   4.775   9.709
23215WAT     H269888   7.096   4.848   9.655
23216WAT      O69889   8.732   1.755   8.407
23216WAT     H169890   8.661   1.796   8.464
23216WAT     H269891   8.693   1.728   8.319
23217WAT      O69892   5.553   7.613   8.449
23217WAT     H169893   5.558   7.657   8.539
23217WAT     H269894   5.639   7.567   8.429
23218WAT      O69895   8.278   4.776   1.185
23218WAT     H169896   8.260   4.872   1.161
23218WAT     H269897   8.309   4.727   1.103
23219WAT      O69898   9.169   1.149   0.182
23219WAT     H169899   9.233   1.225   0.188
23219WAT     H269900   9.183   1.100   0.095
23220WAT      O69901   1.135   6.018   3.089
23220WAT     H169902   1.233   6.038   3.077
23220WAT     H269903   1.088   6.100   3.120
23221WAT      O69904   0.748   8.380   0.177
23221WAT     H169905   0.739   8.365   0.078
23221WAT     H269906   0.659   8.404   0.215
23222WAT      O69907   2.029   9.733   5.372
23222WAT     H169908   1.946   9.742   5.316
23222WAT     H269909   2.089   9.664   5.331
23223WAT      O69910   9.033   5.974   4.714
23223WAT     H169911   9.055   5.877   4.714
23223WAT     H269912   9.097   6.023   4.655
23224WAT      O69913   8.872   2.527   5.327
23224WAT     H169914   8.800   2.501   5.392
23224WAT     H269915   8.838   2.515   5.234
23225WAT      O69916   7.423   8.677   5.462
23225WAT     H169917   7.489   8.602   5.468
23225WAT     H269918   7.339   8.652   5.509
23226WAT      O69919   2.507   4.986   6.694
23226WAT     H169920   2.595   5.008   6.737
23226WAT     H269921   2.451   4.933   6.756
23227WAT      O69922   7.470   4.807   0.264
23227WAT     H169923   7.449   4.771   0.173
23227WAT     H269924   7.476   4.731   0.329
23228WAT      O69925   3.722   8.888   4.546
23228WAT     H169926   3.770   8.806   4.515
23228WAT     H269927   3.695   8.877   4.642
23229WAT      O69928   4.447   0.102   9.468
23229WAT     H169929   4.524   0.128   9.410
23229WAT     H269930   4.480   0.049   9.546
23230WAT      O69931   3.998   7.807   2.679
23230WAT     H169932   3.949   7.893   2.660
23230WAT     H269933   4.050   7.780   2.598
23231WAT      O69934   3.200   3.549   0.879
23231WAT     H169935   3.189   3.643   0.847
23231WAT     H269936   3.246   3.495   0.809
23232WAT      O69937   3.665   6.637   2.005
23232WAT     H169938   3.762   6.657   1.997
23232WAT     H269939   3.652   6.557   2.064
23233WAT      O69940   7.293   3.953   6.948
23233WAT     H169941   7.237   4.007   6.885
23233WAT     H269942   7.369   4.009   6.981
23234WAT      O69943   3.433   2.363   5.632
23234WAT     H169944   3.471   2.303   5.702
23234WAT     H269945   3.421   2.455   5.669
23235WAT      O69946   2.240   4.773   1.850
23235WAT     H169947   2.296   4.770   1.766
23235WAT     H269948   2.168   4.842   1.839
23236WAT      O69949   5.906   7.862   6.947
23236WAT     H169950   5.911   7.768   6.912
23236WAT     H269951   5.893   7.860   7.046
23237WAT      O69952   8.102   1.481   6.635
23237WAT     H169953   8.180   1.511   6.690
23237WAT     H269954   8.094   1.540   6.554
23238WAT      O69955   5.110   8.112   5.208
23238WAT     H169956   5.080   8.141   5.299
23238WAT     H269957   5.119   8.012   5.206
23239WAT      O69958   2.071   8.600   7.817
23239WAT     H169959   2.077   8.518   7.873
23239WAT     H269960   2.024   8.672   7.868
23240WAT      O69961   8.447   3.299   5.937
23240WAT     H169962   8.416   3.204   5.934
23240WAT     H269963   8.475   3.329   5.846
23241WAT      O69964   1.717   3.868   8.720
23241WAT     H169965   1.701   3.866   8.622
23241WAT     H269966   1.780   3.944   8.742
23242WAT      O69967   1.090   7.624   8.172
23242WAT     H169968   1.112   7.714   8.134
23242WAT     H269969   1.167   7.592   8.228
23243WAT      O69970   3.922   0.199   8.727
23243WAT     H169971   4.005   0.156   8.762
23243WAT     H269972   3.847   0.185   8.792
23244WAT      O69973   5.816   6.208   7.785
23244WAT     H169974   5.819   6.108   7.794
23244WAT     H269975   5.900   6.240   7.743
23245WAT      O69976   0.420   7.743   2.932
23245WAT     H169977   0.342   7.707   2.983
23245WAT     H269978   0.500   7.749   2.992
23246WAT      O69979   1.430   3.807   3.582
23246WAT     H169980   1.409   3.770   3.672
23246WAT     H269981   1.485   3.741   3.530
23247WAT      O69982   7.596   7.169   0.243
23247WAT     H169983   7.613   7.198   0.148
23247WAT     H269984   7.681   7.171   0.294
23248WAT      O69985   7.631   9.789   0.125
23248WAT     H169986   7.628   9.831   0.216
23248WAT     H269987   7.545   9.742   0.108
23249WAT      O69988   5.355   5.293   0.997
23249WAT     H169989   5.264   5.282   0.957
23249WAT     H269990   5.408   5.358   0.942
23250WAT      O69991   7.780   4.113   3.397
23250WAT     H169992   7.757   4.016   3.385
23250WAT     H269993   7.750   4.143   3.487
23251WAT      O69994   7.975   4.853   7.605
23251WAT     H169995   7.940   4.842   7.511
23251WAT     H269996   7.962   4.767   7.654
23252WAT      O69997   8.651   9.673   9.262
23252WAT     H169998   8.604   9.700   9.346
23252WAT     H269999   8.597   9.703   9.183
23253WAT      O70000   2.227   7.403   0.181
23253WAT     H170001   2.182   7.468   0.120
23253WAT     H270002   2.322   7.390   0.151
23254WAT      O70003   4.334   2.530   6.866
23254WAT     H170004   4.268   2.602   6.842
23254WAT     H270005   4.426   2.568   6.865
23255WAT      O70006   9.697   6.389   3.423
23255WAT     H170007   9.766   6.401   3.494
23255WAT     H270008   9.729   6.428   3.337
23256WAT      O70009   1.956   1.649   8.014
23256WAT     H170010   1.905   1.643   7.928
23256WAT     H270011   2.038   1.593   8.008
23257WAT      O70012   1.046   4.773   2.181
23257WAT     H170013   0.964   4.718   2.163
23257WAT     H270014   1.060   4.837   2.106
23258WAT      O70015   9.493   7.405   9.448
23258WAT     H170016   9.541   7.320   9.470
23258WAT     H270017   9.531   7.444   9.364
23259WAT      O70018   3.980   6.603   1.750
23259WAT     H170019   3.959   6.563   1.840
23259WAT     H270020   4.023   6.534   1.692
23260WAT      O70021   0.565   8.987   7.398
23260WAT     H170022   0.531   9.080   7.405
23260WAT     H270023   0.577   8.963   7.301
23261WAT      O70024   1.657   9.823   1.794
23261WAT     H170025   1.710   9.749   1.836
23261WAT     H270026   1.586   9.853   1.858
23262WAT      O70027   5.927   5.036   4.395
23262WAT     H170028   5.992   4.972   4.355
23262WAT     H270029   5.875   4.991   4.467
23263WAT      O70030   4.615   3.705   3.477
23263WAT     H170031   4.603   3.790   3.427
23263WAT     H270032   4.588   3.719   3.573
23264WAT      O70033   4.491   3.385   9.134
23264WAT     H170034   4.559   3.334   9.186
23264WAT     H270035   4.496   3.360   9.037
23265WAT      O70036   7.666   5.919   9.805
23265WAT     H170037   7.669   5.847   9.735
23265WAT     H270038   7.752   5.971   9.803
23266WAT      O70039   8.846   0.929   8.966
23266WAT     H170040   8.750   0.951   8.947
23266WAT     H270041   8.870   0.843   8.923
23267WAT      O70042   0.475   0.535   2.067
23267WAT     H170043   0.505   0.620   2.024
23267WAT     H270044   0.483   0.460   2.001
23268WAT      O70045   5.962   2.349   5.536
23268WAT     H170046   6.027   2.367   5.462
23268WAT     H270047   5.886   2.295   5.500
23269WAT      O70048   7.382   9.081   7.777
23269WAT     H170049   7.414   9.038   7.861
23269WAT     H270050   7.315   9.022   7.733
23270WAT      O70051   0.709   1.787   5.163
23270WAT     H170052   0.678   1.861   5.221
23270WAT     H270053   0.781   1.820   5.102
23271WAT      O70054   8.070   8.865   0.586
23271WAT     H170055   8.017   8.877   0.670
23271WAT     H270056   8.025   8.914   0.511
23272WAT      O70057   8.017   3.269   4.843
23272WAT     H170058   8.008   3.319   4.757
23272WAT     H270059   7.942   3.203   4.851
23273WAT      O70060   0.034   5.804   8.950
23273WAT     H170061   0.119   5.849   8.923
23273WAT     H270062   0.022   5.720   8.897
23274WAT      O70063   6.700   1.833   2.026
23274WAT     H170064   6.613   1.784   2.016
23274WAT     H270065   6.683   1.921   2.071
23275WAT      O70066   0.010   5.810   6.377
23275WAT     H170067   0.077   5.761   6.433
23275WAT     H270068  -0.066   5.749   6.355
23276WAT      O70069   1.088   8.149   8.568
23276WAT     H170070   1.095   8.165   8.667
23276WAT     H270071   1.180   8.150   8.528
23277WAT      O70072   9.410   6.029   7.107
23277WAT     H170073   9.393   6.050   7.010
23277WAT     H270074   9.471   6.098   7.145
23278WAT      O70075   6.278   4.854   4.786
23278WAT     H170076   6.264   4.842   4.687
23278WAT     H270077   6.336   4.934   4.802
23279WAT      O70078   0.266   5.235   6.334
23279WAT     H170079   0.200   5.279   6.273
23279WAT     H270080   0.220   5.162   6.386
23280WAT      O70081   3.994   0.726   2.502
23280WAT     H170082   4.033   0.637   2.527
23280WAT     H270083   3.917   0.747   2.562
23281WAT      O70084   6.955   5.770   4.206
23281WAT     H170085   6.960   5.848   4.143
23281WAT     H270086   6.937   5.803   4.299
23282WAT      O70087   8.714   3.398   4.422
23282WAT     H170088   8.685   3.385   4.517
23282WAT     H270089   8.688   3.490   4.391
23283WAT      O70090   9.811   0.489   2.186
23283WAT     H170091   9.763   0.575   2.169
23283WAT     H270092   9.866   0.497   2.269
23284WAT      O70093   7.663   0.025   6.764
23284WAT     H170094   7.633   0.032   6.859
23284WAT     H270095   7.745   0.080   6.751
23285WAT      O70096   4.630   7.928   7.375
23285WAT     H170097   4.642   8.026   7.357
23285WAT     H270098   4.700   7.897   7.440
23286WAT      O70099   0.119   9.487   7.153
23286WAT     H170100   0.124   9.512   7.249
23286WAT     H270101   0.139   9.566   7.095
23287WAT      O70102   1.883   4.147   3.416
23287WAT     H170103   1.904   4.124   3.321
23287WAT     H270104   1.846   4.066   3.463
23288WAT      O70105   4.358   4.404   9.805
23288WAT     H170106   4.315   4.479   9.854
23288WAT     H270107   4.359   4.424   9.707
23289WAT      O70108   9.610   1.986   1.911
23289WAT     H170109   9.586   2.057   1.978
23289WAT     H270110   9.670   1.919   1.955
23290WAT      O70111   5.165   1.723   4.392
23290WAT     H170112   5.189   1.626   4.394
23290WAT     H270113   5.066   1.732   4.393
23291WAT      O70114   0.265   1.297   3.477
23291WAT     H170115   0.256   1.303   3.577
23291WAT     H270116   0.205   1.364   3.434
23292WAT      O70117   9.581   7.668   1.458
23292WAT     H170118   9.551   7.696   1.367
23292WAT     H270119   9.524   7.712   1.527
23293WAT      O70120   0.371   2.148   3.339
23293WAT     H170121   0.377   2.053   3.308
23293WAT     H270122   0.282   2.185   3.313
23294WAT      O70123   8.936   8.826   3.525
23294WAT     H170124   8.882   8.885   3.586
23294WAT     H270125   8.997   8.769   3.579
23295WAT      O70126   5.422   3.522   0.707
23295WAT     H170127   5.339   3.471   0.729
23295WAT     H270128   5.422   3.608   0.757
23296WAT      O70129   2.735   3.374   3.018
23296WAT     H170130   2.790   3.308   2.967
23296WAT     H270131   2.689   3.328   3.093
23297WAT      O70132   1.694   3.569   1.489
23297WAT     H170133   1.732   3.594   1.578
23297WAT     H270134   1.761   3.586   1.418
23298WAT      O70135   6.465   9.372   3.053
23298WAT     H170136   6.367   9.388   3.048
23298WAT     H270137   6.504   9.376   2.961
23299WAT      O70138   7.196   6.650   4.389
23299WAT     H170139   7.195   6.579   4.318
23299WAT     H270140   7.287   6.653   4.431
23300WAT      O70141   8.035   2.431   8.951
23300WAT     H170142   7.986   2.354   8.909
23300WAT     H270143   8.126   2.401   8.979
23301WAT      O70144   7.703   1.483   1.867
23301WAT     H170145   7.701   1.578   1.898
23301WAT     H270146   7.612   1.442   1.881
23302WAT      O70147   9.420   0.666   0.873
23302WAT     H170148   9.344   0.621   0.921
23302WAT     H270149   9.504   0.654   0.926
23303WAT      O70150   0.071   8.115   2.173
23303WAT     H170151  -0.023   8.127   2.204
23303WAT     H270152   0.119   8.053   2.236
23304WAT      O70153   8.028   7.226   2.920
23304WAT     H170154   8.119   7.212   2.881
23304WAT     H270155   7.984   7.137   2.934
23305WAT      O70156   3.841   8.242   5.595
23305WAT     H170157   3.873   8.176   5.527
23305WAT     H270158   3.889   8.329   5.583
23306WAT      O70159   6.996   0.270   7.319
23306WAT     H170160   6.941   0.264   7.402
23306WAT     H270161   6.978   0.358   7.274
23307WAT      O70162   0.542   8.344   9.721
23307WAT     H170163   0.584   8.427   9.757
23307WAT     H270164   0.511   8.360   9.627
23308WAT      O70165   2.790   7.877   1.227
23308WAT     H170166   2.707   7.859   1.174
23308WAT     H270167   2.868   7.885   1.165
23309WAT      O70168   2.464   2.112   9.203
23309WAT     H170169   2.437   2.028   9.250
23309WAT     H270170   2.438   2.106   9.107
23310WAT      O70171   4.962   6.030   2.301
23310WAT     H170172   5.056   6.012   2.332
23310WAT     H270173   4.922   6.101   2.358
23311WAT      O70174   0.986   5.639   0.648
23311WAT     H170175   0.898   5.683   0.668
23311WAT     H270176   1.025   5.679   0.565
23312WAT      O70177   0.259   6.530   7.864
23312WAT     H170178   0.273   6.434   7.890
23312WAT     H270179   0.170   6.560   7.897
23313WAT      O70180   3.583   9.721   1.069
23313WAT     H170181   3.535   9.653   1.125
23313WAT     H270182   3.675   9.734   1.104
23314WAT      O70183   7.802   0.485   6.086
23314WAT     H170184   7.766   0.551   6.020
23314WAT     H270185   7.786   0.518   6.179
23315WAT      O70186   3.295   9.210   7.134
23315WAT     H170187   3.276   9.255   7.046
23315WAT     H270188   3.220   9.229   7.197
23316WAT      O70189   0.624   3.203   2.247
23316WAT     H170190   0.546   3.249   2.290
23316WAT     H270191   0.594   3.116   2.209
23317WAT      O70192   8.927   6.815   9.262
23317WAT     H170193   8.990   6.867   9.320
23317WAT     H270194   8.937   6.717   9.283
23318WAT      O70195   0.825   6.536   8.738
23318WAT     H170196   0.821   6.542   8.838
23318WAT     H270197   0.898   6.474   8.711
23319WAT      O70198   2.285   7.377   8.029
23319WAT     H170199   2.342   7.356   7.950
23319WAT     H270200   2.337   7.434   8.093
23320WAT      O70201   6.276   9.543   4.406
23320WAT     H170202   6.250   9.573   4.498
23320WAT     H270203   6.316   9.452   4.411
23321WAT      O70204   3.478   6.128   5.341
23321WAT     H170205   3.524   6.043   5.368
23321WAT     H270206   3.413   6.108   5.268
23322WAT      O70207   1.828   6.116   3.665
23322WAT     H170208   1.920   6.146   3.638
23322WAT     H270209   1.768   6.116   3.584
23323WAT      O70210   1.885   4.492   5.409
23323WAT     H170211   1.960   4.434   5.377
23323WAT     H270212   1.893   4.506   5.508
23324WAT      O70213   8.191   8.294   5.127
23324WAT     H170214   8.147   8.207   5.150
23324WAT     H270215   8.281   8.276   5.088
23325WAT      O70216   2.449   1.158   5.942
23325WAT     H170217   2.418   1.165   5.847
23325WAT     H270218   2.481   1.248   5.973
23326WAT      O70219   3.588   9.529   6.286
23326WAT     H170220   3.519   9.574   6.228
23326WAT     H270221   3.542   9.472   6.353
23327WAT      O70222   5.557   3.431   6.997
23327WAT     H170223   5.457   3.430   6.988
23327WAT     H270224   5.582   3.423   7.093
23328WAT      O70225   5.823   7.589   7.700
23328WAT     H170226   5.751   7.646   7.660
23328WAT     H270227   5.894   7.648   7.738
23329WAT      O70228   2.504   1.889   3.419
23329WAT     H170229   2.561   1.956   3.465
23329WAT     H270230   2.416   1.930   3.396
23330WAT      O70231   5.641   7.548   0.514
23330WAT     H170232   5.720   7.583   0.464
23330WAT     H270233   5.570   7.618   0.517
23331WAT      O70234   4.234   0.604   0.175
23331WAT     H170235   4.191   0.532   0.119
23331WAT     H270236   4.280   0.670   0.115
23332WAT      O70237   0.091   0.235   0.862
23332WAT     H170238   0.062   0.188   0.946
23332WAT     H270239   0.068   0.179   0.783
23333WAT      O70240   7.256   5.658   9.759
23333WAT     H170241   7.331   5.622   9.815
23333WAT     H270242   7.293   5.698   9.675
23334WAT      O70243   9.459   1.261   0.243
23334WAT     H170244   9.546   1.247   0.197
23334WAT     H270245   9.428   1.175   0.284
23335WAT      O70246   5.067   5.307   1.053
23335WAT     H170247   5.032   5.266   0.969
23335WAT     H270248   4.991   5.324   1.116
23336WAT      O70249   4.561   0.811   1.851
23336WAT     H170250   4.461   0.817   1.852
23336WAT     H270251   4.599   0.859   1.929
23337WAT      O70252   6.597   1.635   9.415
23337WAT     H170253   6.545   1.550   9.416
23337WAT     H270254   6.537   1.711   9.439
23338WAT      O70255   1.976   4.544   3.680
23338WAT     H170256   1.887   4.563   3.722
23338WAT     H270257   1.962   4.506   3.589
23339WAT      O70258   8.511   1.167   3.210
23339WAT     H170259   8.504   1.267   3.211
23339WAT     H270260   8.430   1.128   3.167
23340WAT      O70261   6.833   5.390   2.342
23340WAT     H170262   6.845   5.400   2.243
23340WAT     H270263   6.750   5.337   2.360
23341WAT      O70264   2.485   3.086   1.431
23341WAT     H170265   2.471   3.180   1.458
23341WAT     H270266   2.582   3.071   1.412
23342WAT      O70267   9.629   5.711   8.075
23342WAT     H170268   9.701   5.715   8.006
23342WAT     H270269   9.669   5.724   8.166
23343WAT      O70270   7.239   2.194   3.889
23343WAT     H170271   7.209   2.210   3.983
23343WAT     H270272   7.336   2.216   3.882
23344WAT      O70273   3.479   7.262   4.334
23344WAT     H170274   3.422   7.320   4.276
23344WAT     H270275   3.553   7.316   4.373
23345WAT      O70276   9.201   3.294   1.752
23345WAT     H170277   9.249   3.236   1.686
23345WAT     H270278   9.180   3.242   1.834
23346WAT      O70279   8.426   3.846   2.334
23346WAT     H170280   8.356   3.799   2.279
23346WAT     H270281   8.382   3.918   2.388
23347WAT      O70282   0.650   3.642   2.455
23347WAT     H170283   0.686   3.683   2.539
23347WAT     H270284   0.614   3.551   2.476
23348WAT      O70285   0.465   7.010   4.794
23348WAT     H170286   0.436   6.993   4.888
23348WAT     H270287   0.499   6.926   4.753
23349WAT      O70288   5.892   0.029   3.331
23349WAT     H170289   5.967   0.074   3.284
23349WAT     H270290   5.864  -0.052   3.280
23350WAT      O70291   5.798   6.663   9.578
23350WAT     H170292   5.871   6.605   9.543
23350WAT     H270293   5.820   6.759   9.562
23351WAT      O70294   6.716   0.525   4.187
23351WAT     H170295   6.699   0.603   4.127
23351WAT     H270296   6.638   0.463   4.184
23352WAT      O70297   7.822   0.480   7.672
23352WAT     H170298   7.857   0.546   7.606
23352WAT     H270299   7.893   0.458   7.738
23353WAT      O70300   0.765   1.638   3.500
23353WAT     H170301   0.726   1.546   3.501
23353WAT     H270302   0.801   1.658   3.409
23354WAT      O70303   1.011   5.247   2.134
23354WAT     H170304   1.080   5.315   2.111
23354WAT     H270305   1.007   5.237   2.234
23355WAT      O70306   1.564   4.068   0.145
23355WAT     H170307   1.545   4.121   0.063
23355WAT     H270308   1.535   3.973   0.131
23356WAT      O70309   5.542   3.146   3.485
23356WAT     H170310   5.549   3.047   3.497
23356WAT     H270311   5.503   3.166   3.395
23357WAT      O70312   5.614   6.565   3.115
23357WAT     H170313   5.533   6.611   3.152
23357WAT     H270314   5.696   6.615   3.141
23358WAT      O70315   4.003   5.342   2.081
23358WAT     H170316   4.037   5.286   2.156
23358WAT     H270317   4.041   5.309   1.994
23359WAT      O70318   8.533   4.335   5.082
23359WAT     H170319   8.468   4.388   5.027
23359WAT     H270320   8.625   4.344   5.043
23360WAT      O70321   8.267   3.115   5.374
23360WAT     H170322   8.179   3.087   5.413
23360WAT     H270323   8.336   3.119   5.446
23361WAT      O70324   9.464   5.497   4.308
23361WAT     H170325   9.558   5.463   4.301
23361WAT     H270326   9.427   5.474   4.398
23362WAT      O70327   2.260   6.802   1.199
23362WAT     H170328   2.313   6.880   1.232
23362WAT     H270329   2.321   6.724   1.185
23363WAT      O70330   5.893   2.128   7.239
23363WAT     H170331   5.830   2.060   7.279
23363WAT     H270332   5.977   2.082   7.210
23364WAT      O70333   4.272   5.758   3.445
23364WAT     H170334   4.220   5.831   3.400
23364WAT     H270335   4.365   5.790   3.463
23365WAT      O70336   5.585   8.600   5.711
23365WAT     H170337   5.681   8.580   5.733
23365WAT     H270338   5.562   8.691   5.745
23366WAT      O70339   4.633   8.615   4.487
23366WAT     H170340   4.653   8.711   4.468
23366WAT     H270341   4.703   8.557   4.445
23367WAT      O70342   7.278   0.187   1.331
23367WAT     H170343   7.305   0.255   1.399
23367WAT     H270344   7.200   0.135   1.365
23368WAT      O70345   0.313   6.750   3.675
23368WAT     H170346   0.220   6.770   3.704
23368WAT     H270347   0.325   6.774   3.579
23369WAT      O70348   8.321   7.548   0.355
23369WAT     H170349   8.339   7.567   0.259
23369WAT     H270350   8.226   7.568   0.376
23370WAT      O70351   6.386   4.806   2.807
23370WAT     H170352   6.428   4.721   2.776
23370WAT     H270353   6.390   4.811   2.906
23371WAT      O70354   5.322   1.001   9.718
23371WAT     H170355   5.225   0.981   9.726
23371WAT     H270356   5.336   1.101   9.717
23372WAT      O70357   4.253   0.845   6.544
23372WAT     H170358   4.288   0.794   6.466
23372WAT     H270359   4.154   0.856   6.535
23373WAT      O70360   2.970   5.059   5.052
23373WAT     H170361   2.988   5.037   4.956
23373WAT     H270362   3.056   5.062   5.102
23374WAT      O70363   9.201   3.247   4.638
23374WAT     H170364   9.230   3.262   4.733
23374WAT     H270365   9.134   3.317   4.612
23375WAT      O70366   3.451   4.121   3.245
23375WAT     H170367   3.395   4.039   3.244
23375WAT     H270368   3.521   4.114   3.316
23376WAT      O70369   6.469   6.337   8.689
23376WAT     H170370   6.407   6.336   8.610
23376WAT     H270371   6.510   6.246   8.701
23377WAT      O70372   5.004   2.963   6.075
23377WAT     H170373   4.997   2.913   6.162
23377WAT     H270374   4.924   3.022   6.064
23378WAT      O70375   5.079   5.692   0.297
23378WAT     H170376   5.133   5.756   0.243
23378WAT     H270377   5.010   5.649   0.239
23379WAT      O70378   5.487   1.232   6.343
23379WAT     H170379   5.537   1.213   6.258
23379WAT     H270380   5.461   1.328   6.345
23380WAT      O70381   0.313   0.072   2.815
23380WAT     H170382   0.343   0.160   2.853
23380WAT     H270383   0.215   0.076   2.795
23381WAT      O70384   9.002   8.217   0.266
23381WAT     H170385   8.912   8.201   0.225
23381WAT     H270386   9.018   8.150   0.339
23382WAT      O70387   6.232   1.610   5.377
23382WAT     H170388   6.307   1.575   5.321
23382WAT     H270389   6.150   1.553   5.362
23383WAT      O70390   5.233   4.413   3.534
23383WAT     H170391   5.271   4.329   3.572
23383WAT     H270392   5.291   4.490   3.559
23384WAT      O70393   2.390   8.879   9.208
23384WAT     H170394   2.297   8.909   9.227
23384WAT     H270395   2.432   8.939   9.139
23385WAT      O70396   7.112   4.522   8.619
23385WAT     H170397   7.066   4.555   8.702
23385WAT     H270398   7.105   4.592   8.547
23386WAT      O70399   3.478   5.052   0.795
23386WAT     H170400   3.442   5.120   0.732
23386WAT     H270401   3.403   4.998   0.833
23387WAT      O70402   0.147   9.360   9.301
23387WAT     H170403   0.163   9.422   9.379
23387WAT     H270404   0.075   9.398   9.243
23388WAT      O70405   5.779   1.980   1.077
23388WAT     H170406   5.766   2.025   0.989
23388WAT     H270407   5.690   1.949   1.112
23389WAT      O70408   5.470   5.296   5.213
23389WAT     H170409   5.522   5.269   5.295
23389WAT     H270410   5.533   5.311   5.137
23390WAT      O70411   3.385   1.468   9.812
23390WAT     H170412   3.373   1.465   9.911
23390WAT     H270413   3.350   1.384   9.771
23391WAT      O70414   2.361   8.618   4.301
23391WAT     H170415   2.315   8.546   4.352
23391WAT     H270416   2.297   8.659   4.235
23392WAT      O70417   7.622   6.542   0.157
23392WAT     H170418   7.642   6.612   0.226
23392WAT     H270419   7.602   6.455   0.202
23393WAT      O70420   6.123   0.232   6.900
23393WAT     H170421   6.063   0.311   6.909
23393WAT     H270422   6.135   0.210   6.804
23394WAT      O70423   4.193   1.050   3.101
23394WAT     H170424   4.247   1.123   3.060
23394WAT     H270425   4.254   0.978   3.134
23395WAT      O70426   9.410   3.030   7.201
23395WAT     H170427   9.451   3.105   7.150
23395WAT     H270428   9.473   3.001   7.274
23396WAT      O70429   3.933   0.918   4.594
23396WAT     H170430   3.836   0.907   4.572
23396WAT     H270431   3.948   0.899   4.691
23397WAT      O70432   2.446   3.831   7.731
23397WAT     H170433   2.510   3.890   7.780
23397WAT     H270434   2.497   3.762   7.679
23398WAT      O70435   1.166   1.097   5.362
23398WAT     H170436   1.133   1.175   5.414
23398WAT     H270437   1.251   1.063   5.402
23399WAT      O70438   4.383   0.252   6.709
23399WAT     H170439   4.423   0.268   6.619
23399WAT     H270440   4.359   0.340   6.751
23400WAT      O70441   6.486   3.436   7.464
23400WAT     H170442   6.485   3.350   7.412
23400WAT     H270443   6.417   3.433   7.535
23401WAT      O70444   4.599   8.880   5.748
23401WAT     H170445   4.675   8.941   5.724
23401WAT     H270446   4.566   8.833   5.667
23402WAT      O70447   9.438   1.514   0.078
23402WAT     H170448   9.394   1.581   0.138
23402WAT     H270449   9.431   1.423   0.119
23403WAT      O70450   9.457   5.350   6.726
23403WAT     H170451   9.452   5.338   6.627
23403WAT     H270452   9.502   5.437   6.747
23404WAT      O70453   2.947   5.751   4.786
23404WAT     H170454   2.858   5.788   4.759
23404WAT     H270455   2.955   5.754   4.886
23405WAT      O70456   3.475   1.283   8.109
23405WAT     H170457   3.461   1.222   8.032
23405WAT     H270458   3.573   1.296   8.125
23406WAT      O70459   5.458   9.586   5.972
23406WAT     H170460   5.436   9.682   5.956
23406WAT     H270461   5.512   9.577   6.055
23407WAT      O70462   9.657   3.937   7.015
23407WAT     H170463   9.585   4.000   6.986
23407WAT     H270464   9.717   3.983   7.080
23408WAT      O70465   7.261   1.764   4.725
23408WAT     H170466   7.211   1.848   4.746
23408WAT     H270467   7.226   1.725   4.640
23409WAT      O70468   0.010   9.447   8.211
23409WAT     H170469  -0.069   9.435   8.152
23409WAT     H270470  -0.020   9.471   8.303
23410WAT      O70471   9.213   7.506   9.276
23410WAT     H170472   9.140   7.522   9.209
23410WAT     H270473   9.289   7.569   9.258
23411WAT      O70474   7.293   9.506   2.438
23411WAT     H170475   7.388   9.477   2.426
23411WAT     H270476   7.266   9.493   2.533
23412WAT      O70477   3.112   8.462   3.837
23412WAT     H170478   3.183   8.394   3.857
23412WAT     H270479   3.044   8.462   3.911
23413WAT      O70480   3.711   3.095   4.307
23413WAT     H170481   3.708   3.099   4.208
23413WAT     H270482   3.806   3.081   4.337
23414WAT      O70483   0.486   8.155   1.878
23414WAT     H170484   0.573   8.161   1.926
23414WAT     H270485   0.494   8.201   1.789
23415WAT      O70486   3.283   2.926   0.419
23415WAT     H170487   3.203   2.968   0.377
23415WAT     H270488   3.365   2.950   0.367
23416WAT      O70489   9.813   2.128   1.769
23416WAT     H170490   9.775   2.219   1.779
23416WAT     H270491   9.754   2.061   1.814
23417WAT      O70492   5.333   9.135   9.178
23417WAT     H170493   5.347   9.230   9.151
23417WAT     H270494   5.393   9.113   9.256
23418WAT      O70495   0.146   0.088   9.878
23418WAT     H170496   0.050   0.062   9.867
23418WAT     H270497   0.178   0.132   9.795
23419WAT      O70498   6.152   2.440   7.423
23419WAT     H170499   6.249   2.430   7.445
23419WAT     H270500   6.132   2.397   7.336
23420WAT      O70501   0.252   5.486   1.247
23420WAT     H170502   0.168   5.519   1.290
23420WAT     H270503   0.331   5.527   1.293
23421WAT      O70504   3.398   7.334   5.796
23421WAT     H170505   3.301   7.317   5.780
23421WAT     H270506   3.430   7.406   5.734
23422WAT      O70507   7.840   3.848   1.928
23422WAT     H170508   7.769   3.802   1.980
23422WAT     H270509   7.799   3.899   1.852
23423WAT      O70510   3.016   7.170   0.381
23423WAT     H170511   3.034   7.259   0.423
23423WAT     H270512   2.974   7.109   0.449
23424WAT      O70513   3.261   0.830   1.394
23424WAT     H170514   3.242   0.871   1.305
23424WAT     H270515   3.187   0.852   1.457
23425WAT      O70516   2.754   0.569   7.933
23425WAT     H170517   2.766   0.482   7.980
23425WAT     H270518   2.737   0.552   7.836
23426WAT      O70519   5.697   0.637   8.200
23426WAT     H170520   5.620   0.598   8.150
23426WAT     H270521   5.664   0.709   8.262
23427WAT      O70522   4.995   4.543   1.755
23427WAT     H170523   5.002   4.561   1.657
23427WAT     H270524   4.911   4.583   1.791
23428WAT      O70525   8.085   0.366   4.170
23428WAT     H170526   8.149   0.366   4.246
23428WAT     H270527   8.114   0.300   4.101
23429WAT      O70528   8.408   8.725   7.057
23429WAT     H170529   8.455   8.644   7.091
23429WAT     H270530   8.457   8.763   6.979
23430WAT      O70531   7.529   0.509   6.292
23430WAT     H170532   7.629   0.503   6.298
23430WAT     H270533   7.489   0.421   6.319
23431WAT      O70534   3.506   4.265   4.318
23431WAT     H170535   3.441   4.283   4.245
23431WAT     H270536   3.599   4.284   4.286
23432WAT      O70537   0.074   4.410   3.611
23432WAT     H170538   0.067   4.394   3.513
23432WAT     H270539  -0.005   4.462   3.642
23433WAT      O70540   4.553   5.431   3.940
23433WAT     H170541   4.552   5.468   4.033
23433WAT     H270542   4.534   5.333   3.942
23434WAT      O70543   2.081   7.356   2.938
23434WAT     H170544   2.040   7.341   2.847
23434WAT     H270545   2.015   7.331   3.008
23435WAT      O70546   8.715   9.578   4.416
23435WAT     H170547   8.670   9.542   4.334
23435WAT     H270548   8.789   9.640   4.389
23436WAT      O70549   2.026   5.606   3.080
23436WAT     H170550   2.026   5.617   3.179
23436WAT     H270551   2.108   5.648   3.041
23437WAT      O70552   0.570   4.768   5.364
23437WAT     H170553   0.533   4.711   5.292
23437WAT     H270554   0.524   4.857   5.364
23438WAT      O70555   0.100   4.982   0.617
23438WAT     H170556   0.030   5.035   0.663
23438WAT     H270557   0.070   4.887   0.609
23439WAT      O70558   2.697   5.075   1.735
23439WAT     H170559   2.765   5.116   1.797
23439WAT     H270560   2.605   5.102   1.764
23440WAT      O70561   5.489   7.231   1.910
23440WAT     H170562   5.486   7.131   1.911
23440WAT     H270563   5.420   7.266   1.846
23441WAT      O70564   6.210   5.583   9.309
23441WAT     H170565   6.273   5.652   9.344
23441WAT     H270566   6.128   5.579   9.367
23442WAT      O70567   6.762   6.988   3.979
23442WAT     H170568   6.717   7.003   4.067
23442WAT     H270569   6.726   7.053   3.912
23443WAT      O70570   1.472   7.830   0.086
23443WAT     H170571   1.386   7.873   0.058
23443WAT     H270572   1.519   7.795   0.005
23444WAT      O70573   7.712   6.958   6.909
23444WAT     H170574   7.669   7.048   6.919
23444WAT     H270575   7.755   6.951   6.819
23445WAT      O70576   3.480   2.397   9.715
23445WAT     H170577   3.452   2.376   9.808
23445WAT     H270578   3.494   2.495   9.705
23446WAT      O70579   1.556   6.792   9.325
23446WAT     H170580   1.478   6.744   9.365
23446WAT     H270581   1.591   6.859   9.391
23447WAT      O70582   6.720   6.896   3.192
23447WAT     H170583   6.636   6.950   3.178
23447WAT     H270584   6.706   6.832   3.267
23448WAT      O70585   7.764   8.622   0.695
23448WAT     H170586   7.768   8.624   0.595
23448WAT     H270587   7.717   8.539   0.724
23449WAT      O70588   2.315   5.185   0.583
23449WAT     H170589   2.333   5.102   0.636
23449WAT     H270590   2.222   5.182   0.546
23450WAT      O70591   6.568   2.213   6.939
23450WAT     H170592   6.475   2.243   6.915
23450WAT     H270593   6.631   2.241   6.867
23451WAT      O70594   2.190   1.836   5.826
23451WAT     H170595   2.098   1.857   5.792
23451WAT     H270596   2.184   1.763   5.894
23452WAT      O70597   4.335   2.206   3.016
23452WAT     H170598   4.399   2.153   2.960
23452WAT     H270599   4.360   2.197   3.112
23453WAT      O70600   4.371   1.919   6.486
23453WAT     H170601   4.370   1.872   6.397
23453WAT     H270602   4.459   1.906   6.530
23454WAT      O70603   2.216   6.925   8.833
23454WAT     H170604   2.118   6.919   8.814
23454WAT     H270605   2.268   6.897   8.752
23455WAT      O70606   8.795   1.138   4.705
23455WAT     H170607   8.821   1.042   4.696
23455WAT     H270608   8.866   1.196   4.663
23456WAT      O70609   1.377   1.123   4.981
23456WAT     H170610   1.332   1.057   5.041
23456WAT     H270611   1.350   1.216   5.007
23457WAT      O70612   4.308   9.720   6.286
23457WAT     H170613   4.253   9.708   6.369
23457WAT     H270614   4.404   9.703   6.307
23458WAT      O70615   3.825   8.240   5.909
23458WAT     H170616   3.843   8.288   5.823
23458WAT     H270617   3.905   8.247   5.968
23459WAT      O70618   7.945   6.420   5.656
23459WAT     H170619   7.929   6.339   5.712
23459WAT     H270620   8.037   6.416   5.617
23460WAT      O70621   3.900   3.013   9.651
23460WAT     H170622   3.943   2.930   9.616
23460WAT     H270623   3.916   3.021   9.749
23461WAT      O70624   5.943   9.301   9.689
23461WAT     H170625   5.895   9.285   9.775
23461WAT     H270626   5.938   9.219   9.632
23462WAT      O70627   8.626   9.499   6.233
23462WAT     H170628   8.623   9.506   6.333
23462WAT     H270629   8.547   9.446   6.201
23463WAT      O70630   0.419   5.994   3.208
23463WAT     H170631   0.490   5.936   3.247
23463WAT     H270632   0.424   5.990   3.108
23464WAT      O70633   9.066   5.041   4.373
23464WAT     H170634   9.037   5.041   4.277
23464WAT     H270635   9.165   5.059   4.378
23465WAT      O70636   8.253   8.022   5.349
23465WAT     H170637   8.311   8.101   5.369
23465WAT     H270638   8.309   7.949   5.308
23466WAT      O70639   2.927   1.347   4.816
23466WAT     H170640   3.024   1.353   4.840
23466WAT     H270641   2.876   1.308   4.892
23467WAT      O70642   9.534   8.525   7.883
23467WAT     H170643   9.439   8.524   7.852
23467WAT     H270644   9.584   8.450   7.839
23468WAT      O70645   5.460   6.167   0.836
23468WAT     H170646   5.420   6.259   0.838
23468WAT     H270647   5.471   6.134   0.930
23469WAT      O70648   7.033   8.079   6.145
23469WAT     H170649   6.969   8.014   6.103
23469WAT     H270650   7.041   8.160   6.087
23470WAT      O70651   4.178   4.219   9.685
23470WAT     H170652   4.228   4.280   9.747
23470WAT     H270653   4.219   4.128   9.688
23471WAT      O70654   4.131   0.987   2.083
23471WAT     H170655   4.219   1.029   2.104
23471WAT     H270656   4.062   1.021   2.147
23472WAT      O70657   2.148   9.361   1.146
23472WAT     H170658   2.063   9.398   1.185
23472WAT     H270659   2.216   9.350   1.219
23473WAT      O70660   3.303   0.491   8.265
23473WAT     H170661   3.230   0.527   8.208
23473WAT     H270662   3.300   0.535   8.355
23474WAT      O70663   8.336   9.201   7.710
23474WAT     H170664   8.416   9.141   7.706
23474WAT     H270665   8.362   9.293   7.679
23475WAT      O70666   0.440   4.709   3.159
23475WAT     H170667   0.375   4.765   3.210
23475WAT     H270668   0.496   4.655   3.222
23476WAT      O70669   1.641   9.029   4.140
23476WAT     H170670   1.551   9.000   4.108
23476WAT     H270671   1.702   8.950   4.142
23477WAT      O70672   6.277   7.182   8.163
23477WAT     H170673   6.202   7.178   8.229
23477WAT     H270674   6.333   7.263   8.180
23478WAT      O70675   7.611   4.924   8.749
23478WAT     H170676   7.611   4.922   8.649
23478WAT     H270677   7.536   4.866   8.783
23479WAT      O70678   8.499   3.630   3.743
23479WAT     H170679   8.507   3.629   3.842
23479WAT     H270680   8.583   3.594   3.702
23480WAT      O70681   0.567   5.137   8.896
23480WAT     H170682   0.484   5.082   8.882
23480WAT     H270683   0.634   5.082   8.946
23481WAT      O70684   3.410   0.203   0.837
23481WAT     H170685   3.325   0.151   0.833
23481WAT     H270686   3.391   0.295   0.872
23482WAT      O70687   1.572   8.048   4.274
23482WAT     H170688   1.609   8.133   4.236
23482WAT     H270689   1.646   7.984   4.292
23483WAT      O70690   0.778   8.665   7.984
23483WAT     H170691   0.713   8.669   7.908
23483WAT     H270692   0.739   8.610   8.058
23484WAT      O70693   8.438   1.809   2.595
23484WAT     H170694   8.376   1.737   2.563
23484WAT     H270695   8.487   1.848   2.517
23485WAT      O70696   4.450   8.356   3.407
23485WAT     H170697   4.369   8.381   3.459
23485WAT     H270698   4.441   8.390   3.313
23486WAT      O70699   5.788   2.586   9.070
23486WAT     H170700   5.874   2.557   9.112
23486WAT     H270701   5.712   2.568   9.132
23487WAT      O70702   6.331   6.794   6.674
23487WAT     H170703   6.385   6.773   6.593
23487WAT     H270704   6.359   6.735   6.750
23488WAT      O70705   9.637   2.329   6.355
23488WAT     H170706   9.681   2.348   6.443
23488WAT     H270707   9.701   2.281   6.295
23489WAT      O70708   9.664   6.512   7.512
23489WAT     H170709   9.666   6.578   7.587
23489WAT     H270710   9.703   6.426   7.541
23490WAT      O70711   2.793   2.935   2.454
23490WAT     H170712   2.810   2.992   2.374
23490WAT     H270713   2.724   2.866   2.432
23491WAT      O70714   8.886   3.368   9.402
23491WAT     H170715   8.975   3.351   9.359
23491WAT     H270716   8.844   3.281   9.427
23492WAT      O70717   5.600   6.825   8.950
23492WAT     H170718   5.614   6.880   8.868
23492WAT     H270719   5.687   6.812   8.997
23493WAT      O70720   5.845   5.388   8.672
23493WAT     H170721   5.749   5.396   8.643
23493WAT     H270722   5.904   5.394   8.592
23494WAT      O70723   2.996   2.118   4.084
23494WAT     H170724   3.046   2.135   3.999
23494WAT     H270725   2.996   2.202   4.140
23495WAT      O70726   3.228   8.968   5.071
23495WAT     H170727   3.233   9.065   5.095
23495WAT     H270728   3.223   8.913   5.155
23496WAT      O70729   2.560   9.015   8.714
23496WAT     H170730   2.627   9.023   8.641
23496WAT     H270731   2.601   9.042   8.801
23497WAT      O70732   6.532   7.406   4.744
23497WAT     H170733   6.483   7.433   4.661
23497WAT     H270734   6.466   7.372   4.812
23498WAT      O70735   2.757   7.591   4.755
23498WAT     H170736   2.664   7.609   4.724
23498WAT     H270737   2.772   7.637   4.843
23499WAT      O70738   2.804   1.547   2.190
23499WAT     H170739   2.755   1.493   2.122
23499WAT     H270740   2.758   1.635   2.204
23500WAT      O70741   6.130   2.641   2.185
23500WAT     H170742   6.192   2.573   2.145
23500WAT     H270743   6.150   2.649   2.283
23501WAT      O70744   9.553   4.588   2.618
23501WAT     H170745   9.496   4.593   2.699
23501WAT     H270746   9.600   4.500   2.615
23502WAT      O70747   1.329   5.395   7.403
23502WAT     H170748   1.384   5.329   7.351
23502WAT     H270749   1.256   5.346   7.451
23503WAT      O70750   1.169   8.232   7.537
23503WAT     H170751   1.261   8.270   7.523
23503WAT     H270752   1.101   8.303   7.518
23504WAT      O70753   9.426   0.065   6.137
23504WAT     H170754   9.396   0.102   6.225
23504WAT     H270755   9.491   0.129   6.095
23505WAT      O70756   1.552   8.438   6.140
23505WAT     H170757   1.610   8.466   6.063
23505WAT     H270758   1.565   8.502   6.216
23506WAT      O70759   1.929   7.841   8.434
23506WAT     H170760   1.888   7.788   8.508
23506WAT     H270761   1.888   7.814   8.347
23507WAT      O70762   0.568   7.667   4.919
23507WAT     H170763   0.619   7.682   5.004
23507WAT     H270764   0.569   7.570   4.895
23508WAT      O70765   5.924   1.439   2.291
23508WAT     H170766   5.850   1.389   2.336
23508WAT     H270767   5.985   1.479   2.359
23509WAT      O70768   5.202   4.721   6.728
23509WAT     H170769   5.182   4.816   6.750
23509WAT     H270770   5.293   4.714   6.688
23510WAT      O70771   7.848   3.578   7.523
23510WAT     H170772   7.933   3.616   7.486
23510WAT     H270773   7.823   3.627   7.607
23511WAT      O70774   1.648   8.025   5.723
23511WAT     H170775   1.621   8.111   5.680
23511WAT     H270776   1.738   7.998   5.690
23512WAT      O70777   3.857   2.798   2.161
23512WAT     H170778   3.822   2.731   2.096
23512WAT     H270779   3.839   2.767   2.254
23513WAT      O70780   1.203   0.671   8.435
23513WAT     H170781   1.144   0.685   8.515
23513WAT     H270782   1.228   0.574   8.428
23514WAT      O70783   3.730   5.526   6.253
23514WAT     H170784   3.696   5.476   6.333
23514WAT     H270785   3.806   5.585   6.281
23515WAT      O70786   7.565   6.314   7.101
23515WAT     H170787   7.629   6.371   7.152
23515WAT     H270788   7.485   6.369   7.075
23516WAT      O70789   8.465   3.842   3.581
23516WAT     H170790   8.471   3.758   3.635
23516WAT     H270791   8.553   3.861   3.538
23517WAT      O70792   1.635   7.414   6.526
23517WAT     H170793   1.568   7.483   6.498
23517WAT     H270794   1.634   7.338   6.461
23518WAT      O70795   7.769   3.808   6.923
23518WAT     H170796   7.854   3.798   6.871
23518WAT     H270797   7.691   3.790   6.863
23519WAT      O70798   0.335   7.541   9.312
23519WAT     H170799   0.317   7.610   9.382
23519WAT     H270800   0.250   7.493   9.290
23520WAT      O70801   0.916   8.341   7.721
23520WAT     H170802   0.909   8.242   7.705
23520WAT     H270803   0.944   8.386   7.636
23521WAT      O70804   6.038   6.265   9.227
23521WAT     H170805   6.128   6.221   9.224
23521WAT     H270806   5.967   6.197   9.213
23522WAT      O70807   7.325   7.931   8.686
23522WAT     H170808   7.389   7.915   8.612
23522WAT     H270809   7.318   8.029   8.704
23523WAT      O70810   9.011   7.889   1.759
23523WAT     H170811   9.073   7.825   1.803
23523WAT     H270812   8.937   7.912   1.822
23524WAT      O70813   7.440   5.435   3.422
23524WAT     H170814   7.426   5.336   3.424
23524WAT     H270815   7.533   5.456   3.449
23525WAT      O70816   2.782   5.042   4.358
23525WAT     H170817   2.812   5.115   4.418
23525WAT     H270818   2.855   4.974   4.349
23526WAT      O70819   5.808   7.319   5.378
23526WAT     H170820   5.782   7.223   5.361
23526WAT     H270821   5.898   7.337   5.338
23527WAT      O70822   9.201   1.798   6.812
23527WAT     H170823   9.261   1.751   6.747
23527WAT     H270824   9.125   1.840   6.762
23528WAT      O70825   4.013   8.358   2.429
23528WAT     H170826   4.099   8.328   2.387
23528WAT     H270827   3.966   8.279   2.470
23529WAT      O70828   4.171   0.525   6.512
23529WAT     H170829   4.255   0.579   6.510
23529WAT     H270830   4.124   0.532   6.424
23530WAT      O70831   3.176   1.408   4.878
23530WAT     H170832   3.187   1.397   4.779
23530WAT     H270833   3.267   1.413   4.921
23531WAT      O70834   0.918   5.365   7.605
23531WAT     H170835   0.911   5.465   7.600
23531WAT     H270836   0.888   5.334   7.696
23532WAT      O70837   6.433   5.766   0.699
23532WAT     H170838   6.341   5.788   0.732
23532WAT     H270839   6.434   5.673   0.663
23533WAT      O70840   5.839   7.042   2.745
23533WAT     H170841   5.780   7.066   2.669
23533WAT     H270842   5.788   6.987   2.812
23534WAT      O70843   4.663   3.209   7.028
23534WAT     H170844   4.662   3.219   6.928
23534WAT     H270845   4.758   3.210   7.060
23535WAT      O70846   5.003   3.402   0.948
23535WAT     H170847   5.059   3.400   1.030
23535WAT     H270848   5.059   3.432   0.870
23536WAT      O70849   8.979   5.104   9.851
23536WAT     H170850   9.020   5.112   9.760
23536WAT     H270851   8.913   5.029   9.851
23537WAT      O70852   0.188   2.267   8.128
23537WAT     H170853   0.145   2.271   8.038
23537WAT     H270854   0.255   2.342   8.136
23538WAT      O70855   8.552   3.781   7.965
23538WAT     H170856   8.498   3.826   8.035
23538WAT     H270857   8.549   3.834   7.880
23539WAT      O70858   6.822   3.819   6.728
23539WAT     H170859   6.751   3.749   6.728
23539WAT     H270860   6.779   3.910   6.736
23540WAT      O70861   5.406   2.396   6.461
23540WAT     H170862   5.466   2.341   6.518
23540WAT     H270863   5.459   2.469   6.417
23541WAT      O70864   7.669   8.212   0.745
23541WAT     H170865   7.581   8.165   0.750
23541WAT     H270866   7.660   8.303   0.788
23542WAT      O70867   9.204   0.231   9.431
23542WAT     H170868   9.183   0.144   9.386
23542WAT     H270869   9.134   0.250   9.500
23543WAT      O70870   6.485   0.047   2.796
23543WAT     H170871   6.426   0.121   2.764
23543WAT     H270872   6.440  -0.000   2.872
23544WAT      O70873   3.125   5.118   2.213
23544WAT     H170874   3.158   5.073   2.130
23544WAT     H270875   3.197   5.175   2.251
23545WAT      O70876   9.711   8.183   9.376
23545WAT     H170877   9.783   8.239   9.335
23545WAT     H270878   9.690   8.106   9.316
23546WAT      O70879   2.500   5.215   3.800
23546WAT     H170880   2.488   5.118   3.779
23546WAT     H270881   2.594   5.242   3.779
23547WAT      O70882   4.818   4.850   9.380
23547WAT     H170883   4.734   4.855   9.325
23547WAT     H270884   4.794   4.837   9.476
23548WAT      O70885   8.661   1.191   0.048
23548WAT     H170886   8.614   1.267   0.004
23548WAT     H270887   8.757   1.216   0.064
23549WAT      O70888   1.551   8.040   6.665
23549WAT     H170889   1.564   8.063   6.761
23549WAT     H270890   1.604   8.103   6.608
23550WAT      O70891   5.801   8.329   0.762
23550WAT     H170892   5.817   8.343   0.860
23550WAT     H270893   5.733   8.257   0.749
23551WAT      O70894   0.285   6.523   6.161
23551WAT     H170895   0.317   6.471   6.240
23551WAT     H270896   0.242   6.608   6.192
23552WAT      O70897   4.404   1.053   6.586
23552WAT     H170898   4.357   0.968   6.562
23552WAT     H270899   4.360   1.130   6.538
23553WAT      O70900   7.786   2.931   7.039
23553WAT     H170901   7.726   2.884   7.105
23553WAT     H270902   7.730   2.970   6.966
23554WAT      O70903   7.811   3.885   6.483
23554WAT     H170904   7.789   3.919   6.391
23554WAT     H270905   7.873   3.807   6.475
23555WAT      O70906   3.670   6.894   0.986
23555WAT     H170907   3.626   6.814   1.027
23555WAT     H270908   3.766   6.896   1.013
23556WAT      O70909   7.111   7.296   3.778
23556WAT     H170910   7.075   7.281   3.686
23556WAT     H270911   7.049   7.354   3.829
23557WAT      O70912   1.694   9.223   3.305
23557WAT     H170913   1.763   9.242   3.375
23557WAT     H270914   1.662   9.309   3.266
23558WAT      O70915   9.004   0.588   2.412
23558WAT     H170916   9.002   0.680   2.450
23558WAT     H270917   8.914   0.567   2.372
23559WAT      O70918   9.868   0.074   7.764
23559WAT     H170919   9.789   0.013   7.761
23559WAT     H270920   9.935   0.038   7.830
23560WAT      O70921   9.632   4.860   5.746
23560WAT     H170922   9.543   4.818   5.732
23560WAT     H270923   9.684   4.857   5.661
23561WAT      O70924   7.813   8.706   9.573
23561WAT     H170925   7.893   8.763   9.590
23561WAT     H270926   7.818   8.666   9.481
23562WAT      O70927   0.826   6.037   6.629
23562WAT     H170928   0.865   5.981   6.555
23562WAT     H270929   0.750   6.090   6.592
23563WAT      O70930   6.806   9.386   7.970
23563WAT     H170931   6.894   9.372   8.016
23563WAT     H270932   6.733   9.349   8.027
23564WAT      O70933   3.855   3.716   3.528
23564WAT     H170934   3.822   3.710   3.622
23564WAT     H270935   3.778   3.716   3.465
23565WAT      O70936   7.735   3.206   6.139
23565WAT     H170937   7.747   3.224   6.041
23565WAT     H270938   7.749   3.109   6.157
23566WAT      O70939   3.247   7.197   0.588
23566WAT     H170940   3.344   7.200   0.611
23566WAT     H270941   3.202   7.126   0.643
23567WAT      O70942   9.696   8.982   5.788
23567WAT     H170943   9.674   8.985   5.886
23567WAT     H270944   9.786   9.023   5.772
23568WAT      O70945   1.473   9.447   7.235
23568WAT     H170946   1.554   9.389   7.232
23568WAT     H270947   1.446   9.472   7.142
23569WAT      O70948   6.285   0.710   6.775
23569WAT     H170949   6.229   0.659   6.710
23569WAT     H270950   6.236   0.721   6.861
23570WAT      O70951   1.439   9.662   3.560
23570WAT     H170952   1.394   9.641   3.647
23570WAT     H270953   1.372   9.657   3.486
23571WAT      O70954   7.880   1.495   6.353
23571WAT     H170955   7.793   1.538   6.330
23571WAT     H270956   7.919   1.453   6.271
23572WAT      O70957   3.423   3.809   4.651
23572WAT     H170958   3.329   3.842   4.642
23572WAT     H270959   3.486   3.886   4.653
23573WAT      O70960   4.618   6.852   6.848
23573WAT     H170961   4.574   6.829   6.761
23573WAT     H270962   4.708   6.890   6.831
23574WAT      O70963   7.597   6.561   9.774
23574WAT     H170964   7.602   6.537   9.871
23574WAT     H270965   7.565   6.656   9.764
23575WAT      O70966   3.558   5.875   7.795
23575WAT     H170967   3.497   5.911   7.866
23575WAT     H270968   3.591   5.951   7.739
23576WAT      O70969   8.388   5.835   3.601
23576WAT     H170970   8.415   5.883   3.684
23576WAT     H270971   8.347   5.747   3.625
23577WAT      O70972   1.990   2.541   0.077
23577WAT     H170973   1.930   2.553   0.156
23577WAT     H270974   1.998   2.627   0.027
23578WAT      O70975   0.849   0.153   6.464
23578WAT     H170976   0.922   0.218   6.487
23578WAT     H270977   0.764   0.204   6.447
23579WAT      O70978   6.444   5.224   8.918
23579WAT     H170979   6.527   5.277   8.900
23579WAT     H270980   6.377   5.282   8.965
23580WAT      O70981   1.265   2.218   6.029
23580WAT     H170982   1.301   2.128   6.003
23580WAT     H270983   1.167   2.221   6.010
23581WAT      O70984   6.709   9.098   2.290
23581WAT     H170985   6.661   9.033   2.230
23581WAT     H270986   6.711   9.188   2.246
23582WAT      O70987   5.128   9.207   3.258
23582WAT     H170988   5.208   9.230   3.202
23582WAT     H270989   5.100   9.112   3.239
23583WAT      O70990   3.907   4.731   6.853
23583WAT     H170991   3.841   4.790   6.808
23583WAT     H270992   3.996   4.739   6.807
23584WAT      O70993   0.943   4.585   3.722
23584WAT     H170994   0.861   4.628   3.684
23584WAT     H270995   0.936   4.584   3.822
23585WAT      O70996   1.058   7.287   8.834
23585WAT     H170997   0.958   7.282   8.828
23585WAT     H270998   1.099   7.217   8.776
23586WAT      O70999   8.957   0.744   5.565
23586WAT     H171000   8.857   0.745   5.563
23586WAT     H271001   8.991   0.708   5.477
23587WAT      O71002   0.277   1.737   8.913
23587WAT     H171003   0.321   1.674   8.849
23587WAT     H271004   0.178   1.725   8.908
23588WAT      O71005   5.317   3.486   3.217
23588WAT     H171006   5.341   3.478   3.313
23588WAT     H271007   5.338   3.578   3.185
23589WAT      O71008   9.299   6.394   4.641
23589WAT     H171009   9.314   6.350   4.552
23589WAT     H271010   9.299   6.493   4.630
23590WAT      O71011   9.135   8.462   0.284
23590WAT     H171012   9.131   8.530   0.210
23590WAT     H271013   9.077   8.384   0.261
23591WAT      O71014   4.865   4.505   2.206
23591WAT     H171015   4.947   4.449   2.218
23591WAT     H271016   4.890   4.593   2.164
23592WAT      O71017   6.495   9.156   1.357
23592WAT     H171018   6.575   9.100   1.338
23592WAT     H271019   6.413   9.108   1.328
23593WAT      O71020   2.601   7.057   8.272
23593WAT     H171021   2.532   7.018   8.210
23593WAT     H271022   2.669   6.987   8.295
23594WAT      O71023   7.566   2.656   1.024
23594WAT     H171024   7.508   2.720   1.074
23594WAT     H271025   7.585   2.692   0.933
23595WAT      O71026   8.801   5.370   0.381
23595WAT     H171027   8.843   5.313   0.311
23595WAT     H271028   8.842   5.350   0.470
23596WAT      O71029   0.525   2.142   0.322
23596WAT     H171030   0.584   2.168   0.246
23596WAT     H271031   0.438   2.190   0.315
23597WAT      O71032   8.068   7.570   0.432
23597WAT     H171033   7.986   7.525   0.395
23597WAT     H271034   8.083   7.540   0.526
23598WAT      O71035   3.826   8.989   1.403
23598WAT     H171036   3.854   9.073   1.451
23598WAT     H271037   3.739   8.957   1.440
23599WAT      O71038   7.025   6.015   7.348
23599WAT     H171039   7.058   5.924   7.375
23599WAT     H271040   6.976   6.056   7.425
23600WAT      O71041   0.276   7.785   5.845
23600WAT     H171042   0.249   7.790   5.941
23600WAT     H271043   0.370   7.818   5.835
23601WAT      O71044   8.653   3.311   3.743
23601WAT     H171045   8.645   3.391   3.683
23601WAT     H271046   8.654   3.228   3.687
23602WAT      O71047   9.447   0.084   2.186
23602WAT     H171048   9.451   0.023   2.265
23602WAT     H271049   9.539   0.096   2.148
23603WAT      O71050   4.770   6.741   8.355
23603WAT     H171051   4.830   6.680   8.304
23603WAT     H271052   4.722   6.690   8.427
23604WAT      O71053   0.465   4.824   4.216
23604WAT     H171054   0.498   4.794   4.127
23604WAT     H271055   0.530   4.887   4.257
23605WAT      O71056   6.122   2.163   0.124
23605WAT     H171057   6.121   2.077   0.175
23605WAT     H271058   6.209   2.173   0.076
23606WAT      O71059   4.772   2.480   2.825
23606WAT     H171060   4.831   2.485   2.906
23606WAT     H271061   4.755   2.573   2.790
23607WAT      O71062   1.250   0.713   8.827
23607WAT     H171063   1.165   0.716   8.773
23607WAT     H271064   1.328   0.724   8.766
23608WAT      O71065   1.830   2.921   5.529
23608WAT     H171066   1.778   3.003   5.555
23608WAT     H271067   1.928   2.939   5.542
23609WAT      O71068   5.542   5.114   7.322
23609WAT     H171069   5.601   5.103   7.242
23609WAT     H271070   5.496   5.203   7.318
23610WAT      O71071   7.414   4.539   5.769
23610WAT     H171072   7.366   4.609   5.715
23610WAT     H271073   7.386   4.449   5.737
23611WAT      O71074   2.650   6.557   7.113
23611WAT     H171075   2.744   6.583   7.137
23611WAT     H271076   2.632   6.464   7.144
23612WAT      O71077   9.137   3.098   2.476
23612WAT     H171078   9.211   3.155   2.513
23612WAT     H271079   9.176   3.015   2.436
23613WAT      O71080   8.722   5.491   9.335
23613WAT     H171081   8.622   5.492   9.348
23613WAT     H271082   8.766   5.474   9.423
23614WAT      O71083   5.945   6.036   0.356
23614WAT     H171084   6.012   6.033   0.282
23614WAT     H271085   5.861   5.992   0.327
23615WAT      O71086   5.026   1.918   5.743
23615WAT     H171087   4.965   1.975   5.689
23615WAT     H271088   5.074   1.854   5.683
23616WAT      O71089   8.170   8.440   3.944
23616WAT     H171090   8.254   8.398   3.978
23616WAT     H271091   8.189   8.536   3.919
23617WAT      O71092   3.938   5.314   1.258
23617WAT     H171093   3.987   5.368   1.189
23617WAT     H271094   3.921   5.222   1.223
23618WAT      O71095   5.782   1.496   8.777
23618WAT     H171096   5.749   1.519   8.869
23618WAT     H271097   5.800   1.580   8.726
23619WAT      O71098   3.980   5.624   6.378
23619WAT     H171099   4.023   5.533   6.376
23619WAT     H271100   4.024   5.683   6.310
23620WAT      O71101   5.920   9.398   3.412
23620WAT     H171102   5.822   9.378   3.413
23620WAT     H271103   5.938   9.477   3.353
23621WAT      O71104   0.814   2.210   3.285
23621WAT     H171105   0.795   2.267   3.205
23621WAT     H271106   0.728   2.178   3.324
23622WAT      O71107   6.290   1.764   9.455
23622WAT     H171108   6.209   1.821   9.444
23622WAT     H271109   6.282   1.682   9.397
23623WAT      O71110   4.532   0.526   3.816
23623WAT     H171111   4.469   0.461   3.773
23623WAT     H271112   4.523   0.521   3.916
23624WAT      O71113   6.483   1.599   0.991
23624WAT     H171114   6.507   1.504   1.009
23624WAT     H271115   6.543   1.659   1.045
23625WAT      O71116   4.107   4.461   9.215
23625WAT     H171117   4.134   4.377   9.262
23625WAT     H271118   4.113   4.448   9.116
23626WAT      O71119   2.188   7.583   0.642
23626WAT     H171120   2.103   7.539   0.614
23626WAT     H271121   2.179   7.616   0.736
23627WAT      O71122   3.196   4.659   6.142
23627WAT     H171123   3.122   4.680   6.207
23627WAT     H271124   3.267   4.729   6.149
23628WAT      O71125   8.010   2.661   6.106
23628WAT     H171126   8.097   2.617   6.129
23628WAT     H271127   7.969   2.699   6.189
23629WAT      O71128   2.142   7.271   9.639
23629WAT     H171129   2.101   7.198   9.693
23629WAT     H271130   2.112   7.264   9.544
23630WAT      O71131   7.585   3.917   4.485
23630WAT     H171132   7.501   3.866   4.503
23630WAT     H271133   7.664   3.856   4.495
23631WAT      O71134   7.933   3.788   3.531
23631WAT     H171135   7.949   3.705   3.584
23631WAT     H271136   8.021   3.832   3.511
23632WAT      O71137   2.907   2.857   9.762
23632WAT     H171138   2.833   2.850   9.695
23632WAT     H271139   2.949   2.767   9.775
23633WAT      O71140   3.760   3.681   0.942
23633WAT     H171141   3.668   3.693   0.980
23633WAT     H271142   3.801   3.771   0.925
23634WAT      O71143   9.666   5.750   5.611
23634WAT     H171144   9.669   5.839   5.567
23634WAT     H271145   9.630   5.759   5.704
23635WAT      O71146   7.550   8.776   8.811
23635WAT     H171147   7.601   8.845   8.760
23635WAT     H271148   7.488   8.727   8.749
23636WAT      O71149   7.254   3.345   9.078
23636WAT     H171150   7.252   3.427   9.135
23636WAT     H271151   7.163   3.326   9.042
23637WAT      O71152   8.773   4.734   8.172
23637WAT     H171153   8.699   4.783   8.219
23637WAT     H271154   8.771   4.756   8.075
23638WAT      O71155   1.249   9.826   8.021
23638WAT     H171156   1.327   9.763   8.019
23638WAT     H271157   1.272   9.905   8.077
23639WAT      O71158   5.785   4.180   3.361
23639WAT     H171159   5.778   4.111   3.432
23639WAT     H271160   5.881   4.196   3.338
23640WAT      O71161   6.436   4.916   1.725
23640WAT     H171162   6.409   4.820   1.721
23640WAT     H271163   6.418   4.953   1.816
23641WAT      O71164   1.848   6.176   1.252
23641WAT     H171165   1.852   6.110   1.177
23641WAT     H271166   1.775   6.242   1.235
23642WAT      O71167   6.976   0.071   0.049
23642WAT     H171168   7.002  -0.010   0.101
23642WAT     H271169   6.956   0.045  -0.045
23643WAT      O71170   5.412   8.070   3.288
23643WAT     H171171   5.473   8.080   3.366
23643WAT     H271172   5.355   7.988   3.300
23644WAT      O71173   0.464   8.720   1.370
23644WAT     H171174   0.516   8.795   1.412
23644WAT     H271175   0.370   8.750   1.354
23645WAT      O71176   8.448   0.510   9.492
23645WAT     H171177   8.367   0.520   9.434
23645WAT     H271178   8.512   0.446   9.449
23646WAT      O71179   0.327   8.704   9.680
23646WAT     H171180   0.395   8.738   9.746
23646WAT     H271181   0.236   8.728   9.712
23647WAT      O71182   6.856   9.181   3.629
23647WAT     H171183   6.842   9.197   3.532
23647WAT     H271184   6.799   9.104   3.659
23648WAT      O71185   1.069   8.690   4.576
23648WAT     H171186   1.060   8.686   4.476
23648WAT     H271187   1.126   8.614   4.607
23649WAT      O71188   8.699   0.034   8.303
23649WAT     H171189   8.621  -0.005   8.254
23649WAT     H271190   8.784  -0.008   8.269
23650WAT      O71191   7.404   6.618   6.245
23650WAT     H171192   7.411   6.601   6.147
23650WAT     H271193   7.368   6.710   6.261
23651WAT      O71194   6.446   5.595   6.362
23651WAT     H171195   6.401   5.518   6.408
23651WAT     H271196   6.536   5.610   6.402
23652WAT      O71197   8.276   6.971   8.783
23652WAT     H171198   8.179   6.957   8.764
23652WAT     H271199   8.291   7.065   8.813
23653WAT      O71200   6.485   8.034   2.474
23653WAT     H171201   6.534   7.947   2.479
23653WAT     H271202   6.482   8.076   2.564
23654WAT      O71203   3.210   7.747   3.269
23654WAT     H171204   3.140   7.704   3.326
23654WAT     H271205   3.293   7.692   3.271
23655WAT      O71206   7.539   5.106   2.555
23655WAT     H171207   7.493   5.025   2.517
23655WAT     H271208   7.492   5.188   2.522
23656WAT      O71209   2.765   5.275   9.773
23656WAT     H171210   2.723   5.314   9.855
23656WAT     H271211   2.824   5.343   9.729
23657WAT      O71212   4.821   7.706   6.627
23657WAT     H171213   4.830   7.797   6.587
23657WAT     H271214   4.793   7.715   6.723
23658WAT      O71215   0.930   3.733   3.206
23658WAT     H171216   0.930   3.639   3.238
23658WAT     H271217   0.975   3.739   3.117
23659WAT      O71218   3.031   2.209   7.433
23659WAT     H171219   2.946   2.188   7.480
23659WAT     H271220   3.054   2.306   7.445
23660WAT      O71221   0.607   9.161   5.256
23660WAT     H171222   0.635   9.158   5.352
23660WAT     H271223   0.678   9.118   5.200
23661WAT      O71224   7.048   6.980   2.309
23661WAT     H171225   7.022   7.061   2.257
23661WAT     H271226   7.114   6.927   2.255
23662WAT      O71227   3.168   3.133   0.907
23662WAT     H171228   3.187   3.175   0.818
23662WAT     H271229   3.121   3.046   0.893
23663WAT      O71230   9.585   5.160   6.552
23663WAT     H171231   9.521   5.225   6.511
23663WAT     H271232   9.573   5.071   6.510
23664WAT      O71233   5.131   7.731   8.324
23664WAT     H171234   5.083   7.813   8.354
23664WAT     H271235   5.065   7.662   8.295
23665WAT      O71236   9.423   0.606   1.606
23665WAT     H171237   9.519   0.631   1.593
23665WAT     H271238   9.382   0.665   1.675
23666WAT      O71239   2.358   1.782   2.028
23666WAT     H171240   2.317   1.727   1.956
23666WAT     H271241   2.287   1.836   2.073
23667WAT      O71242   2.866   3.962   8.489
23667WAT     H171243   2.833   4.026   8.559
23667WAT     H271244   2.922   4.012   8.423
23668WAT      O71245   6.501   8.156   2.237
23668WAT     H171246   6.503   8.111   2.326
23668WAT     H271247   6.450   8.100   2.172
23669WAT      O71248   5.830   6.723   7.226
23669WAT     H171249   5.785   6.778   7.296
23669WAT     H271250   5.882   6.783   7.165
23670WAT      O71251   8.237   0.555   1.754
23670WAT     H171252   8.208   0.493   1.681
23670WAT     H271253   8.156   0.603   1.790
23671WAT      O71254   3.876   5.460   3.509
23671WAT     H171255   3.957   5.479   3.454
23671WAT     H271256   3.870   5.527   3.584
23672WAT      O71257   2.135   1.281   5.641
23672WAT     H171258   2.100   1.255   5.731
23672WAT     H271259   2.070   1.344   5.597
23673WAT      O71260   3.795   4.608   0.149
23673WAT     H171261   3.855   4.595   0.228
23673WAT     H271262   3.772   4.705   0.140
23674WAT      O71263   2.550   5.997   7.273
23674WAT     H171264   2.466   6.024   7.319
23674WAT     H271265   2.628   6.010   7.335
23675WAT      O71266   0.332   3.338   8.865
23675WAT     H171267   0.389   3.258   8.884
23675WAT     H271268   0.326   3.352   8.767
23676WAT      O71269   1.129   3.070   3.932
23676WAT     H171270   1.157   3.055   4.027
23676WAT     H271271   1.162   3.159   3.901
23677WAT      O71272   1.941   4.862   7.420
23677WAT     H171273   1.919   4.953   7.384
23677WAT     H271274   2.034   4.862   7.457
23678WAT      O71275   5.104   7.094   6.467
23678WAT     H171276   5.144   7.015   6.514
23678WAT     H271277   5.164   7.173   6.478
23679WAT      O71278   9.617   0.171   1.552
23679WAT     H171279   9.592   0.167   1.455
23679WAT     H271280   9.599   0.082   1.595
23680WAT      O71281   8.310   4.587   8.762
23680WAT     H171282   8.216   4.621   8.761
23680WAT     H271283   8.333   4.552   8.671
23681WAT      O71284   0.433   9.258   3.613
23681WAT     H171285   0.423   9.213   3.702
23681WAT     H271286   0.352   9.312   3.594
23682WAT      O71287   0.247   3.786   1.914
23682WAT     H171288   0.308   3.859   1.944
23682WAT     H271289   0.183   3.821   1.845
23683WAT      O71290   5.258   9.318   4.164
23683WAT     H171291   5.227   9.343   4.072
23683WAT     H271292   5.316   9.237   4.158
23684WAT      O71293   9.244   8.506   1.525
23684WAT     H171294   9.182   8.447   1.578
23684WAT     H271295   9.279   8.455   1.446
23685WAT      O71296   9.883   6.651   7.384
23685WAT     H171297   9.901   6.722   7.452
23685WAT     H271298   9.798   6.604   7.406
23686WAT      O71299   5.391   2.915   0.471
23686WAT     H171300   5.374   2.958   0.382
23686WAT     H271301   5.309   2.867   0.501
23687WAT      O71302   3.838   9.489   4.812
23687WAT     H171303   3.932   9.516   4.792
23687WAT     H271304   3.812   9.523   4.902
23688WAT      O71305   3.991   2.562   9.699
23688WAT     H171306   4.043   2.481   9.673
23688WAT     H271307   3.898   2.554   9.663
23689WAT      O71308   9.286   6.605   1.645
23689WAT     H171309   9.330   6.689   1.613
23689WAT     H271310   9.312   6.588   1.740
23690WAT      O71311   7.894   1.832   1.723
23690WAT     H171312   7.830   1.875   1.658
23690WAT     H271313   7.950   1.765   1.674
23691WAT      O71314   4.744   0.952   5.691
23691WAT     H171315   4.735   0.999   5.603
23691WAT     H271316   4.675   0.987   5.755
23692WAT      O71317   5.209   1.965   3.850
23692WAT     H171318   5.292   1.926   3.888
23692WAT     H271319   5.145   1.892   3.826
23693WAT      O71320   2.907   7.518   1.153
23693WAT     H171321   2.881   7.470   1.237
23693WAT     H271322   2.995   7.564   1.167
23694WAT      O71323   1.360   5.074   6.894
23694WAT     H171324   1.345   5.076   6.795
23694WAT     H271325   1.292   5.015   6.937
23695WAT      O71326   4.625   5.397   8.038
23695WAT     H171327   4.545   5.402   8.099
23695WAT     H271328   4.655   5.489   8.014
23696WAT      O71329   0.553   4.292   9.801
23696WAT     H171330   0.599   4.381   9.807
23696WAT     H271331   0.544   4.266   9.705
23697WAT      O71332   5.340   5.501   1.287
23697WAT     H171333   5.304   5.477   1.377
23697WAT     H271334   5.440   5.508   1.293
23698WAT      O71335   2.561   5.115   7.605
23698WAT     H171336   2.614   5.047   7.554
23698WAT     H271337   2.522   5.182   7.541
23699WAT      O71338   3.655   6.735   2.573
23699WAT     H171339   3.576   6.796   2.581
23699WAT     H271340   3.643   6.658   2.636
23700WAT      O71341   7.390   5.867   4.433
23700WAT     H171342   7.307   5.888   4.382
23700WAT     H271343   7.462   5.933   4.408
23701WAT      O71344   1.028   8.220   8.132
23701WAT     H171345   1.109   8.258   8.087
23701WAT     H271346   1.001   8.135   8.086
23702WAT      O71347   9.657   2.714   1.700
23702WAT     H171348   9.714   2.788   1.735
23702WAT     H271349   9.716   2.640   1.666
23703WAT      O71350   8.922   9.791   7.028
23703WAT     H171351   8.955   9.885   7.013
23703WAT     H271352   8.932   9.739   6.943
23704WAT      O71353   6.177   2.093   6.285
23704WAT     H171354   6.233   2.103   6.367
23704WAT     H271355   6.100   2.033   6.305
23705WAT      O71356   0.784   4.887   1.358
23705WAT     H171357   0.858   4.821   1.357
23705WAT     H271358   0.743   4.893   1.267
23706WAT      O71359   7.385   6.198   3.188
23706WAT     H171360   7.445   6.277   3.177
23706WAT     H271361   7.320   6.214   3.262
23707WAT      O71362   8.150   8.692   7.578
23707WAT     H171363   8.180   8.723   7.488
23707WAT     H271364   8.171   8.762   7.646
23708WAT      O71365   2.592   3.891   7.389
23708WAT     H171366   2.591   3.803   7.435
23708WAT     H271367   2.538   3.957   7.442
23709WAT      O71368   0.697   6.191   0.788
23709WAT     H171369   0.671   6.287   0.790
23709WAT     H271370   0.675   6.149   0.876
23710WAT      O71371   1.702   5.215   8.634
23710WAT     H171372   1.698   5.124   8.593
23710WAT     H271373   1.686   5.284   8.563
23711WAT      O71374   4.948   6.220   3.750
23711WAT     H171375   5.031   6.276   3.744
23711WAT     H271376   4.870   6.274   3.719
23712WAT      O71377   0.155   7.303   2.665
23712WAT     H171378   0.065   7.295   2.624
23712WAT     H271379   0.211   7.366   2.611
23713WAT      O71380   6.394   5.626   9.095
23713WAT     H171381   6.339   5.590   9.171
23713WAT     H271382   6.344   5.614   9.010
23714WAT      O71383   5.742   2.096   1.960
23714WAT     H171384   5.805   2.171   1.942
23714WAT     H271385   5.649   2.125   1.941
23715WAT      O71386   4.565   6.441   8.552
23715WAT     H171387   4.502   6.370   8.582
23715WAT     H271388   4.544   6.469   8.459
23716WAT      O71389   6.112   7.782   9.143
23716WAT     H171390   6.147   7.864   9.098
23716WAT     H271391   6.055   7.731   9.079
23717WAT      O71392   5.421   6.089   4.414
23717WAT     H171393   5.410   6.095   4.514
23717WAT     H271394   5.352   6.146   4.370
23718WAT      O71395   2.225   0.474   5.068
23718WAT     H171396   2.175   0.550   5.028
23718WAT     H271397   2.271   0.422   4.995
23719WAT      O71398   8.890   0.579   1.223
23719WAT     H171399   8.867   0.482   1.215
23719WAT     H271400   8.988   0.589   1.240
23720WAT      O71401   1.907   9.410   0.638
23720WAT     H171402   1.983   9.355   0.671
23720WAT     H271403   1.823   9.354   0.637
23721WAT      O71404   4.272   7.052   7.170
23721WAT     H171405   4.333   7.076   7.096
23721WAT     H271406   4.230   7.135   7.207
23722WAT      O71407   5.290   0.461   6.111
23722WAT     H171408   5.231   0.447   6.191
23722WAT     H271409   5.360   0.529   6.134
23723WAT      O71410   1.914   5.401   1.910
23723WAT     H171411   1.851   5.469   1.946
23723WAT     H271412   1.993   5.446   1.870
23724WAT      O71413   7.446   8.252   5.436
23724WAT     H171414   7.522   8.287   5.381
23724WAT     H271415   7.428   8.316   5.511
23725WAT      O71416   8.104   3.886   4.619
23725WAT     H171417   8.183   3.916   4.565
23725WAT     H271418   8.021   3.897   4.563
23726WAT      O71419   4.888   6.777   8.788
23726WAT     H171420   4.834   6.861   8.798
23726WAT     H271421   4.827   6.702   8.761
23727WAT      O71422   1.032   0.763   8.665
23727WAT     H171423   0.964   0.709   8.714
23727WAT     H271424   1.018   0.860   8.686
23728WAT      O71425   9.206   9.215   9.602
23728WAT     H171426   9.268   9.283   9.641
23728WAT     H271427   9.117   9.221   9.647
23729WAT      O71428   2.743   4.937   3.998
23729WAT     H171429   2.705   4.886   4.075
23729WAT     H271430   2.834   4.972   4.022
23730WAT      O71431   7.568   3.656   6.079
23730WAT     H171432   7.513   3.719   6.134
23730WAT     H271433   7.639   3.615   6.135
23731WAT      O71434   8.203   2.313   5.971
23731WAT     H171435   8.258   2.368   5.908
23731WAT     H271436   8.217   2.345   6.064
23732WAT      O71437   9.637   0.420   0.331
23732WAT     H171438   9.625   0.333   0.284
23732WAT     H271439   9.731   0.453   0.318
23733WAT      O71440   5.815   8.656   9.315
23733WAT     H171441   5.747   8.724   9.288
23733WAT     H271442   5.793   8.622   9.407
23734WAT      O71443   0.455   8.763   6.540
23734WAT     H171444   0.441   8.780   6.442
23734WAT     H271445   0.377   8.714   6.577
23735WAT      O71446   3.517   4.751   1.585
23735WAT     H171447   3.506   4.811   1.664
23735WAT     H271448   3.601   4.698   1.596
23736WAT      O71449   5.774   0.567   4.948
23736WAT     H171450   5.698   0.528   5.000
23736WAT     H271451   5.844   0.600   5.012
23737WAT      O71452   2.395   7.763   3.204
23737WAT     H171453   2.471   7.827   3.212
23737WAT     H271454   2.423   7.672   3.231
23738WAT      O71455   8.557   3.585   0.215
23738WAT     H171456   8.634   3.559   0.156
23738WAT     H271457   8.569   3.680   0.244
23739WAT      O71458   2.802   1.488   0.367
23739WAT     H171459   2.882   1.509   0.423
23739WAT     H271460   2.788   1.389   0.365
23740WAT      O71461   3.313   5.461   0.301
23740WAT     H171462   3.235   5.517   0.330
23740WAT     H271463   3.381   5.459   0.374
23741WAT      O71464   3.364   4.463   6.067
23741WAT     H171465   3.397   4.455   6.161
23741WAT     H271466   3.277   4.513   6.066
23742WAT      O71467   2.586   3.102   2.753
23742WAT     H171468   2.564   3.092   2.850
23742WAT     H271469   2.676   3.065   2.735
23743WAT      O71470   9.880   8.552   2.800
23743WAT     H171471   9.915   8.558   2.706
23743WAT     H271472   9.953   8.579   2.863
23744WAT      O71473   2.370   9.764   9.749
23744WAT     H171474   2.287   9.745   9.800
23744WAT     H271475   2.391   9.686   9.689
23745WAT      O71476   7.491   2.306   3.906
23745WAT     H171477   7.521   2.319   4.000
23745WAT     H271478   7.522   2.384   3.850
23746WAT      O71479   9.714   4.186   8.218
23746WAT     H171480   9.812   4.196   8.237
23746WAT     H271481   9.701   4.152   8.125
23747WAT      O71482   1.243   3.870   2.843
23747WAT     H171483   1.331   3.836   2.810
23747WAT     H271484   1.239   3.969   2.829
23748WAT      O71485   0.808   5.894   8.293
23748WAT     H171486   0.710   5.880   8.308
23748WAT     H271487   0.823   5.982   8.248
23749WAT      O71488   7.866   4.314   6.914
23749WAT     H171489   7.945   4.358   6.870
23749WAT     H271490   7.898   4.256   6.989
23750WAT      O71491   4.438   7.180   3.048
23750WAT     H171492   4.457   7.105   3.110
23750WAT     H271493   4.352   7.224   3.074
23751WAT      O71494   3.320   3.775   6.404
23751WAT     H171495   3.256   3.830   6.458
23751WAT     H271496   3.279   3.755   6.314
23752WAT      O71497   2.788   4.530   2.479
23752WAT     H171498   2.720   4.553   2.410
23752WAT     H271499   2.744   4.515   2.567
23753WAT      O71500   3.552   9.140   7.062
23753WAT     H171501   3.465   9.177   7.096
23753WAT     H271502   3.626   9.167   7.124
23754WAT      O71503   6.666   2.625   7.341
23754WAT     H171504   6.644   2.629   7.439
23754WAT     H271505   6.582   2.614   7.289
23755WAT      O71506   7.851   8.302   5.750
23755WAT     H171507   7.849   8.242   5.670
23755WAT     H271508   7.869   8.396   5.721
23756WAT      O71509   4.594   9.318   0.831
23756WAT     H171510   4.681   9.365   0.817
23756WAT     H271511   4.599   9.225   0.794
23757WAT      O71512   2.743   3.187   1.153
23757WAT     H171513   2.662   3.229   1.112
23757WAT     H271514   2.777   3.245   1.227
23758WAT      O71515   8.565   4.946   0.560
23758WAT     H171516   8.520   4.992   0.484
23758WAT     H271517   8.497   4.906   0.621
23759WAT      O71518   0.017   1.472   8.774
23759WAT     H171519   0.081   1.505   8.704
23759WAT     H271520   0.039   1.514   8.862
23760WAT      O71521   2.375   4.972   6.457
23760WAT     H171522   2.437   4.958   6.535
23760WAT     H271523   2.348   5.069   6.453
23761WAT      O71524   0.814   6.670   0.144
23761WAT     H171525   0.911   6.651   0.153
23761WAT     H271526   0.764   6.623   0.217
23762WAT      O71527   1.835   1.375   1.992
23762WAT     H171528   1.865   1.470   2.005
23762WAT     H271529   1.903   1.312   2.029
23763WAT      O71530   6.889   2.560   9.131
23763WAT     H171531   6.863   2.476   9.179
23763WAT     H271532   6.974   2.544   9.081
23764WAT      O71533   2.280   3.259   7.609
23764WAT     H171534   2.322   3.240   7.698
23764WAT     H271535   2.301   3.353   7.583
23765WAT      O71536   6.909   2.837   8.282
23765WAT     H171537   6.893   2.892   8.200
23765WAT     H271538   6.921   2.897   8.361
23766WAT      O71539   4.669   6.196   8.834
23766WAT     H171540   4.616   6.245   8.903
23766WAT     H271541   4.761   6.179   8.868
23767WAT      O71542   0.759   5.847   8.902
23767WAT     H171543   0.718   5.769   8.854
23767WAT     H271544   0.793   5.817   8.991
23768WAT      O71545   3.662   8.490   6.515
23768WAT     H171546   3.662   8.555   6.591
23768WAT     H271547   3.600   8.415   6.535
23769WAT      O71548   8.076   8.236   8.171
23769WAT     H171549   8.080   8.173   8.248
23769WAT     H271550   8.111   8.190   8.089
23770WAT      O71551   4.453   4.319   5.515
23770WAT     H171552   4.432   4.227   5.549
23770WAT     H271553   4.381   4.382   5.545
23771WAT      O71554   7.197   3.997   6.142
23771WAT     H171555   7.235   4.090   6.139
23771WAT     H271556   7.177   3.966   6.049
23772WAT      O71557   2.716   4.991   1.119
23772WAT     H171558   2.786   5.061   1.127
23772WAT     H271559   2.640   5.012   1.181
23773WAT      O71560   1.880   7.632   0.929
23773WAT     H171561   1.833   7.624   0.841
23773WAT     H271562   1.813   7.636   1.002
23774WAT      O71563   0.965   4.052   8.696
23774WAT     H171564   1.004   4.024   8.608
23774WAT     H271565   0.909   3.977   8.732
23775WAT      O71566   9.891   5.328   1.758
23775WAT     H171567   9.845   5.310   1.845
23775WAT     H271568   9.864   5.260   1.691
23776WAT      O71569   4.507   9.410   6.463
23776WAT     H171570   4.578   9.346   6.434
23776WAT     H271571   4.446   9.365   6.528
23777WAT      O71572   0.510   5.679   0.269
23777WAT     H171573   0.584   5.637   0.321
23777WAT     H271574   0.461   5.609   0.216
23778WAT      O71575   5.315   1.485   5.937
23778WAT     H171576   5.277   1.443   6.020
23778WAT     H271577   5.387   1.549   5.963
23779WAT      O71578   3.959   0.301   5.993
23779WAT     H171579   4.038   0.275   6.049
23779WAT     H271580   3.954   0.400   5.986
23780WAT      O71581   0.359   5.254   1.101
23780WAT     H171582   0.383   5.264   1.005
23780WAT     H271583   0.323   5.341   1.136
23781WAT      O71584   0.805   3.974   0.510
23781WAT     H171585   0.899   4.000   0.487
23781WAT     H271586   0.772   3.906   0.445
23782WAT      O71587   3.559   7.174   3.569
23782WAT     H171588   3.566   7.076   3.587
23782WAT     H271589   3.649   7.209   3.543
23783WAT      O71590   3.239   4.602   7.215
23783WAT     H171591   3.210   4.646   7.130
23783WAT     H271592   3.314   4.654   7.256
23784WAT      O71593   6.529   5.263   5.377
23784WAT     H171594   6.549   5.196   5.305
23784WAT     H271595   6.443   5.237   5.422
23785WAT      O71596   8.951   7.018   9.089
23785WAT     H171597   8.940   6.990   8.994
23785WAT     H271598   8.940   6.938   9.149
23786WAT      O71599   2.486   3.805   7.170
23786WAT     H171600   2.502   3.839   7.263
23786WAT     H271601   2.502   3.707   7.167
23787WAT      O71602   7.563   3.338   7.887
23787WAT     H171603   7.567   3.336   7.987
23787WAT     H271604   7.570   3.433   7.856
23788WAT      O71605   9.393   3.527   4.494
23788WAT     H171606   9.482   3.528   4.541
23788WAT     H271607   9.370   3.433   4.469
23789WAT      O71608   1.469   0.467   7.684
23789WAT     H171609   1.470   0.426   7.593
23789WAT     H271610   1.532   0.417   7.744
23790WAT      O71611   1.759   4.236   0.815
23790WAT     H171612   1.725   4.248   0.722
23790WAT     H271613   1.858   4.250   0.817
23791WAT      O71614   7.106   5.812   0.279
23791WAT     H171615   7.204   5.821   0.296
23791WAT     H271616   7.077   5.883   0.214
23792WAT      O71617   0.930   9.660   3.715
23792WAT     H171618   0.962   9.692   3.625
23792WAT     H271619   0.950   9.730   3.784
23793WAT      O71620   5.418   0.774   0.690
23793WAT     H171621   5.351   0.766   0.616
23793WAT     H271622   5.446   0.870   0.699
23794WAT      O71623   4.902   5.843   3.495
23794WAT     H171624   4.834   5.913   3.473
23794WAT     H271625   4.946   5.866   3.582
23795WAT      O71626   0.796   5.761   4.812
23795WAT     H171627   0.893   5.742   4.806
23795WAT     H271628   0.779   5.856   4.788
23796WAT      O71629   1.340   8.297   3.273
23796WAT     H171630   1.420   8.355   3.258
23796WAT     H271631   1.272   8.347   3.327
23797WAT      O71632   0.736   3.225   9.506
23797WAT     H171633   0.640   3.200   9.521
23797WAT     H271634   0.748   3.323   9.517
23798WAT      O71635   0.599   6.913   6.058
23798WAT     H171636   0.650   6.848   6.116
23798WAT     H271637   0.659   6.989   6.033
23799WAT      O71638   7.514   8.922   3.720
23799WAT     H171639   7.539   8.826   3.720
23799WAT     H271640   7.474   8.947   3.808
23800WAT      O71641   8.428   3.792   4.984
23800WAT     H171642   8.396   3.758   4.895
23800WAT     H271643   8.388   3.737   5.057
23801WAT      O71644   9.846   3.771   6.424
23801WAT     H171645   9.808   3.733   6.508
23801WAT     H271646   9.942   3.792   6.437
23802WAT      O71647   4.482   9.712   9.664
23802WAT     H171648   4.550   9.692   9.594
23802WAT     H271649   4.527   9.721   9.753
23803WAT      O71650   8.102   5.107   7.133
23803WAT     H171651   8.087   5.118   7.231
23803WAT     H271652   8.021   5.064   7.091
23804WAT      O71653   8.074   4.091   0.728
23804WAT     H171654   8.104   4.095   0.823
23804WAT     H271655   8.066   3.995   0.700
23805WAT      O71656   8.127   7.616   7.095
23805WAT     H171657   8.028   7.618   7.111
23805WAT     H271658   8.146   7.636   6.999
23806WAT      O71659   5.296   5.008   7.108
23806WAT     H171660   5.266   4.924   7.063
23806WAT     H271661   5.276   5.086   7.048
23807WAT      O71662   4.856   8.481   1.642
23807WAT     H171663   4.762   8.446   1.646
23807WAT     H271664   4.918   8.407   1.618
23808WAT      O71665   7.601   6.920   2.207
23808WAT     H171666   7.583   6.858   2.131
23808WAT     H271667   7.672   6.986   2.181
23809WAT      O71668   1.813   2.669   0.275
23809WAT     H171669   1.793   2.612   0.354
23809WAT     H271670   1.811   2.765   0.302
23810WAT      O71671   0.683   6.055   2.118
23810WAT     H171672   0.766   6.019   2.160
23810WAT     H271673   0.607   6.048   2.183
23811WAT      O71674   1.505   1.689   2.887
23811WAT     H171675   1.572   1.732   2.947
23811WAT     H271676   1.510   1.730   2.796
23812WAT      O71677   6.937   1.078   4.725
23812WAT     H171678   6.927   1.011   4.651
23812WAT     H271679   6.918   1.170   4.690
23813WAT      O71680   0.626   8.703   7.761
23813WAT     H171681   0.586   8.696   7.670
23813WAT     H271682   0.553   8.713   7.829
23814WAT      O71683   7.569   6.994   2.667
23814WAT     H171684   7.653   6.940   2.676
23814WAT     H271685   7.540   6.994   2.571
23815WAT      O71686   8.254   5.871   2.764
23815WAT     H171687   8.262   5.967   2.738
23815WAT     H271688   8.292   5.857   2.855
23816WAT      O71689   6.356   2.665   7.796
23816WAT     H171690   6.314   2.598   7.857
23816WAT     H271691   6.309   2.665   7.708
23817WAT      O71692   3.707   5.637   5.794
23817WAT     H171693   3.796   5.633   5.841
23817WAT     H271694   3.705   5.717   5.734
23818WAT      O71695   2.409   8.947   4.837
23818WAT     H171696   2.485   8.928   4.899
23818WAT     H271697   2.384   8.863   4.788
23819WAT      O71698   4.348   1.893   0.961
23819WAT     H171699   4.330   1.854   0.871
23819WAT     H271700   4.261   1.921   1.002
23820WAT      O71701   2.665   8.969   5.521
23820WAT     H171702   2.673   8.963   5.422
23820WAT     H271703   2.660   9.065   5.549
23821WAT      O71704   0.414   5.268   0.855
23821WAT     H171705   0.388   5.200   0.787
23821WAT     H271706   0.501   5.311   0.830
23822WAT      O71707   3.935   9.305   1.854
23822WAT     H171708   4.016   9.247   1.858
23822WAT     H271709   3.927   9.356   1.939
23823WAT      O71710   3.407   5.321   0.095
23823WAT     H171711   3.481   5.261   0.128
23823WAT     H271712   3.370   5.373   0.172
23824WAT      O71713   8.450   6.435   8.912
23824WAT     H171714   8.515   6.455   8.838
23824WAT     H271715   8.391   6.359   8.884
23825WAT      O71716   6.977   2.200   1.127
23825WAT     H171717   6.890   2.150   1.134
23825WAT     H271718   7.024   2.172   1.044
23826WAT      O71719   6.804   7.417   0.311
23826WAT     H171720   6.804   7.427   0.410
23826WAT     H271721   6.721   7.458   0.273
23827WAT      O71722   4.830   3.236   0.813
23827WAT     H171723   4.892   3.283   0.875
23827WAT     H271724   4.735   3.252   0.841
23828WAT      O71725   3.627   3.742   3.362
23828WAT     H171726   3.560   3.749   3.436
23828WAT     H271727   3.613   3.657   3.312
23829WAT      O71728   2.171   1.021   6.571
23829WAT     H171729   2.243   0.995   6.636
23829WAT     H271730   2.095   0.956   6.578
23830WAT      O71731   2.516   2.599   0.466
23830WAT     H171732   2.480   2.589   0.374
23830WAT     H271733   2.475   2.679   0.510
23831WAT      O71734   1.751   1.160   0.496
23831WAT     H171735   1.842   1.130   0.523
23831WAT     H271736   1.755   1.203   0.406
23832WAT      O71737   7.767   2.538   1.720
23832WAT     H171738   7.826   2.590   1.658
23832WAT     H271739   7.799   2.443   1.725
23833WAT      O71740   9.278   1.903   7.086
23833WAT     H171741   9.320   1.993   7.075
23833WAT     H271742   9.271   1.857   6.998
23834WAT      O71743   9.359   9.513   3.807
23834WAT     H171744   9.395   9.605   3.791
23834WAT     H271745   9.403   9.474   3.888
23835WAT      O71746   6.710   0.343   3.826
23835WAT     H171747   6.674   0.333   3.918
23835WAT     H271748   6.792   0.401   3.828
23836WAT      O71749   1.301   5.857   4.894
23836WAT     H171750   1.365   5.896   4.827
23836WAT     H271751   1.267   5.930   4.954
23837WAT      O71752   7.382   7.404   5.182
23837WAT     H171753   7.465   7.389   5.236
23837WAT     H271754   7.319   7.463   5.232
23838WAT      O71755   8.179   2.275   2.327
23838WAT     H171756   8.246   2.297   2.256
23838WAT     H271757   8.192   2.179   2.356
23839WAT      O71758   8.666   1.828   0.691
23839WAT     H171759   8.741   1.837   0.626
23839WAT     H271760   8.703   1.828   0.784
23840WAT      O71761   1.905   6.158   2.354
23840WAT     H171762   1.933   6.246   2.318
23840WAT     H271763   1.884   6.096   2.279
23841WAT      O71764   2.440   6.521   6.059
23841WAT     H171765   2.478   6.487   5.973
23841WAT     H271766   2.397   6.610   6.043
23842WAT      O71767   6.881   1.689   7.139
23842WAT     H171768   6.973   1.677   7.102
23842WAT     H271769   6.813   1.658   7.072
23843WAT      O71770   5.100   9.258   7.134
23843WAT     H171771   5.144   9.348   7.127
23843WAT     H271772   5.106   9.211   7.046
23844WAT      O71773   5.900   6.887   8.710
23844WAT     H171774   5.962   6.944   8.655
23844WAT     H271775   5.806   6.909   8.686
23845WAT      O71776   2.253   5.343   0.788
23845WAT     H171777   2.177   5.399   0.755
23845WAT     H271778   2.296   5.296   0.711
23846WAT      O71779   0.085   5.585   0.468
23846WAT     H171780   0.133   5.660   0.423
23846WAT     H271781   0.146   5.506   0.475
23847WAT      O71782   3.233   7.482   6.480
23847WAT     H171783   3.145   7.486   6.527
23847WAT     H271784   3.239   7.397   6.428
23848WAT      O71785   8.946   6.873   2.559
23848WAT     H171786   8.884   6.825   2.621
23848WAT     H271787   9.041   6.850   2.582
23849WAT      O71788   8.578   1.933   6.872
23849WAT     H171789   8.629   2.000   6.928
23849WAT     H271790   8.639   1.857   6.848
23850WAT      O71791   4.064   5.770   2.703
23850WAT     H171792   3.973   5.746   2.735
23850WAT     H271793   4.129   5.764   2.779
23851WAT      O71794   7.425   9.527   9.879
23851WAT     H171795   7.447   9.506   9.974
23851WAT     H271796   7.507   9.517   9.822
23852WAT      O71797   7.092   0.287   3.123
23852WAT     H171798   7.160   0.260   3.191
23852WAT     H271799   7.122   0.256   3.033
23853WAT      O71800   7.978   5.716   4.435
23853WAT     H171801   7.989   5.652   4.512
23853WAT     H271802   7.893   5.767   4.446
23854WAT      O71803   0.056   7.725   9.485
23854WAT     H171804   0.140   7.771   9.456
23854WAT     H271805  -0.011   7.794   9.515
23855WAT      O71806   6.304   0.757   4.104
23855WAT     H171807   6.324   0.823   4.032
23855WAT     H271808   6.207   0.762   4.128
23856WAT      O71809   6.492   8.159   2.724
23856WAT     H171810   6.542   8.113   2.797
23856WAT     H271811   6.512   8.257   2.726
23857WAT      O71812   1.036   7.851   1.728
23857WAT     H171813   0.976   7.893   1.796
23857WAT     H271814   1.072   7.765   1.764
23858WAT      O71815   3.038   0.065  -0.002
23858WAT     H171816   2.967   0.003   0.031
23858WAT     H271817   3.043   0.145   0.057
23859WAT      O71818   9.589   9.419   6.804
23859WAT     H171819   9.662   9.442   6.868
23859WAT     H271820   9.574   9.496   6.742
23860WAT      O71821   7.306   9.678   7.215
23860WAT     H171822   7.278   9.713   7.304
23860WAT     H271823   7.241   9.708   7.145
23861WAT      O71824   6.700   3.440   2.942
23861WAT     H171825   6.624   3.452   3.005
23861WAT     H271826   6.726   3.343   2.938
23862WAT      O71827   5.132   0.780   8.056
23862WAT     H171828   5.065   0.772   7.983
23862WAT     H271829   5.089   0.759   8.144
23863WAT      O71830   0.091   7.523   3.600
23863WAT     H171831   0.059   7.611   3.565
23863WAT     H271832   0.012   7.466   3.624
23864WAT      O71833   9.185   3.228   5.519
23864WAT     H171834   9.114   3.160   5.535
23864WAT     H271835   9.248   3.195   5.448
23865WAT      O71836   2.366   7.354   3.866
23865WAT     H171837   2.310   7.411   3.925
23865WAT     H271838   2.407   7.409   3.794
23866WAT      O71839   0.933   9.163   8.639
23866WAT     H171840   0.884   9.214   8.710
23866WAT     H271841   0.880   9.167   8.554
23867WAT      O71842   6.503   8.559   0.358
23867WAT     H171843   6.548   8.645   0.333
23867WAT     H271844   6.497   8.501   0.277
23868WAT      O71845   8.314   5.370   4.372
23868WAT     H171846   8.301   5.412   4.282
23868WAT     H271847   8.388   5.303   4.367
23869WAT      O71848   1.066   0.433   6.840
23869WAT     H171849   0.998   0.443   6.913
23869WAT     H271850   1.124   0.514   6.837
23870WAT      O71851   9.416   3.963   8.595
23870WAT     H171852   9.373   3.873   8.586
23870WAT     H271853   9.430   4.003   8.505
23871WAT      O71854   6.624   6.951   1.284
23871WAT     H171855   6.699   7.007   1.321
23871WAT     H271856   6.537   6.994   1.307
23872WAT      O71857   8.229   2.749   5.253
23872WAT     H171858   8.161   2.686   5.216
23872WAT     H271859   8.238   2.828   5.192
23873WAT      O71860   3.417   0.247   6.087
23873WAT     H171861   3.398   0.191   6.168
23873WAT     H271862   3.336   0.302   6.065
23874WAT      O71863   1.924   4.954   9.260
23874WAT     H171864   1.938   5.042   9.215
23874WAT     H271865   1.847   4.906   9.217
23875WAT      O71866   8.232   8.979   2.251
23875WAT     H171867   8.135   8.955   2.256
23875WAT     H271868   8.276   8.959   2.339
23876WAT      O71869   8.437   9.057   5.398
23876WAT     H171870   8.466   9.077   5.491
23876WAT     H271871   8.391   9.137   5.359
23877WAT      O71872   1.872   9.490   4.789
23877WAT     H171873   1.845   9.584   4.765
23877WAT     H271874   1.852   9.429   4.712
23878WAT      O71875   7.692   9.210   7.997
23878WAT     H171876   7.718   9.212   7.900
23878WAT     H271877   7.773   9.191   8.053
23879WAT      O71878   4.214   5.446   4.914
23879WAT     H171879   4.219   5.367   4.854
23879WAT     H271880   4.120   5.480   4.916
23880WAT      O71881   9.711   6.764   6.916
23880WAT     H171882   9.618   6.735   6.939
23880WAT     H271883   9.772   6.748   6.994
23881WAT      O71884   6.919   2.506   6.532
23881WAT     H171885   6.926   2.581   6.598
23881WAT     H271886   6.957   2.423   6.572
23882WAT      O71887   7.298   5.047   9.427
23882WAT     H171888   7.293   5.085   9.519
23882WAT     H271889   7.394   5.035   9.401
23883WAT      O71890   7.865   7.052   4.426
23883WAT     H171891   7.880   7.107   4.508
23883WAT     H271892   7.826   7.109   4.354
23884WAT      O71893   7.526   7.932   6.586
23884WAT     H171894   7.542   7.950   6.683
23884WAT     H271895   7.452   7.865   6.576
23885WAT      O71896   9.359   5.986   5.104
23885WAT     H171897   9.282   6.005   5.043
23885WAT     H271898   9.330   5.921   5.175
23886WAT      O71899   2.347   4.738   6.820
23886WAT     H171900   2.275   4.743   6.889
23886WAT     H271901   2.305   4.725   6.730
23887WAT      O71902   4.710   5.911   7.617
23887WAT     H171903   4.707   5.965   7.533
23887WAT     H271904   4.619   5.909   7.659
23888WAT      O71905   7.751   8.299   4.575
23888WAT     H171906   7.692   8.343   4.643
23888WAT     H271907   7.847   8.310   4.603
23889WAT      O71908   0.574   4.445   7.165
23889WAT     H171909   0.575   4.471   7.068
23889WAT     H271910   0.480   4.422   7.192
23890WAT      O71911   0.135   5.184   2.272
23890WAT     H171912   0.145   5.273   2.227
23890WAT     H271913   0.146   5.111   2.204
23891WAT      O71914   2.024   6.065   4.007
23891WAT     H171915   2.084   6.069   3.927
23891WAT     H271916   1.929   6.076   3.978
23892WAT      O71917   6.549   1.175   5.347
23892WAT     H171918   6.629   1.138   5.300
23892WAT     H271919   6.466   1.131   5.311
23893WAT      O71920   9.162   6.764   0.802
23893WAT     H171921   9.207   6.690   0.852
23893WAT     H271922   9.175   6.850   0.851
23894WAT      O71923   0.802   8.909   8.146
23894WAT     H171924   0.728   8.898   8.213
23894WAT     H271925   0.822   8.820   8.104
23895WAT      O71926   2.294   0.820   5.427
23895WAT     H171927   2.244   0.759   5.489
23895WAT     H271928   2.285   0.786   5.333
23896WAT      O71929   7.139   7.209   5.006
23896WAT     H171930   7.166   7.199   5.102
23896WAT     H271931   7.203   7.271   4.961
23897WAT      O71932   6.383   9.410   4.699
23897WAT     H171933   6.310   9.474   4.675
23897WAT     H271934   6.347   9.317   4.704
23898WAT      O71935   1.478   5.853   8.057
23898WAT     H171936   1.576   5.855   8.038
23898WAT     H271937   1.460   5.787   8.131
23899WAT      O71938   4.066   7.780   0.876
23899WAT     H171939   3.985   7.797   0.821
23899WAT     H271940   4.134   7.851   0.859
23900WAT      O71941   8.017   6.214   1.479
23900WAT     H171942   7.985   6.122   1.455
23900WAT     H271943   8.112   6.225   1.451
23901WAT      O71944   4.653   1.939   8.293
23901WAT     H171945   4.605   1.902   8.214
23901WAT     H271946   4.646   1.876   8.370
23902WAT      O71947   0.478   9.822   5.544
23902WAT     H171948   0.443   9.766   5.469
23902WAT     H271949   0.420   9.904   5.554
23903WAT      O71950   0.526   3.010   7.839
23903WAT     H171951   0.459   3.054   7.780
23903WAT     H271952   0.483   2.936   7.891
23904WAT      O71953   9.425   1.148   2.038
23904WAT     H171954   9.356   1.120   1.972
23904WAT     H271955   9.401   1.238   2.076
23905WAT      O71956   7.686   0.888   5.027
23905WAT     H171957   7.716   0.802   5.069
23905WAT     H271958   7.623   0.867   4.952
23906WAT      O71959   6.229   7.238   0.124
23906WAT     H171960   6.269   7.201   0.207
23906WAT     H271961   6.189   7.164   0.070
23907WAT      O71962   7.229   0.963   1.328
23907WAT     H171963   7.253   1.052   1.289
23907WAT     H271964   7.171   0.913   1.264
23908WAT      O71965   1.676   9.115   8.850
23908WAT     H171966   1.669   9.171   8.933
23908WAT     H271967   1.593   9.061   8.839
23909WAT      O71968   6.682   0.590   3.612
23909WAT     H171969   6.657   0.685   3.628
23909WAT     H271970   6.739   0.584   3.530
23910WAT      O71971   1.091   9.230   3.433
23910WAT     H171972   1.053   9.148   3.390
23910WAT     H271973   1.138   9.285   3.365
23911WAT      O71974   6.168   8.448   0.456
23911WAT     H171975   6.175   8.548   0.455
23911WAT     H271976   6.249   8.410   0.501
23912WAT      O71977   0.219   0.834   5.658
23912WAT     H171978   0.139   0.861   5.605
23912WAT     H271979   0.303   0.860   5.610
23913WAT      O71980   3.319   7.394   7.786
23913WAT     H171981   3.283   7.428   7.873
23913WAT     H271982   3.261   7.320   7.753
23914WAT      O71983   8.420   5.389   6.735
23914WAT     H171984   8.385   5.391   6.641
23914WAT     H271985   8.401   5.300   6.775
23915WAT      O71986   8.833   7.830   4.466
23915WAT     H171987   8.886   7.760   4.419
23915WAT     H271988   8.873   7.920   4.448
23916WAT      O71989   7.468   8.567   5.940
23916WAT     H171990   7.377   8.558   5.979
23916WAT     H271991   7.486   8.663   5.916
23917WAT      O71992   1.138   6.816   9.364
23917WAT     H171993   1.224   6.774   9.394
23917WAT     H271994   1.075   6.821   9.442
23918WAT      O71995   8.815   0.083   8.005
23918WAT     H171996   8.913   0.106   8.009
23918WAT     H271997   8.804  -0.011   7.973
23919WAT      O71998   8.583   1.481   4.718
23919WAT     H171999   8.561   1.384   4.723
23919WAT     H272000   8.583   1.521   4.810
23920WAT      O72001   9.587   5.092   4.193
23920WAT     H172002   9.656   5.160   4.171
23920WAT     H272003   9.497   5.122   4.161
23921WAT      O72004   7.823   8.238   6.780
23921WAT     H172005   7.730   8.225   6.745
23921WAT     H272006   7.856   8.152   6.820
23922WAT      O72007   2.794   6.223   2.294
23922WAT     H172008   2.717   6.282   2.318
23922WAT     H272009   2.863   6.277   2.245
23923WAT      O72010   1.636   0.048   2.252
23923WAT     H172011   1.687   0.064   2.336
23923WAT     H272012   1.542   0.022   2.275
23924WAT      O72013   8.997   0.143   4.549
23924WAT     H172014   8.961   0.117   4.459
23924WAT     H272015   8.941   0.103   4.621
23925WAT      O72016   1.572   7.465   9.168
23925WAT     H172017   1.514   7.541   9.140
23925WAT     H272018   1.516   7.389   9.200
23926WAT      O72019   3.881   9.390   1.196
23926WAT     H172020   3.940   9.337   1.135
23926WAT     H272021   3.932   9.417   1.277
23927WAT      O72022   8.184   0.688   4.789
23927WAT     H172023   8.089   0.717   4.797
23927WAT     H272024   8.200   0.609   4.848
23928WAT      O72025   5.581   4.860   4.540
23928WAT     H172026   5.535   4.944   4.569
23928WAT     H272027   5.678   4.865   4.563
23929WAT      O72028   7.756   6.379   4.906
23929WAT     H172029   7.663   6.371   4.869
23929WAT     H272030   7.777   6.476   4.923
23930WAT      O72031   2.875   3.110   6.863
23930WAT     H172032   2.906   3.181   6.800
23930WAT     H272033   2.776   3.115   6.874
23931WAT      O72034   9.509   5.648   0.616
23931WAT     H172035   9.517   5.727   0.556
23931WAT     H272036   9.513   5.678   0.711
23932WAT      O72037   6.834   3.381   3.743
23932WAT     H172038   6.834   3.460   3.681
23932WAT     H272039   6.783   3.404   3.826
23933WAT      O72040   6.785   9.130   9.580
23933WAT     H172041   6.699   9.154   9.626
23933WAT     H272042   6.838   9.212   9.565
23934WAT      O72043   8.734   3.275   0.688
23934WAT     H172044   8.705   3.302   0.780
23934WAT     H272045   8.831   3.295   0.677
23935WAT      O72046   4.558   7.204   7.697
23935WAT     H172047   4.540   7.117   7.743
23935WAT     H272048   4.602   7.267   7.761
23936WAT      O72049   2.944   8.355   4.961
23936WAT     H172050   2.858   8.365   4.911
23936WAT     H272051   2.926   8.313   5.050
23937WAT      O72052   1.191   1.339   6.868
23937WAT     H172053   1.184   1.386   6.956
23937WAT     H272054   1.100   1.310   6.839
23938WAT      O72055   8.031   5.512   5.963
23938WAT     H172056   7.932   5.506   5.951
23938WAT     H272057   8.068   5.421   5.981
23939WAT      O72058   9.031   4.514   1.526
23939WAT     H172059   8.950   4.539   1.579
23939WAT     H272060   9.004   4.494   1.432
23940WAT      O72061   2.228   7.550   6.083
23940WAT     H172062   2.193   7.640   6.057
23940WAT     H272063   2.151   7.486   6.091
23941WAT      O72064   9.347   0.245   7.127
23941WAT     H172065   9.327   0.281   7.218
23941WAT     H272066   9.443   0.218   7.122
23942WAT      O72067   4.113   2.971   4.845
23942WAT     H172068   4.075   2.894   4.897
23942WAT     H272069   4.040   3.034   4.819
23943WAT      O72070   8.249   1.656   9.035
23943WAT     H172071   8.249   1.738   9.092
23943WAT     H272072   8.160   1.647   8.990
23944WAT      O72073   0.156   7.025   5.893
23944WAT     H172074   0.232   7.027   5.959
23944WAT     H272075   0.088   6.959   5.925
23945WAT      O72076   8.847   3.666   6.448
23945WAT     H172077   8.839   3.757   6.408
23945WAT     H272078   8.789   3.602   6.398
23946WAT      O72079   5.619   5.243   5.439
23946WAT     H172080   5.565   5.245   5.523
23946WAT     H272081   5.671   5.328   5.432
23947WAT      O72082   0.473   6.653   6.030
23947WAT     H172083   0.458   6.750   6.049
23947WAT     H272084   0.397   6.599   6.068
23948WAT      O72085   3.350   0.675   2.642
23948WAT     H172086   3.420   0.698   2.574
23948WAT     H272087   3.266   0.723   2.621
23949WAT      O72088   4.545   0.494   4.091
23949WAT     H172089   4.554   0.399   4.118
23949WAT     H272090   4.498   0.545   4.162
23950WAT      O72091   4.593   6.663   9.866
23950WAT     H172092   4.528   6.733   9.896
23950WAT     H272093   4.674   6.666   9.926
23951WAT      O72094   4.229   9.109   6.929
23951WAT     H172095   4.248   9.188   6.988
23951WAT     H272096   4.163   9.136   6.858
23952WAT      O72097   7.487   3.592   7.169
23952WAT     H172098   7.453   3.629   7.082
23952WAT     H272099   7.534   3.505   7.152
23953WAT      O72100   5.286   2.979   6.426
23953WAT     H172101   5.243   2.896   6.462
23953WAT     H272102   5.367   3.000   6.481
23954WAT      O72103   4.116   1.926   7.674
23954WAT     H172104   4.158   1.913   7.763
23954WAT     H272105   4.159   2.003   7.627
23955WAT      O72106   5.637   3.967   8.503
23955WAT     H172107   5.576   3.898   8.543
23955WAT     H272108   5.581   4.039   8.461
23956WAT      O72109   7.417   4.815   1.437
23956WAT     H172110   7.317   4.812   1.433
23956WAT     H272111   7.446   4.824   1.533
23957WAT      O72112   3.316   2.092   1.064
23957WAT     H172113   3.321   1.993   1.078
23957WAT     H272114   3.327   2.112   0.967
23958WAT      O72115   8.969   4.618   4.600
23958WAT     H172116   8.975   4.707   4.555
23958WAT     H272117   8.888   4.616   4.659
23959WAT      O72118   3.546   8.017   1.806
23959WAT     H172119   3.460   8.041   1.851
23959WAT     H272120   3.597   7.954   1.864
23960WAT      O72121   7.626   3.840   1.708
23960WAT     H172122   7.669   3.752   1.730
23960WAT     H272123   7.641   3.862   1.612
23961WAT      O72124   8.418   4.410   6.556
23961WAT     H172125   8.344   4.392   6.491
23961WAT     H272126   8.409   4.348   6.634
23962WAT      O72127   4.491   0.152   4.529
23962WAT     H172128   4.563   0.217   4.505
23962WAT     H272129   4.484   0.144   4.628
23963WAT      O72130   9.094   1.498   2.626
23963WAT     H172131   9.023   1.496   2.556
23963WAT     H272132   9.143   1.411   2.627
23964WAT      O72133   1.752   6.649   3.638
23964WAT     H172134   1.663   6.692   3.626
23964WAT     H272135   1.825   6.714   3.615
23965WAT      O72136   2.871   8.347   9.700
23965WAT     H172137   2.929   8.267   9.711
23965WAT     H272138   2.843   8.355   9.604
23966WAT      O72139   8.995   7.217   4.444
23966WAT     H172140   8.953   7.245   4.530
23966WAT     H272141   9.088   7.185   4.462
23967WAT      O72142   1.531   5.658   6.276
23967WAT     H172143   1.564   5.752   6.265
23967WAT     H272144   1.607   5.600   6.306
23968WAT      O72145   3.762   0.679   7.423
23968WAT     H172146   3.834   0.651   7.359
23968WAT     H272147   3.759   0.779   7.428
23969WAT      O72148   0.375   1.489   8.700
23969WAT     H172149   0.299   1.508   8.638
23969WAT     H272150   0.341   1.437   8.779
23970WAT      O72151   8.014   7.556   8.867
23970WAT     H172152   7.962   7.496   8.927
23970WAT     H272153   7.982   7.650   8.879
23971WAT      O72154   2.852   6.706   4.311
23971WAT     H172155   2.917   6.686   4.238
23971WAT     H272156   2.761   6.677   4.284
23972WAT      O72157   6.974   6.992   7.868
23972WAT     H172158   6.880   7.012   7.841
23972WAT     H272159   7.016   7.074   7.906
23973WAT      O72160   9.762   8.361   4.086
23973WAT     H172161   9.851   8.389   4.122
23973WAT     H272162   9.691   8.423   4.120
23974WAT      O72163   7.376   3.966   0.935
23974WAT     H172164   7.362   4.065   0.942
23974WAT     H272165   7.473   3.946   0.924
23975WAT      O72166   1.247   8.940   6.645
23975WAT     H172167   1.215   9.034   6.633
23975WAT     H272168   1.240   8.914   6.742
23976WAT      O72169   0.124   1.584   2.114
23976WAT     H172170   0.111   1.678   2.146
23976WAT     H272171   0.221   1.567   2.101
23977WAT      O72172   4.230   8.979   3.473
23977WAT     H172173   4.200   8.953   3.380
23977WAT     H272174   4.151   9.008   3.526
23978WAT      O72175   8.353   2.990   3.688
23978WAT     H172176   8.281   2.943   3.739
23978WAT     H272177   8.442   2.967   3.727
23979WAT      O72178   4.878   6.184   9.110
23979WAT     H172179   4.924   6.272   9.122
23979WAT     H272180   4.793   6.184   9.163
23980WAT      O72181   1.911   0.606   8.399
23980WAT     H172182   1.844   0.670   8.437
23980WAT     H272183   1.980   0.584   8.469
23981WAT      O72184   1.697   5.475   2.504
23981WAT     H172185   1.637   5.509   2.432
23981WAT     H272186   1.660   5.390   2.541
23982WAT      O72187   4.197   9.179   3.116
23982WAT     H172188   4.127   9.249   3.128
23982WAT     H272189   4.250   9.198   3.034
23983WAT      O72190   2.963   5.464   1.338
23983WAT     H172191   2.921   5.535   1.393
23983WAT     H272192   2.993   5.502   1.250
23984WAT      O72193   4.997   8.031   4.725
23984WAT     H172194   4.931   8.085   4.673
23984WAT     H272195   5.002   8.065   4.819
23985WAT      O72196   2.629   1.177   2.507
23985WAT     H172197   2.573   1.238   2.451
23985WAT     H272198   2.596   1.179   2.602
23986WAT      O72199   8.003   0.411   3.813
23986WAT     H172200   7.927   0.476   3.815
23986WAT     H272201   8.087   0.459   3.789
23987WAT      O72202   6.107   0.257   4.580
23987WAT     H172203   6.061   0.216   4.502
23987WAT     H272204   6.041   0.304   4.638
23988WAT      O72205   0.633   2.956   0.657
23988WAT     H172206   0.649   2.913   0.746
23988WAT     H272207   0.551   2.917   0.615
23989WAT      O72208   2.912   7.983   8.189
23989WAT     H172209   2.921   8.045   8.111
23989WAT     H272210   2.840   7.916   8.171
23990WAT      O72211   7.061   2.246   4.555
23990WAT     H172212   7.062   2.328   4.497
23990WAT     H272213   6.997   2.259   4.630
23991WAT      O72214   9.646   3.659   3.080
23991WAT     H172215   9.618   3.750   3.109
23991WAT     H272216   9.566   3.601   3.067
23992WAT      O72217   9.830   2.964   4.737
23992WAT     H172218   9.909   2.903   4.735
23992WAT     H272219   9.762   2.929   4.802
23993WAT      O72220   4.469   8.490   9.260
23993WAT     H172221   4.536   8.509   9.189
23993WAT     H272222   4.502   8.418   9.320
23994WAT      O72223   8.661   6.026   5.567
23994WAT     H172224   8.671   5.996   5.472
23994WAT     H272225   8.595   5.966   5.613
23995WAT      O72226   9.829   6.245   4.894
23995WAT     H172227   9.777   6.330   4.897
23995WAT     H272228   9.768   6.168   4.909
23996WAT      O72229   0.489   7.443   6.118
23996WAT     H172230   0.406   7.497   6.121
23996WAT     H272231   0.569   7.503   6.119
23997WAT      O72232   2.369   5.408   3.618
23997WAT     H172233   2.417   5.343   3.677
23997WAT     H272234   2.366   5.498   3.662
23998WAT      O72235   2.410   1.777   5.406
23998WAT     H172236   2.362   1.828   5.477
23998WAT     H272237   2.495   1.739   5.443
23999WAT      O72238   9.762   9.161   2.905
23999WAT     H172239   9.746   9.090   2.974
23999WAT     H272240   9.766   9.250   2.950
24000WAT      O72241   5.093   7.524   4.950
24000WAT     H172242   5.014   7.584   4.964
24000WAT     H272243   5.106   7.507   4.852
24001WAT      O72244   9.118   7.567   7.606
24001WAT     H172245   9.018   7.580   7.603
24001WAT     H272246   9.159   7.612   7.527
24002WAT      O72247   6.595   6.208   3.363
24002WAT     H172248   6.662   6.263   3.413
24002WAT     H272249   6.568   6.130   3.419
24003WAT      O72250   3.607   3.669   9.828
24003WAT     H172251   3.624   3.581   9.872
24003WAT     H272252   3.658   3.675   9.742
24004WAT      O72253   8.916   5.530   8.052
24004WAT     H172254   8.888   5.609   8.107
24004WAT     H272255   8.847   5.512   7.982
24005WAT      O72256   3.192   3.804   0.550
24005WAT     H172257   3.194   3.738   0.474
24005WAT     H272258   3.197   3.897   0.514
24006WAT      O72259   1.878   6.160   6.390
24006WAT     H172260   1.800   6.109   6.354
24006WAT     H272261   1.851   6.255   6.406
24007WAT      O72262   2.332   3.783   3.293
24007WAT     H172263   2.315   3.816   3.200
24007WAT     H272264   2.397   3.707   3.289
24008WAT      O72265   4.586   3.996   6.348
24008WAT     H172266   4.634   3.987   6.261
24008WAT     H272267   4.518   4.069   6.341
24009WAT      O72268   2.288   1.593   0.014
24009WAT     H172269   2.329   1.610  -0.075
24009WAT     H272270   2.224   1.666   0.036
24010WAT      O72271   1.988   7.571   1.235
24010WAT     H172272   1.921   7.501   1.210
24010WAT     H272273   1.942   7.644   1.286
24011WAT      O72274   0.903   2.869   6.351
24011WAT     H172275   0.963   2.874   6.271
24011WAT     H272276   0.941   2.803   6.417
24012WAT      O72277   0.288   7.973   8.738
24012WAT     H172278   0.305   7.874   8.732
24012WAT     H272279   0.257   7.995   8.830
24013WAT      O72280   5.757   1.459   6.064
24013WAT     H172281   5.766   1.543   6.116
24013WAT     H272282   5.685   1.403   6.104
24014WAT      O72283   3.514   4.409   0.520
24014WAT     H172284   3.505   4.424   0.421
24014WAT     H272285   3.482   4.318   0.543
24015WAT      O72286   2.186   9.165   8.830
24015WAT     H172287   2.115   9.194   8.893
24015WAT     H272288   2.167   9.202   8.739
24016WAT      O72289   5.899   4.940   1.282
24016WAT     H172290   5.841   5.014   1.249
24016WAT     H272291   5.857   4.898   1.363
24017WAT      O72292   3.079   1.005   0.348
24017WAT     H172293   3.143   0.931   0.367
24017WAT     H272294   3.129   1.092   0.345
24018WAT      O72295   4.568   1.058   2.843
24018WAT     H172296   4.635   1.022   2.907
24018WAT     H272297   4.489   1.094   2.893
24019WAT      O72298   2.207   1.140   0.437
24019WAT     H172299   2.125   1.146   0.494
24019WAT     H272300   2.232   1.231   0.405
24020WAT      O72301   4.807   5.870   9.272
24020WAT     H172302   4.855   5.882   9.359
24020WAT     H272303   4.770   5.958   9.242
24021WAT      O72304   3.888   0.928   1.475
24021WAT     H172305   3.829   0.889   1.545
24021WAT     H272306   3.945   0.856   1.435
24022WAT      O72307   4.313   0.765   8.106
24022WAT     H172308   4.214   0.758   8.100
24022WAT     H272309   4.346   0.827   8.034
24023WAT      O72310   9.761   4.622   5.383
24023WAT     H172311   9.838   4.648   5.441
24023WAT     H272312   9.698   4.564   5.436
24024WAT      O72313   7.350   6.952   1.931
24024WAT     H172314   7.432   6.930   1.985
24024WAT     H272315   7.317   7.042   1.958
24025WAT      O72316   5.544   7.526   5.965
24025WAT     H172317   5.583   7.473   5.890
24025WAT     H272318   5.580   7.619   5.962
24026WAT      O72319   2.172   0.941   0.036
24026WAT     H172320   2.173   1.001  -0.044
24026WAT     H272321   2.077   0.918   0.059
24027WAT      O72322   0.433   0.463   3.381
24027WAT     H172323   0.504   0.414   3.432
24027WAT     H272324   0.408   0.411   3.300
24028WAT      O72325   9.015   9.231   8.329
24028WAT     H172326   8.966   9.284   8.260
24028WAT     H272327   9.100   9.279   8.353
24029WAT      O72328   1.296   9.431   5.763
24029WAT     H172329   1.355   9.422   5.682
24029WAT     H272330   1.322   9.362   5.830
24030WAT      O72331   2.334   2.059   7.136
24030WAT     H172332   2.342   1.968   7.096
24030WAT     H272333   2.390   2.124   7.084
24031WAT      O72334   2.279   6.629   1.457
24031WAT     H172335   2.311   6.586   1.373
24031WAT     H272336   2.185   6.660   1.445
24032WAT      O72337   6.295   1.334   2.090
24032WAT     H172338   6.217   1.273   2.100
24032WAT     H272339   6.323   1.367   2.181
24033WAT      O72340   2.222   6.488   8.900
24033WAT     H172341   2.245   6.395   8.872
24033WAT     H272342   2.131   6.490   8.941
24034WAT      O72343   0.801   1.305   5.151
24034WAT     H172344   0.740   1.327   5.075
24034WAT     H272345   0.880   1.253   5.118
24035WAT      O72346   4.213   9.619   4.967
24035WAT     H172347   4.283   9.686   4.943
24035WAT     H272348   4.166   9.588   4.885
24036WAT      O72349   9.003   9.313   1.320
24036WAT     H172350   9.076   9.374   1.290
24036WAT     H272351   8.955   9.277   1.240
24037WAT      O72352   7.566   3.813   0.613
24037WAT     H172353   7.473   3.823   0.650
24037WAT     H272354   7.611   3.736   0.658
24038WAT      O72355   5.949   4.001   3.500
24038WAT     H172356   6.000   4.069   3.447
24038WAT     H272357   5.912   4.043   3.583
24039WAT      O72358   3.839   2.146   5.788
24039WAT     H172359   3.904   2.075   5.816
24039WAT     H272360   3.840   2.156   5.689
24040WAT      O72361   8.001   0.879   0.738
24040WAT     H172362   7.992   0.829   0.824
24040WAT     H272363   7.914   0.925   0.718
24041WAT      O72364   8.023   2.598   5.826
24041WAT     H172365   8.012   2.580   5.924
24041WAT     H272366   7.956   2.545   5.774
24042WAT      O72367   4.307   2.582   3.911
24042WAT     H172368   4.332   2.663   3.965
24042WAT     H272369   4.263   2.515   3.970
24043WAT      O72370   7.994   6.271   1.025
24043WAT     H172371   7.941   6.287   1.109
24043WAT     H272372   7.983   6.348   0.963
24044WAT      O72373   7.329   0.363   7.036
24044WAT     H172374   7.426   0.352   7.059
24044WAT     H272375   7.278   0.284   7.071
24045WAT      O72376   1.550   8.649   0.718
24045WAT     H172377   1.527   8.743   0.692
24045WAT     H272378   1.585   8.647   0.811
24046WAT      O72379   8.766   5.877   0.531
24046WAT     H172380   8.788   5.894   0.627
24046WAT     H272381   8.667   5.879   0.519
24047WAT      O72382   9.776   8.931   3.108
24047WAT     H172383   9.677   8.944   3.116
24047WAT     H272384   9.822   8.983   3.179
24048WAT      O72385   1.962   0.411   4.847
24048WAT     H172386   2.049   0.455   4.828
24048WAT     H272387   1.916   0.390   4.761
24049WAT      O72388   1.569   0.777   7.974
24049WAT     H172389   1.479   0.806   7.940
24049WAT     H272390   1.616   0.725   7.902
24050WAT      O72391   1.564   2.221   8.402
24050WAT     H172392   1.570   2.148   8.334
24050WAT     H272393   1.540   2.307   8.357
24051WAT      O72394   5.801   7.378   4.625
24051WAT     H172395   5.828   7.426   4.542
24051WAT     H272396   5.866   7.305   4.645
24052WAT      O72397   2.009   7.899   9.266
24052WAT     H172398   2.035   7.879   9.172
24052WAT     H272399   2.057   7.981   9.298
24053WAT      O72400   7.617   2.332   9.882
24053WAT     H172401   7.657   2.240   9.876
24053WAT     H272402   7.534   2.328   9.937
24054WAT      O72403   6.632   4.804   3.273
24054WAT     H172404   6.580   4.837   3.194
24054WAT     H272405   6.728   4.790   3.246
24055WAT      O72406   0.127   6.371   5.291
24055WAT     H172407   0.051   6.424   5.329
24055WAT     H272408   0.190   6.346   5.365
24056WAT      O72409   1.562   2.159   0.776
24056WAT     H172410   1.509   2.080   0.806
24056WAT     H272411   1.514   2.205   0.701
24057WAT      O72412   4.025   7.466   4.527
24057WAT     H172413   4.024   7.496   4.432
24057WAT     H272414   3.963   7.388   4.538
24058WAT      O72415   7.050   5.497   3.696
24058WAT     H172416   7.124   5.548   3.652
24058WAT     H272417   6.963   5.540   3.676
24059WAT      O72418   0.681   2.241   0.622
24059WAT     H172419   0.702   2.310   0.553
24059WAT     H272420   0.736   2.160   0.606
24060WAT      O72421   3.497   2.487   8.524
24060WAT     H172422   3.580   2.534   8.495
24060WAT     H272423   3.502   2.469   8.623
24061WAT      O72424   2.602   2.773   4.854
24061WAT     H172425   2.595   2.860   4.902
24061WAT     H272426   2.524   2.715   4.878
24062WAT      O72427   1.787   9.283   6.165
24062WAT     H172428   1.812   9.186   6.170
24062WAT     H272429   1.869   9.339   6.154
24063WAT      O72430   5.012   0.242   8.062
24063WAT     H172431   5.058   0.211   8.145
24063WAT     H272432   4.960   0.325   8.081
24064WAT      O72433   0.691   7.568   5.221
24064WAT     H172434   0.780   7.553   5.262
24064WAT     H272435   0.637   7.484   5.225
24065WAT      O72436   4.713   0.311   4.476
24065WAT     H172437   4.780   0.269   4.415
24065WAT     H272438   4.713   0.410   4.463
24066WAT      O72439   4.545   9.455   9.262
24066WAT     H172440   4.446   9.442   9.259
24066WAT     H272441   4.567   9.552   9.271
24067WAT      O72442   5.255   5.827   4.862
24067WAT     H172443   5.206   5.862   4.782
24067WAT     H272444   5.268   5.900   4.928
24068WAT      O72445   5.945   6.440   9.434
24068WAT     H172446   5.863   6.388   9.458
24068WAT     H272447   5.999   6.388   9.368
24069WAT      O72448   5.684   7.376   2.030
24069WAT     H172449   5.623   7.320   1.974
24069WAT     H272450   5.664   7.361   2.126
24070WAT      O72451   4.415   1.422   0.064
24070WAT     H172452   4.476   1.456   0.137
24070WAT     H272453   4.447   1.332   0.034
24071WAT      O72454   1.447   1.633   7.670
24071WAT     H172455   1.521   1.659   7.608
24071WAT     H272456   1.433   1.706   7.738
24072WAT      O72457   2.076   3.920   0.092
24072WAT     H172458   2.043   3.936  -0.001
24072WAT     H272459   2.041   3.833   0.125
24073WAT      O72460   7.052   6.933   5.001
24073WAT     H172461   7.079   6.899   4.911
24073WAT     H272462   7.070   7.031   5.005
24074WAT      O72463   6.144   3.918   3.150
24074WAT     H172464   6.154   4.012   3.116
24074WAT     H272465   6.232   3.870   3.143
24075WAT      O72466   1.052   4.976   9.072
24075WAT     H172467   1.055   5.025   9.159
24075WAT     H272468   1.115   5.018   9.007
24076WAT      O72469   7.770   5.862   0.348
24076WAT     H172470   7.840   5.929   0.327
24076WAT     H272471   7.683   5.909   0.365
24077WAT      O72472   0.877   2.960   1.069
24077WAT     H172473   0.801   2.995   1.124
24077WAT     H272474   0.961   2.961   1.123
24078WAT      O72475   2.298   0.879   0.423
24078WAT     H172476   2.297   0.838   0.515
24078WAT     H272477   2.263   0.973   0.428
24079WAT      O72478   5.401   9.472   3.328
24079WAT     H172479   5.462   9.393   3.333
24079WAT     H272480   5.442   9.549   3.377
24080WAT      O72481   0.826   0.618   0.684
24080WAT     H172482   0.851   0.526   0.653
24080WAT     H272483   0.751   0.612   0.750
24081WAT      O72484   8.158   1.788   5.881
24081WAT     H172485   8.147   1.795   5.980
24081WAT     H272486   8.201   1.701   5.858
24082WAT      O72487   2.831   4.497   0.597
24082WAT     H172488   2.759   4.460   0.539
24082WAT     H272489   2.840   4.595   0.581
24083WAT      O72490   5.225   6.984   4.445
24083WAT     H172491   5.187   6.894   4.422
24083WAT     H272492   5.319   6.973   4.477
24084WAT      O72493   5.097   6.292   4.577
24084WAT     H172494   5.056   6.329   4.660
24084WAT     H272495   5.181   6.343   4.556
24085WAT      O72496   8.573   2.991   0.576
24085WAT     H172497   8.632   3.072   0.565
24085WAT     H272498   8.477   3.018   0.563
24086WAT      O72499   8.552   5.601   5.512
24086WAT     H172500   8.633   5.558   5.471
24086WAT     H272501   8.475   5.592   5.449
24087WAT      O72502   5.392   9.677   4.478
24087WAT     H172503   5.430   9.764   4.447
24087WAT     H272504   5.346   9.631   4.402
24088WAT      O72505   4.512   7.588   6.268
24088WAT     H172506   4.573   7.640   6.208
24088WAT     H272507   4.557   7.502   6.293
24089WAT      O72508   6.031   3.208   7.182
24089WAT     H172509   5.955   3.145   7.196
24089WAT     H272510   5.995   3.300   7.168
24090WAT      O72511   1.472   2.307   5.792
24090WAT     H172512   1.440   2.287   5.884
24090WAT     H272513   1.477   2.223   5.739
24091WAT      O72514   6.704   9.218   6.645
24091WAT     H172515   6.690   9.170   6.558
24091WAT     H272516   6.794   9.260   6.646
24092WAT      O72517   4.037   8.807   8.498
24092WAT     H172518   3.952   8.801   8.446
24092WAT     H272519   4.082   8.718   8.499
24093WAT      O72520   2.467   8.065   8.601
24093WAT     H172521   2.537   8.062   8.530
24093WAT     H272522   2.502   8.023   8.685
24094WAT      O72523   1.709   6.926   9.526
24094WAT     H172524   1.638   6.922   9.597
24094WAT     H272525   1.770   6.848   9.536
24095WAT      O72526   9.759   5.977   1.159
24095WAT     H172527   9.837   5.982   1.097
24095WAT     H272528   9.677   6.013   1.114
24096WAT      O72529   3.200   0.046   6.826
24096WAT     H172530   3.125   0.069   6.888
24096WAT     H272531   3.283   0.031   6.879
24097WAT      O72532   8.351   8.969   0.709
24097WAT     H172533   8.304   8.949   0.623
24097WAT     H272534   8.291   8.947   0.786
24098WAT      O72535   9.131   7.760   3.536
24098WAT     H172536   9.153   7.837   3.595
24098WAT     H272537   9.039   7.727   3.556
24099WAT      O72538   1.619   7.796   5.083
24099WAT     H172539   1.623   7.746   4.996
24099WAT     H272540   1.700   7.854   5.091
24100WAT      O72541   9.561   1.314   8.192
24100WAT     H172542   9.527   1.394   8.143
24100WAT     H272543   9.514   1.232   8.159
24101WAT      O72544   3.802   3.706   6.262
24101WAT     H172545   3.714   3.662   6.244
24101WAT     H272546   3.798   3.752   6.350
24102WAT      O72547   4.284   5.591   2.834
24102WAT     H172548   4.305   5.495   2.819
24102WAT     H272549   4.201   5.599   2.889
24103WAT      O72550   5.275   0.043   6.456
24103WAT     H172551   5.334   0.009   6.383
24103WAT     H272552   5.282   0.143   6.459
24104WAT      O72553   3.854   0.537   5.554
24104WAT     H172554   3.911   0.513   5.475
24104WAT     H272555   3.781   0.470   5.564
24105WAT      O72556   9.370   7.218   1.834
24105WAT     H172557   9.363   7.216   1.934
24105WAT     H272558   9.404   7.307   1.805
24106WAT      O72559   6.686   2.952   9.269
24106WAT     H172560   6.756   3.023   9.256
24106WAT     H272561   6.730   2.868   9.302
24107WAT      O72562   6.053   7.680   3.159
24107WAT     H172563   6.073   7.741   3.236
24107WAT     H272564   6.051   7.586   3.191
24108WAT      O72565   9.863   2.570   5.689
24108WAT     H172566   9.927   2.495   5.707
24108WAT     H272567   9.914   2.649   5.654
24109WAT      O72568   5.376   6.423   1.581
24109WAT     H172569   5.306   6.381   1.639
24109WAT     H272570   5.368   6.387   1.488
24110WAT      O72571   7.714   4.161   1.612
24110WAT     H172572   7.754   4.227   1.548
24110WAT     H272573   7.621   4.138   1.583
24111WAT      O72574   0.609   8.958   1.436
24111WAT     H172575   0.642   8.968   1.342
24111WAT     H272576   0.685   8.973   1.500
24112WAT      O72577   6.063   3.389   2.785
24112WAT     H172578   6.022   3.452   2.851
24112WAT     H272579   6.163   3.391   2.795
24113WAT      O72580   3.524   7.894   3.752
24113WAT     H172581   3.567   7.807   3.730
24113WAT     H272582   3.439   7.904   3.700
24114WAT      O72583   7.743   5.997   5.909
24114WAT     H172584   7.650   6.015   5.941
24114WAT     H272585   7.773   5.908   5.943
24115WAT      O72586   1.299   4.262   7.992
24115WAT     H172587   1.284   4.240   7.896
24115WAT     H272588   1.390   4.230   8.020
24116WAT      O72589   4.752   0.142   9.048
24116WAT     H172590   4.712   0.068   8.993
24116WAT     H272591   4.848   0.121   9.066
24117WAT      O72592   5.234   5.055   9.234
24117WAT     H172593   5.251   5.149   9.207
24117WAT     H272594   5.179   5.010   9.164
24118WAT      O72595   2.070   1.832   3.429
24118WAT     H172596   2.121   1.779   3.497
24118WAT     H272597   1.999   1.885   3.475
24119WAT      O72598   5.136   8.051   0.469
24119WAT     H172599   5.072   8.057   0.546
24119WAT     H272600   5.159   8.143   0.438
24120WAT      O72601   6.124   5.531   2.185
24120WAT     H172602   6.098   5.464   2.255
24120WAT     H272603   6.221   5.554   2.194
24121WAT      O72604   5.263   4.940   7.362
24121WAT     H172605   5.272   4.991   7.276
24121WAT     H272606   5.335   4.871   7.367
24122WAT      O72607   1.233   8.496   8.026
24122WAT     H172608   1.243   8.567   8.096
24122WAT     H272609   1.144   8.506   7.981
24123WAT      O72610   6.316   7.115   3.953
24123WAT     H172611   6.327   7.207   3.917
24123WAT     H272612   6.219   7.091   3.955
24124WAT      O72613   6.625   3.378   8.605
24124WAT     H172614   6.600   3.474   8.614
24124WAT     H272615   6.710   3.361   8.656
24125WAT      O72616   9.224   7.933   7.373
24125WAT     H172617   9.245   8.030   7.377
24125WAT     H272618   9.262   7.894   7.289
24126WAT      O72619   7.106   5.173   5.263
24126WAT     H172620   7.041   5.246   5.241
24126WAT     H272621   7.159   5.151   5.181
24127WAT      O72622   2.889   4.274   0.348
24127WAT     H172623   2.945   4.289   0.266
24127WAT     H272624   2.946   4.235   0.420
24128WAT      O72625   6.538   4.996   2.542
24128WAT     H172626   6.486   5.045   2.612
24128WAT     H272627   6.625   4.964   2.581
24129WAT      O72628   9.673   3.417   9.254
24129WAT     H172629   9.746   3.381   9.313
24129WAT     H272630   9.588   3.424   9.306
24130WAT      O72631   7.598   0.522   7.930
24130WAT     H172632   7.615   0.426   7.953
24130WAT     H272633   7.679   0.576   7.954
24131WAT      O72634   6.224   8.937   2.104
24131WAT     H172635   6.221   8.862   2.171
24131WAT     H272636   6.302   8.996   2.124
24132WAT      O72637   0.083   7.397   7.714
24132WAT     H172638   0.158   7.408   7.649
24132WAT     H272639  -0.004   7.393   7.665
24133WAT      O72640   1.507   4.208   8.334
24133WAT     H172641   1.447   4.132   8.357
24133WAT     H272642   1.526   4.207   8.236
24134WAT      O72643   7.018   1.061   2.625
24134WAT     H172644   7.004   1.085   2.721
24134WAT     H272645   6.962   0.981   2.603
24135WAT      O72646   4.299   6.121   1.569
24135WAT     H172647   4.263   6.203   1.613
24135WAT     H272648   4.325   6.054   1.639
24136WAT      O72649   4.246   1.479   7.050
24136WAT     H172650   4.265   1.577   7.053
24136WAT     H272651   4.329   1.428   7.072
24137WAT      O72652   4.672   4.514   8.923
24137WAT     H172653   4.764   4.486   8.893
24137WAT     H272654   4.645   4.459   9.002
24138WAT      O72655   7.452   2.130   4.575
24138WAT     H172656   7.407   2.089   4.496
24138WAT     H272657   7.488   2.219   4.550
24139WAT      O72658   3.587   6.521   8.657
24139WAT     H172659   3.574   6.523   8.756
24139WAT     H272660   3.658   6.588   8.631
24140WAT      O72661   3.828   9.197   8.039
24140WAT     H172662   3.768   9.274   8.061
24140WAT     H272663   3.817   9.172   7.943
24141WAT      O72664   9.196   3.235   1.134
24141WAT     H172665   9.152   3.322   1.156
24141WAT     H272666   9.294   3.250   1.118
24142WAT      O72667   7.929   5.387   0.960
24142WAT     H172668   7.842   5.337   0.971
24142WAT     H272669   7.940   5.412   0.864
24143WAT      O72670   0.110   8.056   4.367
24143WAT     H172671   0.037   8.025   4.428
24143WAT     H272672   0.089   8.148   4.334
24144WAT      O72673   6.965   3.082   4.553
24144WAT     H172674   6.954   3.177   4.582
24144WAT     H272675   6.982   3.080   4.454
24145WAT      O72676   5.791   5.272   4.457
24145WAT     H172677   5.854   5.196   4.440
24145WAT     H272678   5.697   5.239   4.457
24146WAT      O72679   9.397   6.384   9.135
24146WAT     H172680   9.349   6.402   9.221
24146WAT     H272681   9.490   6.421   9.141
24147WAT      O72682   4.437   3.934   0.057
24147WAT     H172683   4.492   3.994   0.115
24147WAT     H272684   4.490   3.852   0.033
24148WAT      O72685   5.970   0.862   7.367
24148WAT     H172686   6.047   0.806   7.395
24148WAT     H272687   5.975   0.951   7.412
24149WAT      O72688   7.386   6.075   2.482
24149WAT     H172689   7.366   6.160   2.532
24149WAT     H272690   7.445   6.096   2.404
24150WAT      O72691   6.539   2.431   3.716
24150WAT     H172692   6.505   2.447   3.624
24150WAT     H272693   6.631   2.469   3.724
24151WAT      O72694   9.170   2.602   8.295
24151WAT     H172695   9.216   2.641   8.215
24151WAT     H272696   9.162   2.503   8.284
24152WAT      O72697   2.989   7.551   7.613
24152WAT     H172698   2.990   7.460   7.573
24152WAT     H272699   2.995   7.619   7.540
24153WAT      O72700   2.366   5.319   9.265
24153WAT     H172701   2.399   5.364   9.183
24153WAT     H272702   2.388   5.375   9.345
24154WAT      O72703   9.167   7.085   8.209
24154WAT     H172704   9.171   7.113   8.113
24154WAT     H272705   9.164   7.166   8.268
24155WAT      O72706   0.292   1.643   3.047
24155WAT     H172707   0.290   1.667   2.950
24155WAT     H272708   0.254   1.551   3.060
24156WAT      O72709   1.877   5.331   4.527
24156WAT     H172710   1.892   5.233   4.543
24156WAT     H272711   1.829   5.343   4.440
24157WAT      O72712   0.494   8.625   6.950
24157WAT     H172713   0.402   8.585   6.953
24157WAT     H272714   0.493   8.708   6.894
24158WAT      O72715   2.846   6.194   5.260
24158WAT     H172716   2.837   6.290   5.287
24158WAT     H272717   2.766   6.143   5.291
24159WAT      O72718   4.444   5.822   8.166
24159WAT     H172719   4.475   5.917   8.159
24159WAT     H272720   4.428   5.799   8.262
24160WAT      O72721   3.635   7.471   1.910
24160WAT     H172722   3.710   7.469   1.844
24160WAT     H272723   3.599   7.564   1.918
24161WAT      O72724   0.170   4.790   0.928
24161WAT     H172725   0.084   4.768   0.883
24161WAT     H272726   0.177   4.889   0.942
24162WAT      O72727   1.183   5.805   2.223
24162WAT     H172728   1.123   5.754   2.161
24162WAT     H272729   1.277   5.801   2.189
24163WAT      O72730   7.453   9.261   4.042
24163WAT     H172731   7.361   9.233   4.014
24163WAT     H272732   7.483   9.204   4.119
24164WAT      O72733   8.851   2.688   6.884
24164WAT     H172734   8.758   2.651   6.889
24164WAT     H272735   8.911   2.635   6.944
24165WAT      O72736   2.722   5.870   5.865
24165WAT     H172737   2.818   5.847   5.853
24165WAT     H272738   2.710   5.924   5.949
24166WAT      O72739   0.986   8.350   3.647
24166WAT     H172740   1.084   8.365   3.658
24166WAT     H272741   0.971   8.265   3.597
24167WAT      O72742   5.819   3.823   6.923
24167WAT     H172743   5.820   3.724   6.940
24167WAT     H272744   5.907   3.851   6.884
24168WAT      O72745   2.743   6.293   7.219
24168WAT     H172746   2.654   6.268   7.257
24168WAT     H272747   2.791   6.210   7.190
24169WAT      O72748   7.265   0.566   3.958
24169WAT     H172749   7.270   0.645   3.896
24169WAT     H272750   7.245   0.484   3.904
24170WAT      O72751   9.871   8.058   7.702
24170WAT     H172752   9.806   8.106   7.762
24170WAT     H272753   9.882   8.110   7.617
24171WAT      O72754   2.973   1.237   7.445
24171WAT     H172755   2.972   1.137   7.451
24171WAT     H272756   3.061   1.271   7.475
24172WAT      O72757   3.786   7.015   3.314
24172WAT     H172758   3.753   6.970   3.397
24172WAT     H272759   3.710   7.057   3.265
24173WAT      O72760   6.389   2.965   2.822
24173WAT     H172761   6.485   2.991   2.823
24173WAT     H272762   6.381   2.865   2.823
24174WAT      O72763   9.740   1.167   2.858
24174WAT     H172764   9.694   1.148   2.771
24174WAT     H272765   9.761   1.081   2.904
24175WAT      O72766   1.062   4.471   1.437
24175WAT     H172767   1.149   4.421   1.432
24175WAT     H272768   1.017   4.450   1.524
24176WAT      O72769   3.109   2.592   5.937
24176WAT     H172770   3.024   2.645   5.942
24176WAT     H272771   3.101   2.523   5.865
24177WAT      O72772   4.975   8.172   5.456
24177WAT     H172773   5.050   8.237   5.466
24177WAT     H272774   4.893   8.221   5.424
24178WAT      O72775   5.459   9.134   1.636
24178WAT     H172776   5.373   9.096   1.670
24178WAT     H272777   5.495   9.076   1.563
24179WAT      O72778   9.790   3.342   4.123
24179WAT     H172779   9.730   3.325   4.201
24179WAT     H272780   9.735   3.348   4.039
24180WAT      O72781   9.121   9.577   3.392
24180WAT     H172782   9.203   9.547   3.342
24180WAT     H272783   9.130   9.553   3.488
24181WAT      O72784   9.878   3.657   7.816
24181WAT     H172785   9.824   3.578   7.787
24181WAT     H272786   9.938   3.630   7.891
24182WAT      O72787   7.246   7.187   2.040
24182WAT     H172788   7.147   7.194   2.055
24182WAT     H272789   7.279   7.273   2.001
24183WAT      O72790   8.538   4.088   8.131
24183WAT     H172791   8.492   4.108   8.044
24183WAT     H272792   8.635   4.113   8.124
24184WAT      O72793   9.285   1.864   7.701
24184WAT     H172794   9.195   1.904   7.720
24184WAT     H272795   9.295   1.779   7.753
24185WAT      O72796   4.611   9.539   1.768
24185WAT     H172797   4.637   9.467   1.832
24185WAT     H272798   4.534   9.591   1.806
24186WAT      O72799   5.635   8.307   5.627
24186WAT     H172800   5.675   8.388   5.670
24186WAT     H272801   5.576   8.260   5.693
24187WAT      O72802   7.314   6.695   4.884
24187WAT     H172803   7.412   6.711   4.890
24187WAT     H272804   7.270   6.772   4.836
24188WAT      O72805   1.517   5.710   0.517
24188WAT     H172806   1.505   5.619   0.476
24188WAT     H272807   1.594   5.756   0.473
24189WAT      O72808   5.883   7.315   7.998
24189WAT     H172809   5.849   7.310   7.904
24189WAT     H272810   5.807   7.306   8.062
24190WAT      O72811   4.638   9.469   2.513
24190WAT     H172812   4.575   9.392   2.523
24190WAT     H272813   4.612   9.522   2.432
24191WAT      O72814   8.034   8.468   6.121
24191WAT     H172815   8.063   8.400   6.054
24191WAT     H272816   7.980   8.424   6.192
24192WAT      O72817   5.710   6.240   5.269
24192WAT     H172818   5.658   6.299   5.331
24192WAT     H272819   5.711   6.147   5.305
24193WAT      O72820   6.678   7.579   4.211
24193WAT     H172821   6.594   7.633   4.212
24193WAT     H272822   6.754   7.633   4.247
24194WAT      O72823   9.139   4.689   0.350
24194WAT     H172824   9.135   4.616   0.418
24194WAT     H272825   9.233   4.699   0.317
24195WAT      O72826   0.536   5.334   3.175
24195WAT     H172827   0.599   5.356   3.249
24195WAT     H272828   0.492   5.417   3.143
24196WAT      O72829   5.117   4.100   8.397
24196WAT     H172830   5.163   4.041   8.330
24196WAT     H272831   5.185   4.156   8.444
24197WAT      O72832   6.133   5.127   0.768
24197WAT     H172833   6.049   5.168   0.733
24197WAT     H272834   6.148   5.157   0.862
24198WAT      O72835   3.728   1.831   2.357
24198WAT     H172836   3.694   1.803   2.268
24198WAT     H272837   3.652   1.839   2.422
24199WAT      O72838   9.355   5.865   8.613
24199WAT     H172839   9.408   5.927   8.555
24199WAT     H272840   9.258   5.882   8.600
24200WAT      O72841   2.745   2.789   7.342
24200WAT     H172842   2.800   2.706   7.357
24200WAT     H272843   2.800   2.869   7.366
24201WAT      O72844   1.102   1.343   2.274
24201WAT     H172845   1.199   1.326   2.285
24201WAT     H272846   1.050   1.275   2.325
24202WAT      O72847   1.143   4.171   6.623
24202WAT     H172848   1.059   4.222   6.607
24202WAT     H272849   1.142   4.132   6.715
24203WAT      O72850   0.728   3.809   9.720
24203WAT     H172851   0.759   3.894   9.677
24203WAT     H272852   0.787   3.734   9.690
24204WAT      O72853   0.092   7.429   9.249
24204WAT     H172854   0.028   7.489   9.298
24204WAT     H272855   0.041   7.377   9.180
24205WAT      O72856   5.202   5.494   0.439
24205WAT     H172857   5.289   5.542   0.443
24205WAT     H272858   5.134   5.552   0.393
24206WAT      O72859   1.286   5.115   0.955
24206WAT     H172860   1.317   5.189   1.016
24206WAT     H272861   1.187   5.107   0.960
24207WAT      O72862   3.506   6.658   1.048
24207WAT     H172863   3.441   6.584   1.064
24207WAT     H272864   3.494   6.728   1.118
24208WAT      O72865   8.512   4.609   4.083
24208WAT     H172866   8.497   4.706   4.101
24208WAT     H272867   8.469   4.584   3.996
24209WAT      O72868   1.420   7.641   9.030
24209WAT     H172869   1.334   7.608   8.990
24209WAT     H272870   1.496   7.615   8.971
24210WAT      O72871   2.783   3.014   3.867
24210WAT     H172872   2.722   3.092   3.882
24210WAT     H272873   2.748   2.934   3.915
24211WAT      O72874   4.535   1.657   8.205
24211WAT     H172875   4.521   1.570   8.158
24211WAT     H272876   4.596   1.645   8.283
24212WAT      O72877   5.068   3.374   7.190
24212WAT     H172878   5.102   3.331   7.273
24212WAT     H272879   4.996   3.318   7.150
24213WAT      O72880   2.196   8.077   8.613
24213WAT     H172881   2.293   8.065   8.589
24213WAT     H272882   2.188   8.148   8.683
24214WAT      O72883   2.458   0.265   8.252
24214WAT     H172884   2.367   0.293   8.283
24214WAT     H272885   2.463   0.166   8.248
24215WAT      O72886   9.496   5.435   3.870
24215WAT     H172887   9.514   5.518   3.922
24215WAT     H272888   9.400   5.409   3.880
24216WAT      O72889   8.948   3.582   6.058
24216WAT     H172890   8.870   3.522   6.037
24216WAT     H272891   9.031   3.544   6.017
24217WAT      O72892   9.443   7.969   6.751
24217WAT     H172893   9.426   7.871   6.759
24217WAT     H272894   9.408   8.015   6.833
24218WAT      O72895   9.812   2.559   9.390
24218WAT     H172896   9.865   2.475   9.379
24218WAT     H272897   9.860   2.634   9.344
24219WAT      O72898   1.428   8.341   9.117
24219WAT     H172899   1.511   8.392   9.094
24219WAT     H272900   1.443   8.244   9.098
24220WAT      O72901   7.766   1.128   1.401
24220WAT     H172902   7.784   1.162   1.493
24220WAT     H272903   7.729   1.035   1.406
24221WAT      O72904   8.309   7.267   9.788
24221WAT     H172905   8.354   7.318   9.861
24221WAT     H272906   8.252   7.195   9.828
24222WAT      O72907   6.317   4.894   3.077
24222WAT     H172908   6.311   4.818   3.142
24222WAT     H272909   6.249   4.963   3.099
24223WAT      O72910   0.328   1.902   4.017
24223WAT     H172911   0.267   1.978   3.997
24223WAT     H272912   0.279   1.832   4.069
24224WAT      O72913   3.669   9.410   8.108
24224WAT     H172914   3.570   9.420   8.098
24224WAT     H272915   3.715   9.488   8.064
24225WAT      O72916   9.122   4.112   2.072
24225WAT     H172917   9.118   4.141   2.168
24225WAT     H272918   9.137   4.014   2.067
24226WAT      O72919   7.389   2.030   4.337
24226WAT     H172920   7.480   1.991   4.320
24226WAT     H272921   7.322   1.984   4.278
24227WAT      O72922   3.066   3.539   5.090
24227WAT     H172923   3.071   3.490   5.177
24227WAT     H272924   3.077   3.637   5.107
24228WAT      O72925   9.678   6.376   9.697
24228WAT     H172926   9.641   6.335   9.614
24228WAT     H272927   9.712   6.468   9.677
24229WAT      O72928   6.371   0.646   0.024
24229WAT     H172929   6.405   0.712   0.091
24229WAT     H272930   6.341   0.563   0.071
24230WAT      O72931   2.892   5.566   0.102
24230WAT     H172932   2.947   5.549   0.184
24230WAT     H272933   2.812   5.506   0.103
24231WAT      O72934   0.348   0.943   6.100
24231WAT     H172935   0.419   0.993   6.150
24231WAT     H272936   0.360   0.845   6.113
24232WAT      O72937   8.579   8.961   6.394
24232WAT     H172938   8.560   9.038   6.334
24232WAT     H272939   8.672   8.968   6.429
24233WAT      O72940   7.951   3.696   1.389
24233WAT     H172941   8.016   3.708   1.464
24233WAT     H272942   7.911   3.604   1.395
24234WAT      O72943   1.273   1.667   6.780
24234WAT     H172944   1.292   1.639   6.686
24234WAT     H272945   1.266   1.586   6.838
24235WAT      O72946   5.743   7.843   6.205
24235WAT     H172947   5.714   7.937   6.218
24235WAT     H272948   5.800   7.815   6.283
24236WAT      O72949   7.811   5.025   5.891
24236WAT     H172950   7.771   5.045   5.981
24236WAT     H272951   7.889   5.084   5.876
24237WAT      O72952   7.259   0.981   5.418
24237WAT     H172953   7.271   1.059   5.357
24237WAT     H272954   7.347   0.954   5.456
24238WAT      O72955   3.224   4.664   8.162
24238WAT     H172956   3.157   4.735   8.185
24238WAT     H272957   3.198   4.621   8.076
24239WAT      O72958   9.060   3.418   7.183
24239WAT     H172959   8.977   3.430   7.128
24239WAT     H272960   9.037   3.375   7.270
24240WAT      O72961   3.147   7.510   5.769
24240WAT     H172962   3.066   7.510   5.828
24240WAT     H272963   3.211   7.581   5.801
24241WAT      O72964   8.332   3.110   4.214
24241WAT     H172965   8.304   3.199   4.249
24241WAT     H272966   8.398   3.123   4.140
24242WAT      O72967   5.467   8.209   5.822
24242WAT     H172968   5.403   8.141   5.786
24242WAT     H272969   5.447   8.225   5.919
24243WAT      O72970   2.484   4.402   6.335
24243WAT     H172971   2.559   4.339   6.358
24243WAT     H272972   2.488   4.424   6.238
24244WAT      O72973   2.588   0.283   7.664
24244WAT     H172974   2.504   0.304   7.714
24244WAT     H272975   2.584   0.327   7.574
24245WAT      O72976   7.060   8.295   2.288
24245WAT     H172977   7.114   8.294   2.372
24245WAT     H272978   6.976   8.244   2.302
24246WAT      O72979   3.131   4.550   4.703
24246WAT     H172980   3.127   4.623   4.635
24246WAT     H272981   3.177   4.470   4.665
24247WAT      O72982   0.247   0.561   6.456
24247WAT     H172983   0.270   0.562   6.554
24247WAT     H272984   0.155   0.523   6.445
24248WAT      O72985   2.929   0.371   6.781
24248WAT     H172986   2.915   0.439   6.853
24248WAT     H272987   2.989   0.410   6.710
24249WAT      O72988   5.635   8.819   8.205
24249WAT     H172989   5.597   8.788   8.292
24249WAT     H272990   5.617   8.916   8.193
24250WAT      O72991   1.214   4.462   6.540
24250WAT     H172992   1.251   4.548   6.574
24250WAT     H272993   1.219   4.393   6.612
24251WAT      O72994   6.424   8.332   4.135
24251WAT     H172995   6.394   8.284   4.053
24251WAT     H272996   6.451   8.266   4.205
24252WAT      O72997   7.722   6.558   1.256
24252WAT     H172998   7.803   6.605   1.289
24252WAT     H272999   7.643   6.586   1.310
24253WAT      O73000   3.005   5.739   0.704
24253WAT     H173001   3.017   5.811   0.636
24253WAT     H273002   2.973   5.655   0.659
24254WAT      O73003   3.603   7.219   3.134
24254WAT     H173004   3.634   7.310   3.161
24254WAT     H273005   3.540   7.183   3.203
24255WAT      O73006   8.401   6.754   8.852
24255WAT     H173007   8.365   6.706   8.932
24255WAT     H273008   8.341   6.832   8.831
24256WAT      O73009   3.339   6.488   6.345
24256WAT     H173010   3.372   6.522   6.257
24256WAT     H273011   3.387   6.404   6.368
24257WAT      O73012   7.722   7.291   3.057
24257WAT     H173013   7.815   7.308   3.091
24257WAT     H273014   7.659   7.353   3.104
24258WAT      O73015   5.285   3.920   8.296
24258WAT     H173016   5.315   3.825   8.284
24258WAT     H273017   5.365   3.980   8.292
24259WAT      O73018   7.173   0.766   6.431
24259WAT     H173019   7.261   0.774   6.383
24259WAT     H273020   7.122   0.688   6.393
24260WAT      O73021   8.562   0.228   9.062
24260WAT     H173022   8.636   0.164   9.041
24260WAT     H273023   8.508   0.192   9.139
24261WAT      O73024   4.793   1.033   0.563
24261WAT     H173025   4.759   1.003   0.475
24261WAT     H273026   4.847   0.960   0.605
24262WAT      O73027   3.637   1.253   4.043
24262WAT     H173028   3.719   1.216   4.088
24262WAT     H273029   3.632   1.351   4.059
24263WAT      O73030   5.688   9.410   8.028
24263WAT     H173031   5.714   9.368   7.941
24263WAT     H273032   5.595   9.445   8.022
24264WAT      O73033   2.693   9.007   8.472
24264WAT     H173034   2.757   8.937   8.503
24264WAT     H273035   2.656   8.982   8.383
24265WAT      O73036   4.812   9.156   0.644
24265WAT     H173037   4.751   9.111   0.710
24265WAT     H273038   4.823   9.252   0.671
24266WAT      O73039   7.206   1.692   6.517
24266WAT     H173040   7.292   1.732   6.485
24266WAT     H273041   7.130   1.751   6.490
24267WAT      O73042   7.090   8.713   5.222
24267WAT     H173043   7.070   8.763   5.306
24267WAT     H273044   7.188   8.692   5.218
24268WAT      O73045   7.619   5.430   4.821
24268WAT     H173046   7.663   5.492   4.887
24268WAT     H273047   7.626   5.336   4.853
24269WAT      O73048   2.902   2.449   8.125
24269WAT     H173049   2.818   2.416   8.167
24269WAT     H273050   2.881   2.488   8.035
24270WAT      O73051   2.541   8.630   2.414
24270WAT     H173052   2.534   8.586   2.503
24270WAT     H273053   2.625   8.683   2.409
24271WAT      O73054   9.561   6.140   1.552
24271WAT     H173055   9.521   6.228   1.525
24271WAT     H273056   9.606   6.150   1.641
24272WAT      O73057   3.564   3.336   8.848
24272WAT     H173058   3.552   3.251   8.796
24272WAT     H273059   3.554   3.414   8.786
24273WAT      O73060   2.366   9.569   5.993
24273WAT     H173061   2.294   9.557   5.924
24273WAT     H273062   2.323   9.594   6.081
24274WAT      O73063   6.323   1.736   2.154
24274WAT     H173064   6.244   1.687   2.115
24274WAT     H273065   6.356   1.803   2.088
24275WAT      O73066   7.005   2.528   1.778
24275WAT     H173067   7.076   2.525   1.849
24275WAT     H273068   7.045   2.498   1.691
24276WAT      O73069   9.849   5.176   8.984
24276WAT     H173070   9.756   5.195   8.955
24276WAT     H273071   9.900   5.262   8.990
24277WAT      O73072   3.345   1.179   8.516
24277WAT     H173073   3.327   1.082   8.502
24277WAT     H273074   3.268   1.220   8.566
24278WAT      O73075   5.049   9.261   5.985
24278WAT     H173076   5.064   9.255   6.084
24278WAT     H273077   5.099   9.339   5.949
24279WAT      O73078   5.165   2.884   2.212
24279WAT     H173079   5.124   2.899   2.302
24279WAT     H273080   5.218   2.964   2.186
24280WAT      O73081   0.934   3.807   0.714
24280WAT     H173082   0.992   3.888   0.722
24280WAT     H273083   0.856   3.828   0.655
24281WAT      O73084   0.489   5.003   4.919
24281WAT     H173085   0.540   5.013   5.004
24281WAT     H273086   0.490   4.907   4.891
24282WAT      O73087   2.666   1.710   5.564
24282WAT     H173088   2.685   1.791   5.618
24282WAT     H273089   2.737   1.700   5.493
24283WAT      O73090   3.865   0.378   3.546
24283WAT     H173091   3.957   0.404   3.577
24283WAT     H273092   3.800   0.387   3.622
24284WAT      O73093   4.722   5.327   6.162
24284WAT     H173094   4.783   5.405   6.169
24284WAT     H273095   4.660   5.324   6.240
24285WAT      O73096   0.256   3.442   1.115
24285WAT     H173097   0.237   3.534   1.082
24285WAT     H273098   0.354   3.423   1.106
24286WAT      O73099   7.712   3.214   2.262
24286WAT     H173100   7.624   3.203   2.216
24286WAT     H273101   7.758   3.296   2.227
24287WAT      O73102   3.585   9.383   9.339
24287WAT     H173103   3.549   9.291   9.329
24287WAT     H273104   3.531   9.446   9.282
24288WAT      O73105   1.436   0.895   1.383
24288WAT     H173106   1.480   0.819   1.336
24288WAT     H273107   1.425   0.873   1.480
24289WAT      O73108   5.807   9.454   1.678
24289WAT     H173109   5.892   9.480   1.634
24289WAT     H273110   5.737   9.438   1.609
24290WAT      O73111   2.259   4.045   4.132
24290WAT     H173112   2.199   4.100   4.073
24290WAT     H273113   2.217   3.955   4.147
24291WAT      O73114   3.459   3.480   2.336
24291WAT     H173115   3.509   3.508   2.418
24291WAT     H273116   3.524   3.454   2.265
24292WAT      O73117   8.588   5.308   0.651
24292WAT     H173118   8.512   5.273   0.597
24292WAT     H273119   8.659   5.238   0.659
24293WAT      O73120   6.901   4.283   4.101
24293WAT     H173121   6.918   4.185   4.090
24293WAT     H273122   6.979   4.326   4.147
24294WAT      O73123   9.191   2.831   2.334
24294WAT     H173124   9.246   2.811   2.252
24294WAT     H273125   9.239   2.797   2.415
24295WAT      O73126   4.979   1.571   5.844
24295WAT     H173127   5.053   1.637   5.852
24295WAT     H273128   4.916   1.600   5.771
24296WAT      O73129   8.154   6.861   1.201
24296WAT     H173130   8.231   6.908   1.158
24296WAT     H273131   8.071   6.917   1.191
24297WAT      O73132   5.712   2.420   9.674
24297WAT     H173133   5.675   2.511   9.687
24297WAT     H273134   5.686   2.361   9.751
24298WAT      O73135   3.986   3.715   1.400
24298WAT     H173136   4.047   3.773   1.346
24298WAT     H273137   4.024   3.622   1.404
24299WAT      O73138   2.000   6.169   2.616
24299WAT     H173139   1.987   6.155   2.518
24299WAT     H273140   1.921   6.218   2.653
24300WAT      O73141   3.028   0.980   4.485
24300WAT     H173142   2.930   0.995   4.493
24300WAT     H273143   3.074   1.066   4.462
24301WAT      O73144   2.107   4.714   2.958
24301WAT     H173145   2.163   4.703   2.876
24301WAT     H273146   2.011   4.728   2.932
24302WAT      O73147   8.779   9.492   9.607
24302WAT     H173148   8.838   9.513   9.529
24302WAT     H273149   8.804   9.551   9.684
24303WAT      O73150   7.507   7.273   4.426
24303WAT     H173151   7.481   7.179   4.401
24303WAT     H273152   7.588   7.270   4.484
24304WAT      O73153   2.125   3.331   7.238
24304WAT     H173154   2.111   3.321   7.140
24304WAT     H273155   2.168   3.420   7.256
24305WAT      O73156   5.502   9.155   0.928
24305WAT     H173157   5.565   9.102   0.871
24305WAT     H273158   5.491   9.247   0.889
24306WAT      O73159   9.881   2.213   8.341
24306WAT     H173160   9.957   2.220   8.276
24306WAT     H273161   9.835   2.124   8.329
24307WAT      O73162   0.652   5.853   5.474
24307WAT     H173163   0.690   5.886   5.560
24307WAT     H273164   0.722   5.861   5.402
24308WAT      O73165   5.209   8.316   5.495
24308WAT     H173166   5.298   8.281   5.465
24308WAT     H273167   5.219   8.360   5.584
24309WAT      O73168   9.211   2.805   9.552
24309WAT     H173169   9.127   2.779   9.601
24309WAT     H273170   9.287   2.749   9.586
24310WAT      O73171   3.041   4.769   8.522
24310WAT     H173172   2.982   4.845   8.496
24310WAT     H273173   3.047   4.764   8.622
24311WAT      O73174   3.841   7.464   1.724
24311WAT     H173175   3.844   7.479   1.625
24311WAT     H273176   3.912   7.517   1.769
24312WAT      O73177   0.431   2.121   5.216
24312WAT     H173178   0.454   2.209   5.258
24312WAT     H273179   0.333   2.117   5.197
24313WAT      O73180   9.140   8.417   3.989
24313WAT     H173181   9.083   8.372   4.058
24313WAT     H273182   9.090   8.494   3.950
24314WAT      O73183   2.916   6.007   5.661
24314WAT     H173184   2.887   5.959   5.578
24314WAT     H273185   2.935   5.941   5.733
24315WAT      O73186   4.142   3.127   8.668
24315WAT     H173187   4.102   3.074   8.593
24315WAT     H273188   4.196   3.067   8.727
24316WAT      O73189   2.983   2.702   7.618
24316WAT     H173190   2.892   2.661   7.619
24316WAT     H273191   3.009   2.728   7.711
24317WAT      O73192   0.245   2.494   4.353
24317WAT     H173193   0.343   2.501   4.333
24317WAT     H273194   0.210   2.406   4.320
24318WAT      O73195   8.150   0.860   2.409
24318WAT     H173196   8.169   0.861   2.311
24318WAT     H273197   8.165   0.768   2.445
24319WAT      O73198   4.854   8.251   8.814
24319WAT     H173199   4.792   8.289   8.746
24319WAT     H273200   4.837   8.153   8.824
24320WAT      O73201   6.942   6.756   6.959
24320WAT     H173202   6.876   6.812   7.008
24320WAT     H273203   7.010   6.720   7.023
24321WAT      O73204   4.117   4.358   8.586
24321WAT     H173205   4.164   4.274   8.559
24321WAT     H273206   4.020   4.339   8.602
24322WAT      O73207   9.039   8.809   6.572
24322WAT     H173208   9.131   8.843   6.593
24322WAT     H273209   9.037   8.709   6.580
24323WAT      O73210   3.999   7.712   1.154
24323WAT     H173211   4.009   7.618   1.121
24323WAT     H273212   4.040   7.775   1.088
24324WAT      O73213   5.910   8.449   7.605
24324WAT     H173214   5.962   8.364   7.605
24324WAT     H273215   5.897   8.481   7.511
24325WAT      O73216   3.192   7.609   6.084
24325WAT     H173217   3.121   7.538   6.078
24325WAT     H273218   3.275   7.569   6.122
24326WAT      O73219   7.291   9.538   1.435
24326WAT     H173220   7.359   9.466   1.444
24326WAT     H273221   7.259   9.565   1.526
24327WAT      O73222   4.868   6.176   4.461
24327WAT     H173223   4.790   6.239   4.463
24327WAT     H273224   4.941   6.212   4.518
24328WAT      O73225   5.716   3.383   8.553
24328WAT     H173226   5.760   3.404   8.640
24328WAT     H273227   5.625   3.344   8.571
24329WAT      O73228   5.486   9.258   3.101
24329WAT     H173229   5.394   9.275   3.067
24329WAT     H273230   5.543   9.340   3.088
24330WAT      O73231   6.679   7.467   1.304
24330WAT     H173232   6.602   7.478   1.367
24330WAT     H273233   6.689   7.550   1.249
24331WAT      O73234   5.435   8.725   3.579
24331WAT     H173235   5.535   8.724   3.584
24331WAT     H273236   5.406   8.721   3.484
24332WAT      O73237   4.961   2.592   7.954
24332WAT     H173238   4.990   2.672   7.902
24332WAT     H273239   5.018   2.583   8.036
24333WAT      O73240   3.070   2.984   8.124
24333WAT     H173241   3.081   2.886   8.110
24333WAT     H273242   3.091   3.008   8.219
24334WAT      O73243   9.169   0.570   1.004
24334WAT     H173244   9.174   0.632   1.082
24334WAT     H273245   9.078   0.574   0.963
24335WAT      O73246   5.065   3.778   2.060
24335WAT     H173247   5.076   3.777   1.960
24335WAT     H273248   5.093   3.689   2.096
24336WAT      O73249   4.203   4.918   1.264
24336WAT     H173250   4.167   4.946   1.175
24336WAT     H273251   4.293   4.876   1.253
24337WAT      O73252   2.397   2.914   7.447
24337WAT     H173253   2.344   2.998   7.432
24337WAT     H273254   2.489   2.937   7.478
24338WAT      O73255   2.335   7.554   0.370
24338WAT     H173256   2.305   7.562   0.465
24338WAT     H273257   2.286   7.479   0.326
24339WAT      O73258   7.244   8.889   7.608
24339WAT     H173259   7.181   8.853   7.539
24339WAT     H273260   7.232   8.839   7.694
24340WAT      O73261   3.503   5.203   3.379
24340WAT     H173262   3.574   5.132   3.385
24340WAT     H273263   3.434   5.175   3.312
24341WAT      O73264   4.332   4.992   2.770
24341WAT     H173265   4.424   5.031   2.760
24341WAT     H273266   4.339   4.901   2.810
24342WAT      O73267   9.553   0.575   3.809
24342WAT     H173268   9.516   0.667   3.800
24342WAT     H273269   9.590   0.562   3.901
24343WAT      O73270   3.439   2.672   9.546
24343WAT     H173271   3.496   2.754   9.556
24343WAT     H273272   3.360   2.679   9.606
24344WAT      O73273   6.862   5.213   6.884
24344WAT     H173274   6.897   5.302   6.913
24344WAT     H273275   6.853   5.153   6.964
24345WAT      O73276   3.581   7.456   7.987
24345WAT     H173277   3.553   7.451   8.082
24345WAT     H273278   3.561   7.370   7.941
24346WAT      O73279   5.823   2.130   8.230
24346WAT     H173280   5.747   2.110   8.292
24346WAT     H273281   5.798   2.204   8.168
24347WAT      O73282   4.943   1.746   9.569
24347WAT     H173283   4.901   1.703   9.489
24347WAT     H273284   5.041   1.759   9.552
24348WAT      O73285   6.971   9.424   7.279
24348WAT     H173286   7.062   9.383   7.287
24348WAT     H273287   6.912   9.390   7.352
24349WAT      O73288   0.113   3.740   0.527
24349WAT     H173289   0.126   3.802   0.604
24349WAT     H273290   0.154   3.651   0.548
24350WAT      O73291   9.607   8.436   8.848
24350WAT     H173292   9.697   8.478   8.838
24350WAT     H273293   9.593   8.409   8.943
24351WAT      O73294   9.482   0.993   8.117
24351WAT     H173295   9.516   0.934   8.043
24351WAT     H273296   9.541   0.984   8.197
24352WAT      O73297   2.203   8.884   2.722
24352WAT     H173298   2.194   8.801   2.667
24352WAT     H273299   2.126   8.891   2.784
24353WAT      O73300   6.129   9.271   8.331
24353WAT     H173301   6.086   9.256   8.420
24353WAT     H273302   6.067   9.240   8.259
24354WAT      O73303   4.899   6.537   1.947
24354WAT     H173304   4.880   6.459   1.889
24354WAT     H273305   4.832   6.609   1.930
24355WAT      O73306   0.067   9.563   2.963
24355WAT     H173307   0.033   9.567   2.869
24355WAT     H273308   0.035   9.643   3.013
24356WAT      O73309   9.592   3.072   3.529
24356WAT     H173310   9.511   3.109   3.573
24356WAT     H273311   9.656   3.146   3.508
24357WAT      O73312   4.519   6.248   2.652
24357WAT     H173313   4.465   6.165   2.663
24357WAT     H273314   4.580   6.239   2.574
24358WAT      O73315   2.265   4.867   4.380
24358WAT     H173316   2.301   4.799   4.316
24358WAT     H273317   2.338   4.929   4.407
24359WAT      O73318   3.238   8.814   6.951
24359WAT     H173319   3.188   8.762   6.882
24359WAT     H273320   3.311   8.867   6.907
24360WAT      O73321   0.887   4.958   9.797
24360WAT     H173322   0.852   5.010   9.719
24360WAT     H273323   0.811   4.912   9.843
24361WAT      O73324   1.408   6.065   2.022
24361WAT     H173325   1.342   6.023   1.959
24361WAT     H273326   1.370   6.150   2.057
24362WAT      O73327   8.487   6.239   7.095
24362WAT     H173328   8.533   6.282   7.018
24362WAT     H273329   8.545   6.167   7.133
24363WAT      O73330   1.311   3.753   4.949
24363WAT     H173331   1.218   3.734   4.917
24363WAT     H273332   1.311   3.836   5.005
24364WAT      O73333   3.960   0.466   9.480
24364WAT     H173334   3.954   0.563   9.506
24364WAT     H273335   3.882   0.417   9.517
24365WAT      O73336   7.179   2.377   1.943
24365WAT     H173337   7.255   2.440   1.926
24365WAT     H273338   7.149   2.387   2.038
24366WAT      O73339   8.796   7.186   8.345
24366WAT     H173340   8.884   7.215   8.306
24366WAT     H273341   8.722   7.217   8.285
24367WAT      O73342   1.488   3.550   7.125
24367WAT     H173343   1.401   3.591   7.097
24367WAT     H273344   1.563   3.610   7.099
24368WAT      O73345   1.015   3.533   2.773
24368WAT     H173346   1.054   3.549   2.682
24368WAT     H273347   0.971   3.444   2.775
24369WAT      O73348   1.312   6.310   1.523
24369WAT     H173349   1.278   6.261   1.603
24369WAT     H273350   1.240   6.315   1.454
24370WAT      O73351   6.401   2.614   6.409
24370WAT     H173352   6.485   2.579   6.368
24370WAT     H273353   6.350   2.666   6.340
24371WAT      O73354   7.843   5.590   6.578
24371WAT     H173355   7.928   5.566   6.625
24371WAT     H273356   7.765   5.551   6.627
24372WAT      O73357   2.766   0.093   7.091
24372WAT     H173358   2.717   0.052   7.167
24372WAT     H273359   2.706   0.100   7.011
24373WAT      O73360   1.900   1.844   9.776
24373WAT     H173361   1.915   1.943   9.782
24373WAT     H273362   1.955   1.807   9.701
24374WAT      O73363   2.094   6.699   0.956
24374WAT     H173364   2.182   6.739   0.930
24374WAT     H273365   2.104   6.600   0.966
24375WAT      O73366   2.189   3.012   5.206
24375WAT     H173367   2.276   2.962   5.202
24375WAT     H273368   2.134   2.989   5.125
24376WAT      O73369   6.468   5.541   2.839
24376WAT     H173370   6.464   5.630   2.793
24376WAT     H273371   6.535   5.545   2.913
24377WAT      O73372   7.584   8.329   5.173
24377WAT     H173373   7.531   8.408   5.141
24377WAT     H273374   7.679   8.355   5.185
24378WAT      O73375   9.500   0.714   7.938
24378WAT     H173376   9.402   0.728   7.950
24378WAT     H273377   9.517   0.644   7.869
24379WAT      O73378   5.110   2.723   8.578
24379WAT     H173379   5.170   2.777   8.519
24379WAT     H273380   5.046   2.783   8.626
24380WAT      O73381   5.746   1.473   0.672
24380WAT     H173382   5.661   1.486   0.725
24380WAT     H273383   5.819   1.445   0.734
24381WAT      O73384   3.065   0.237   0.584
24381WAT     H173385   3.153   0.261   0.544
24381WAT     H273386   3.027   0.158   0.535
24382WAT      O73387   2.198   9.288   3.261
24382WAT     H173388   2.165   9.334   3.178
24382WAT     H273389   2.248   9.353   3.318
24383WAT      O73390   8.713   6.308   5.421
24383WAT     H173391   8.751   6.367   5.493
24383WAT     H273392   8.739   6.344   5.331
24384WAT      O73393   9.503   2.716   6.629
24384WAT     H173394   9.409   2.740   6.655
24384WAT     H273395   9.550   2.675   6.707
24385WAT      O73396   1.973   2.106   6.073
24385WAT     H173397   1.893   2.066   6.119
24385WAT     H273398   1.943   2.155   5.992
24386WAT      O73399   9.204   6.999   5.744
24386WAT     H173400   9.188   6.964   5.652
24386WAT     H273401   9.170   7.093   5.751
24387WAT      O73402   2.052   9.534   8.031
24387WAT     H173403   2.042   9.539   8.131
24387WAT     H273404   1.989   9.599   7.989
24388WAT      O73405   2.227   9.140   4.811
24388WAT     H173406   2.246   9.203   4.735
24388WAT     H273407   2.300   9.072   4.816
24389WAT      O73408   2.242   2.376   1.655
24389WAT     H173409   2.259   2.287   1.612
24389WAT     H273410   2.283   2.448   1.600
24390WAT      O73411   0.576   0.812   7.977
24390WAT     H173412   0.574   0.909   7.999
24390WAT     H273413   0.658   0.791   7.925
24391WAT      O73414   9.655   0.500   7.489
24391WAT     H173415   9.658   0.405   7.459
24391WAT     H273416   9.747   0.539   7.487
24392WAT      O73417   7.349   1.851   5.219
24392WAT     H173418   7.258   1.810   5.221
24392WAT     H273419   7.407   1.799   5.157
24393WAT      O73420   2.922   9.053   9.093
24393WAT     H173421   3.007   9.101   9.116
24393WAT     H273422   2.945   8.968   9.045
24394WAT      O73423   7.495   2.397   4.480
24394WAT     H173424   7.584   2.433   4.453
24394WAT     H273425   7.442   2.374   4.399
24395WAT      O73426   4.191   6.126   8.363
24395WAT     H173427   4.263   6.076   8.315
24395WAT     H273428   4.102   6.097   8.329
24396WAT      O73429   3.996   5.151   9.164
24396WAT     H173430   3.929   5.078   9.146
24396WAT     H273431   4.066   5.150   9.093
24397WAT      O73432   4.435   8.401   8.903
24397WAT     H173433   4.519   8.435   8.945
24397WAT     H273434   4.403   8.320   8.953
24398WAT      O73435   6.777   6.240   1.880
24398WAT     H173436   6.865   6.257   1.925
24398WAT     H273437   6.792   6.226   1.782
24399WAT      O73438   4.285   1.039   8.448
24399WAT     H173439   4.307   0.942   8.462
24399WAT     H273440   4.237   1.050   8.361
24400WAT      O73441   6.243   6.756   5.885
24400WAT     H173442   6.233   6.707   5.972
24400WAT     H273443   6.165   6.736   5.825
24401WAT      O73444   1.339   9.623   6.553
24401WAT     H173445   1.373   9.546   6.607
24401WAT     H273446   1.263   9.667   6.601
24402WAT      O73447   6.105   7.494   6.969
24402WAT     H173448   6.036   7.497   6.896
24402WAT     H273449   6.175   7.563   6.952
24403WAT      O73450   3.788   6.508   2.225
24403WAT     H173451   3.694   6.531   2.251
24403WAT     H273452   3.789   6.418   2.182
24404WAT      O73453   0.755   0.608   9.706
24404WAT     H173454   0.813   0.527   9.698
24404WAT     H273455   0.659   0.579   9.708
24405WAT      O73456   5.293   0.392   8.185
24405WAT     H173457   5.241   0.335   8.249
24405WAT     H273458   5.325   0.335   8.109
24406WAT      O73459   1.995   7.252   2.656
24406WAT     H173460   1.903   7.229   2.626
24406WAT     H273461   2.059   7.181   2.625
24407WAT      O73462   2.078   4.866   5.807
24407WAT     H173463   2.091   4.922   5.725
24407WAT     H273464   2.140   4.898   5.879
24408WAT      O73465   6.619   4.240   6.994
24408WAT     H173466   6.638   4.145   6.970
24408WAT     H273467   6.646   4.257   7.089
24409WAT      O73468   6.594   8.858   0.608
24409WAT     H173469   6.627   8.952   0.607
24409WAT     H273470   6.640   8.805   0.536
24410WAT      O73471   0.761   6.991   3.274
24410WAT     H173472   0.791   6.896   3.279
24410WAT     H273473   0.841   7.051   3.267
24411WAT      O73474   9.195   4.626   9.345
24411WAT     H173475   9.099   4.601   9.343
24411WAT     H273476   9.228   4.641   9.251
24412WAT      O73477   2.378   4.644   4.280
24412WAT     H173478   2.375   4.584   4.360
24412WAT     H273479   2.373   4.589   4.197
24413WAT      O73480   9.430   7.325   6.854
24413WAT     H173481   9.393   7.409   6.816
24413WAT     H273482   9.427   7.329   6.954
24414WAT      O73483   7.841   3.288   3.482
24414WAT     H173484   7.893   3.362   3.524
24414WAT     H273485   7.853   3.290   3.382
24415WAT      O73486   3.962   6.766   5.313
24415WAT     H173487   3.975   6.844   5.373
24415WAT     H273488   4.018   6.777   5.231
24416WAT      O73489   7.712   6.621   9.376
24416WAT     H173490   7.650   6.697   9.396
24416WAT     H273491   7.659   6.543   9.342
24417WAT      O73492   0.334   1.203   8.062
24417WAT     H173493   0.361   1.115   8.023
24417WAT     H273494   0.385   1.220   8.146
24418WAT      O73495   7.844   1.111   3.475
24418WAT     H173496   7.875   1.199   3.437
24418WAT     H273497   7.916   1.073   3.533
24419WAT      O73498   0.482   4.970   4.546
24419WAT     H173499   0.398   5.025   4.536
24419WAT     H273500   0.540   5.010   4.617
24420WAT      O73501   9.085   2.677   0.571
24420WAT     H173502   9.010   2.617   0.542
24420WAT     H273503   9.165   2.660   0.513
24421WAT      O73504   0.890   3.773   9.317
24421WAT     H173505   0.918   3.780   9.412
24421WAT     H273506   0.849   3.859   9.287
24422WAT      O73507   2.370   3.801   9.157
24422WAT     H173508   2.432   3.829   9.084
24422WAT     H273509   2.302   3.873   9.172
24423WAT      O73510   7.783   2.715   7.752
24423WAT     H173511   7.842   2.678   7.824
24423WAT     H273512   7.840   2.753   7.679
24424WAT      O73513   8.502   2.010   0.573
24424WAT     H173514   8.437   2.027   0.646
24424WAT     H273515   8.560   1.932   0.597
24425WAT      O73516   4.110   7.431   9.029
24425WAT     H173517   4.091   7.525   9.001
24425WAT     H273518   4.205   7.408   9.009
24426WAT      O73519   4.536   0.682   8.623
24426WAT     H173520   4.566   0.588   8.606
24426WAT     H273521   4.532   0.731   8.536
24427WAT      O73522   6.818   2.443   5.121
24427WAT     H173523   6.783   2.490   5.040
24427WAT     H273524   6.899   2.390   5.096
24428WAT      O73525   6.869   8.977   9.069
24428WAT     H173526   6.911   8.889   9.091
24428WAT     H273527   6.802   9.000   9.139
24429WAT      O73528   2.314   7.315   8.358
24429WAT     H173529   2.295   7.246   8.287
24429WAT     H273530   2.314   7.271   8.448
24430WAT      O73531   0.729   8.133   7.419
24430WAT     H173532   0.697   8.225   7.397
24430WAT     H273533   0.668   8.092   7.487
24431WAT      O73534   2.781   0.291   4.427
24431WAT     H173535   2.859   0.289   4.364
24431WAT     H273536   2.782   0.378   4.478
24432WAT      O73537   2.163   5.753   2.240
24432WAT     H173538   2.186   5.805   2.158
24432WAT     H273539   2.127   5.663   2.214
24433WAT      O73540   0.225   1.013   5.870
24433WAT     H173541   0.280   0.987   5.950
24433WAT     H273542   0.225   0.939   5.803
24434WAT      O73543   9.272   8.913   7.747
24434WAT     H173544   9.209   8.860   7.803
24434WAT     H273545   9.288   8.867   7.660
24435WAT      O73546   5.327   6.702   1.570
24435WAT     H173547   5.343   6.603   1.565
24435WAT     H273548   5.404   6.751   1.529
24436WAT      O73549   8.304   7.041   1.053
24436WAT     H173550   8.217   7.089   1.051
24436WAT     H273551   8.357   7.066   0.972
24437WAT      O73552   3.905   6.654   0.587
24437WAT     H173553   3.841   6.707   0.642
24437WAT     H273554   3.885   6.556   0.598
24438WAT      O73555   0.026   4.928   8.974
24438WAT     H173556   0.035   4.902   8.878
24438WAT     H273557   0.013   5.027   8.981
24439WAT      O73558   3.642   9.182   4.955
24439WAT     H173559   3.655   9.122   5.034
24439WAT     H273560   3.656   9.277   4.982
24440WAT      O73561   2.620   5.354   1.108
24440WAT     H173562   2.652   5.333   1.015
24440WAT     H273563   2.655   5.285   1.171
24441WAT      O73564   1.708   7.846   2.456
24441WAT     H173565   1.686   7.789   2.534
24441WAT     H273566   1.647   7.925   2.454
24442WAT      O73567   1.192   0.278   5.374
24442WAT     H173568   1.251   0.266   5.454
24442WAT     H273569   1.097   0.256   5.399
24443WAT      O73570   5.892   9.564   9.670
24443WAT     H173571   5.908   9.466   9.682
24443WAT     H273572   5.974   9.615   9.695
24444WAT      O73573   6.514   0.972   7.866
24444WAT     H173574   6.577   1.038   7.907
24444WAT     H273575   6.477   1.010   7.782
24445WAT      O73576   1.878   1.006   8.796
24445WAT     H173577   1.887   0.976   8.891
24445WAT     H273578   1.901   1.103   8.789
24446WAT      O73579   2.077   8.342   7.986
24446WAT     H173580   2.053   8.356   8.082
24446WAT     H273581   2.156   8.281   7.980
24447WAT      O73582   1.949   8.988   9.771
24447WAT     H173583   2.040   9.028   9.781
24447WAT     H273584   1.880   9.060   9.776
24448WAT      O73585   3.194   2.143   1.304
24448WAT     H173586   3.271   2.167   1.364
24448WAT     H273587   3.221   2.159   1.209
24449WAT      O73588   1.305   4.134   2.484
24449WAT     H173589   1.385   4.193   2.494
24449WAT     H273590   1.253   4.133   2.570
24450WAT      O73591   2.833   3.761   2.082
24450WAT     H173592   2.882   3.675   2.096
24450WAT     H273593   2.735   3.743   2.069
24451WAT      O73594   7.289   0.137   4.811
24451WAT     H173595   7.224   0.103   4.879
24451WAT     H273596   7.284   0.079   4.729
24452WAT      O73597   7.714   6.052   2.082
24452WAT     H173598   7.761   6.005   2.007
24452WAT     H273599   7.680   6.141   2.050
24453WAT      O73600   6.529   1.379   4.163
24453WAT     H173601   6.492   1.300   4.114
24453WAT     H273602   6.454   1.440   4.189
24454WAT      O73603   2.553   3.733   2.114
24454WAT     H173604   2.577   3.778   2.200
24454WAT     H273605   2.502   3.649   2.133
24455WAT      O73606   5.236   8.022   3.661
24455WAT     H173607   5.295   8.099   3.685
24455WAT     H273608   5.142   8.054   3.652
24456WAT      O73609   6.814   3.274   0.357
24456WAT     H173610   6.864   3.263   0.443
24456WAT     H273611   6.757   3.193   0.341
24457WAT      O73612   1.467   6.993   4.789
24457WAT     H173613   1.423   6.965   4.874
24457WAT     H273614   1.459   7.092   4.778
24458WAT      O73615   5.739   8.030   7.643
24458WAT     H173616   5.719   8.075   7.730
24458WAT     H273617   5.767   8.098   7.576
24459WAT      O73618   4.153   5.927   9.034
24459WAT     H173619   4.133   5.915   8.937
24459WAT     H273620   4.219   6.000   9.046
24460WAT      O73621   1.911   9.822   1.687
24460WAT     H173622   1.967   9.890   1.734
24460WAT     H273623   1.820   9.819   1.729
24461WAT      O73624   9.347   2.227   0.326
24461WAT     H173625   9.338   2.274   0.239
24461WAT     H273626   9.419   2.271   0.380
24462WAT      O73627   3.117   3.807   2.262
24462WAT     H173628   3.200   3.760   2.233
24462WAT     H273629   3.038   3.762   2.221
24463WAT      O73630   7.438   5.624   7.598
24463WAT     H173631   7.343   5.601   7.618
24463WAT     H273632   7.464   5.585   7.510
24464WAT      O73633   6.565   4.953   0.578
24464WAT     H173634   6.577   4.932   0.481
24464WAT     H273635   6.468   4.971   0.596
24465WAT      O73636   6.248   3.067   9.612
24465WAT     H173637   6.292   2.978   9.601
24465WAT     H273638   6.154   3.062   9.576
24466WAT      O73639   7.762   9.339   1.765
24466WAT     H173640   7.669   9.326   1.730
24466WAT     H273641   7.799   9.251   1.795
24467WAT      O73642   6.395   8.689   3.999
24467WAT     H173643   6.396   8.639   4.086
24467WAT     H273644   6.386   8.787   4.017
24468WAT      O73645   7.050   7.799   9.663
24468WAT     H173646   7.000   7.796   9.576
24468WAT     H273647   7.049   7.709   9.706
24469WAT      O73648   4.924   5.483   5.084
24469WAT     H173649   4.828   5.487   5.059
24469WAT     H273650   4.946   5.391   5.116
24470WAT      O73651   8.335   7.974   1.058
24470WAT     H173652   8.290   8.016   0.979
24470WAT     H273653   8.333   7.874   1.048
24471WAT      O73654   0.318   9.021   4.626
24471WAT     H173655   0.350   9.012   4.720
24471WAT     H273656   0.394   9.009   4.562
24472WAT      O73657   2.065   6.703   1.705
24472WAT     H173658   2.067   6.802   1.720
24472WAT     H273659   2.151   6.663   1.738
24473WAT      O73660   3.358   5.221   1.168
24473WAT     H173661   3.438   5.203   1.110
24473WAT     H273662   3.388   5.259   1.256
24474WAT      O73663   5.668   0.769   4.815
24474WAT     H173664   5.617   0.734   4.737
24474WAT     H273665   5.710   0.693   4.865
24475WAT      O73666   0.704   2.937   0.175
24475WAT     H173667   0.641   3.009   0.203
24475WAT     H273668   0.702   2.862   0.241
24476WAT      O73669   3.204   6.288   1.848
24476WAT     H173670   3.203   6.254   1.942
24476WAT     H273671   3.113   6.281   1.809
24477WAT      O73672   5.985   8.575   5.150
24477WAT     H173673   5.893   8.615   5.145
24477WAT     H273674   6.022   8.587   5.242
24478WAT      O73675   0.194   8.492   8.121
24478WAT     H173676   0.127   8.562   8.145
24478WAT     H273677   0.176   8.459   8.029
24479WAT      O73678   8.794   4.899   4.068
24479WAT     H173679   8.852   4.848   4.131
24479WAT     H273680   8.735   4.835   4.018
24480WAT      O73681   9.831   2.230   6.175
24480WAT     H173682   9.778   2.276   6.104
24480WAT     H273683   9.859   2.139   6.142
24481WAT      O73684   3.886   0.879   5.760
24481WAT     H173685   3.959   0.839   5.705
24481WAT     H273686   3.924   0.927   5.839
24482WAT      O73687   3.912   5.795   1.372
24482WAT     H173688   3.994   5.850   1.356
24482WAT     H273689   3.866   5.779   1.284
24483WAT      O73690   1.779   5.758   0.378
24483WAT     H173691   1.805   5.662   0.383
24483WAT     H273692   1.855   5.812   0.344
24484WAT      O73693   6.342   3.277   9.834
24484WAT     H173694   6.383   3.320   9.754
24484WAT     H273695   6.326   3.180   9.816
24485WAT      O73696   8.033   0.524   3.253
24485WAT     H173697   8.061   0.466   3.177
24485WAT     H273698   8.007   0.466   3.331
24486WAT      O73699   9.272   6.539   0.918
24486WAT     H173700   9.360   6.536   0.966
24486WAT     H273701   9.282   6.497   0.828
24487WAT      O73702   0.568   6.532   8.654
24487WAT     H173703   0.518   6.501   8.735
24487WAT     H273704   0.663   6.551   8.679
24488WAT      O73705   2.729   6.218   6.877
24488WAT     H173706   2.638   6.260   6.877
24488WAT     H273707   2.731   6.144   6.944
24489WAT      O73708   4.106   4.467   6.229
24489WAT     H173709   4.201   4.480   6.201
24489WAT     H273710   4.059   4.409   6.163
24490WAT      O73711   3.029   3.330   2.283
24490WAT     H173712   3.123   3.295   2.287
24490WAT     H273713   2.981   3.307   2.367
24491WAT      O73714   8.879   1.126   6.872
24491WAT     H173715   8.924   1.206   6.914
24491WAT     H273716   8.905   1.044   6.922
24492WAT      O73717   8.954   8.614   3.888
24492WAT     H173718   8.986   8.683   3.952
24492WAT     H273719   8.865   8.580   3.917
24493WAT      O73720   7.220   1.262   0.902
24493WAT     H173721   7.134   1.246   0.950
24493WAT     H273722   7.204   1.254   0.803
24494WAT      O73723   3.495   8.856   7.206
24494WAT     H173724   3.395   8.868   7.203
24494WAT     H273725   3.533   8.869   7.115
24495WAT      O73726   8.357   8.387   7.011
24495WAT     H173727   8.383   8.399   6.915
24495WAT     H273728   8.433   8.415   7.070
24496WAT      O73729   1.857   5.612   0.965
24496WAT     H173730   1.934   5.629   1.026
24496WAT     H273731   1.856   5.681   0.893
24497WAT      O73732   5.591   7.758   0.237
24497WAT     H173733   5.684   7.740   0.270
24497WAT     H273734   5.529   7.688   0.274
24498WAT      O73735   9.232   3.940   6.206
24498WAT     H173736   9.180   3.968   6.125
24498WAT     H273737   9.327   3.972   6.197
24499WAT      O73738   5.376   3.153   3.226
24499WAT     H173739   5.348   3.060   3.202
24499WAT     H273740   5.415   3.198   3.146
24500WAT      O73741   4.623   9.688   6.922
24500WAT     H173742   4.642   9.737   7.007
24500WAT     H273743   4.710   9.670   6.874
24501WAT      O73744   8.828   0.925   2.410
24501WAT     H173745   8.750   0.886   2.458
24501WAT     H273746   8.798   0.960   2.321
24502WAT      O73747   7.928   8.898   2.137
24502WAT     H173748   7.942   8.820   2.198
24502WAT     H273749   7.842   8.887   2.087
24503WAT      O73750   6.858   1.693   4.778
24503WAT     H173751   6.845   1.783   4.736
24503WAT     H273752   6.788   1.678   4.847
24504WAT      O73753   9.242   3.543   1.630
24504WAT     H173754   9.333   3.527   1.591
24504WAT     H273755   9.222   3.470   1.696
24505WAT      O73756   8.418   9.612   5.283
24505WAT     H173757   8.413   9.710   5.302
24505WAT     H273758   8.466   9.598   5.196
24506WAT      O73759   3.094   2.953   6.763
24506WAT     H173760   3.005   2.986   6.793
24506WAT     H273761   3.086   2.912   6.673
24507WAT      O73762   8.704   8.603   6.843
24507WAT     H173763   8.748   8.577   6.757
24507WAT     H273764   8.767   8.586   6.919
24508WAT      O73765   0.270   5.859   0.023
24508WAT     H173766   0.293   5.826  -0.068
24508WAT     H273767   0.182   5.820   0.051
24509WAT      O73768   5.165   5.398   7.648
24509WAT     H173769   5.151   5.459   7.726
24509WAT     H273770   5.261   5.369   7.645
24510WAT      O73771   6.463   2.851   6.503
24510WAT     H173772   6.558   2.879   6.518
24510WAT     H273773   6.462   2.760   6.461
24511WAT      O73774   8.456   7.021   3.336
24511WAT     H173775   8.448   6.965   3.253
24511WAT     H273776   8.484   6.963   3.413
24512WAT      O73777   0.792   5.028   9.035
24512WAT     H173778   0.763   5.037   9.130
24512WAT     H273779   0.887   4.996   9.032
24513WAT      O73780   5.653   0.106   2.708
24513WAT     H173781   5.688   0.125   2.616
24513WAT     H273782   5.590   0.028   2.704
24514WAT      O73783   1.262   6.946   9.616
24514WAT     H173784   1.280   7.008   9.540
24514WAT     H273785   1.174   6.969   9.658
24515WAT      O73786   3.754   7.021   2.616
24515WAT     H173787   3.682   6.964   2.577
24515WAT     H273788   3.799   6.972   2.691
24516WAT      O73789   2.732   7.244   7.013
24516WAT     H173790   2.787   7.326   6.998
24516WAT     H273791   2.658   7.265   7.077
24517WAT      O73792   1.406   0.225   4.734
24517WAT     H173793   1.429   0.290   4.807
24517WAT     H273794   1.405   0.132   4.772
24518WAT      O73795   2.114   7.925   1.388
24518WAT     H173796   2.202   7.877   1.381
24518WAT     H273797   2.047   7.866   1.433
24519WAT      O73798   6.855   6.100   7.988
24519WAT     H173799   6.838   6.085   8.086
24519WAT     H273800   6.871   6.197   7.972
24520WAT      O73801   5.613   3.848   2.839
24520WAT     H173802   5.620   3.798   2.752
24520WAT     H273803   5.703   3.850   2.884
24521WAT      O73804   5.131   7.526   2.364
24521WAT     H173805   5.147   7.451   2.300
24521WAT     H273806   5.209   7.587   2.365
24522WAT      O73807   8.207   8.702   3.939
24522WAT     H173808   8.180   8.770   3.872
24522WAT     H273809   8.145   8.706   4.017
24523WAT      O73810   1.426   5.534   5.628
24523WAT     H173811   1.382   5.454   5.586
24523WAT     H273812   1.491   5.503   5.697
24524WAT      O73813   5.881   3.068   0.626
24524WAT     H173814   5.914   3.019   0.545
24524WAT     H273815   5.879   3.006   0.704
24525WAT      O73816   4.298   2.924   4.618
24525WAT     H173817   4.278   3.011   4.574
24525WAT     H273818   4.231   2.908   4.692
24526WAT      O73819   5.443   6.314   3.556
24526WAT     H173820   5.419   6.224   3.520
24526WAT     H273821   5.428   6.384   3.485
24527WAT      O73822   7.157   6.730   3.228
24527WAT     H173823   7.140   6.632   3.218
24527WAT     H273824   7.174   6.752   3.324
24528WAT      O73825   2.095   7.266   7.434
24528WAT     H173826   2.171   7.200   7.437
24528WAT     H273827   2.130   7.355   7.402
24529WAT      O73828   4.714   5.118   7.849
24529WAT     H173829   4.755   5.160   7.769
24529WAT     H273830   4.770   5.137   7.929
24530WAT      O73831   4.469   9.070   3.998
24530WAT     H173832   4.502   9.076   3.904
24530WAT     H273833   4.526   9.128   4.057
24531WAT      O73834   2.357   0.275   5.855
24531WAT     H173835   2.397   0.183   5.845
24531WAT     H273836   2.259   0.271   5.834
24532WAT      O73837   4.554   5.665   1.923
24532WAT     H173838   4.590   5.755   1.948
24532WAT     H273839   4.482   5.639   1.987
24533WAT      O73840   7.518   3.231   0.512
24533WAT     H173841   7.600   3.257   0.461
24533WAT     H273842   7.460   3.174   0.454
24534WAT      O73843   1.804   5.629   9.223
24534WAT     H173844   1.771   5.564   9.292
24534WAT     H273845   1.814   5.582   9.136
24535WAT      O73846   7.388   0.957   3.483
24535WAT     H173847   7.305   1.006   3.510
24535WAT     H273848   7.392   0.951   3.383
24536WAT      O73849   3.692   3.169   9.566
24536WAT     H173850   3.777   3.126   9.599
24536WAT     H273851   3.679   3.147   9.470
24537WAT      O73852   2.743   4.974   0.177
24537WAT     H173853   2.648   4.973   0.209
24537WAT     H273854   2.745   4.987   0.078
24538WAT      O73855   6.294   0.243   1.212
24538WAT     H173856   6.360   0.304   1.255
24538WAT     H273857   6.235   0.295   1.151
24539WAT      O73858   3.551   2.126   1.202
24539WAT     H173859   3.536   2.195   1.272
24539WAT     H273860   3.477   2.130   1.135
24540WAT      O73861   5.064   8.536   6.717
24540WAT     H173862   4.984   8.556   6.661
24540WAT     H273863   5.082   8.613   6.779
24541WAT      O73864   4.900   5.883   2.709
24541WAT     H173865   4.867   5.973   2.680
24541WAT     H273866   4.830   5.815   2.691
24542WAT      O73867   7.085   0.840   1.109
24542WAT     H173868   7.048   0.761   1.157
24542WAT     H273869   7.011   0.897   1.075
24543WAT      O73870   8.309   8.426   3.577
24543WAT     H173871   8.388   8.446   3.520
24543WAT     H273872   8.225   8.435   3.523
24544WAT      O73873   6.943   2.620   6.983
24544WAT     H173874   7.042   2.616   6.997
24544WAT     H273875   6.896   2.597   7.068
24545WAT      O73876   3.591   8.587   4.679
24545WAT     H173877   3.662   8.534   4.725
24545WAT     H273878   3.606   8.684   4.696
24546WAT      O73879   6.545   2.992   1.857
24546WAT     H173880   6.616   3.046   1.902
24546WAT     H273881   6.462   3.047   1.846
24547WAT      O73882   2.551   8.739   9.801
24547WAT     H173883   2.520   8.672   9.869
24547WAT     H273884   2.639   8.709   9.763
24548WAT      O73885   0.436   1.517   7.411
24548WAT     H173886   0.508   1.586   7.404
24548WAT     H273887   0.458   1.454   7.486
24549WAT      O73888   1.704   7.836   4.497
24549WAT     H173889   1.655   7.776   4.433
24549WAT     H273890   1.689   7.805   4.591
24550WAT      O73891   3.985   1.175   9.125
24550WAT     H173892   3.998   1.134   9.034
24550WAT     H273893   3.917   1.248   9.119
24551WAT      O73894   4.044   2.806   7.770
24551WAT     H173895   3.970   2.806   7.837
24551WAT     H273896   4.132   2.791   7.816
24552WAT      O73897   2.414   1.400   4.016
24552WAT     H173898   2.388   1.492   3.985
24552WAT     H273899   2.511   1.385   3.997
24553WAT      O73900   1.785   7.418   1.205
24553WAT     H173901   1.744   7.383   1.121
24553WAT     H273902   1.733   7.386   1.284
24554WAT      O73903   3.743   6.231   6.565
24554WAT     H173904   3.746   6.215   6.664
24554WAT     H273905   3.835   6.244   6.530
24555WAT      O73906   7.709   4.469   7.053
24555WAT     H173907   7.747   4.479   7.145
24555WAT     H273908   7.769   4.411   6.998
24556WAT      O73909   6.879   2.090   5.428
24556WAT     H173910   6.913   1.999   5.453
24556WAT     H273911   6.953   2.156   5.436
24557WAT      O73912   4.435   2.407   7.930
24557WAT     H173913   4.345   2.446   7.913
24557WAT     H273914   4.425   2.316   7.970
24558WAT      O73915   5.568   4.799   3.801
24558WAT     H173916   5.613   4.721   3.845
24558WAT     H273917   5.620   4.882   3.820
24559WAT      O73918   7.385   0.787   0.465
24559WAT     H173919   7.372   0.841   0.382
24559WAT     H273920   7.296   0.759   0.501
24560WAT      O73921   7.719   2.708   5.697
24560WAT     H173922   7.767   2.622   5.680
24560WAT     H273923   7.692   2.713   5.793
24561WAT      O73924   7.812   0.179   1.472
24561WAT     H173925   7.820   0.237   1.390
24561WAT     H273926   7.732   0.208   1.525
24562WAT      O73927   0.599   2.594   6.023
24562WAT     H173928   0.605   2.495   6.018
24562WAT     H273929   0.506   2.621   6.048
24563WAT      O73930   6.378   1.874   1.273
24563WAT     H173931   6.358   1.894   1.177
24563WAT     H273932   6.446   1.939   1.307
24564WAT      O73933   6.353   7.985   2.068
24564WAT     H173934   6.261   8.002   2.032
24564WAT     H273935   6.417   7.972   1.993
24565WAT      O73936   0.131   9.176   3.873
24565WAT     H173937   0.048   9.188   3.818
24565WAT     H273938   0.109   9.191   3.969
24566WAT      O73939   3.388   5.530   9.524
24566WAT     H173940   3.371   5.431   9.525
24566WAT     H273941   3.486   5.547   9.534
24567WAT      O73942   8.744   3.022   4.344
24567WAT     H173943   8.729   3.035   4.246
24567WAT     H273944   8.783   2.931   4.360
24568WAT      O73945   4.377   6.635   8.744
24568WAT     H173946   4.438   6.699   8.791
24568WAT     H273947   4.410   6.542   8.756
24569WAT      O73948   7.069   4.735   0.815
24569WAT     H173949   7.105   4.726   0.907
24569WAT     H273950   7.136   4.700   0.749
24570WAT      O73951   4.124   1.096   8.252
24570WAT     H173952   4.081   1.184   8.231
24570WAT     H273953   4.053   1.028   8.271
24571WAT      O73954   5.128   4.379   2.145
24571WAT     H173955   5.222   4.363   2.176
24571WAT     H273956   5.087   4.292   2.117
24572WAT      O73957   2.549   1.877   4.296
24572WAT     H173958   2.508   1.787   4.285
24572WAT     H273959   2.543   1.905   4.392
24573WAT      O73960   8.375   3.957   7.053
24573WAT     H173961   8.335   4.017   6.984
24573WAT     H273962   8.318   3.957   7.135
24574WAT      O73963   6.181   9.369   3.080
24574WAT     H173964   6.117   9.321   3.021
24574WAT     H273965   6.132   9.413   3.155
24575WAT      O73966   8.232   9.674   0.793
24575WAT     H173967   8.188   9.748   0.743
24575WAT     H273968   8.330   9.691   0.800
24576WAT      O73969   2.708   5.910   4.703
24576WAT     H173970   2.682   6.006   4.694
24576WAT     H273971   2.628   5.856   4.728
24577WAT      O73972   4.995   4.523   8.153
24577WAT     H173973   4.984   4.426   8.174
24577WAT     H273974   4.911   4.558   8.111
24578WAT      O73975   8.432   8.870   3.548
24578WAT     H173976   8.356   8.808   3.529
24578WAT     H273977   8.398   8.949   3.600
24579WAT      O73978   1.796   5.014   4.262
24579WAT     H173979   1.742   4.959   4.199
24579WAT     H273980   1.773   5.111   4.249
24580WAT      O73981   4.713   6.361   3.620
24580WAT     H173982   4.628   6.369   3.567
24580WAT     H273983   4.725   6.444   3.675
24581WAT      O73984   1.122   8.439   2.931
24581WAT     H173985   1.136   8.406   2.838
24581WAT     H273986   1.097   8.536   2.929
24582WAT      O73987   6.343   5.639   4.193
24582WAT     H173988   6.278   5.644   4.117
24582WAT     H273989   6.350   5.728   4.237
24583WAT      O73990   6.442   4.479   8.705
24583WAT     H173991   6.523   4.441   8.749
24583WAT     H273992   6.373   4.499   8.775
24584WAT      O73993   1.031   6.448   0.388
24584WAT     H173994   1.048   6.485   0.297
24584WAT     H273995   1.117   6.417   0.428
24585WAT      O73996   0.055   0.574   9.152
24585WAT     H173997   0.058   0.573   9.052
24585WAT     H273998   0.140   0.537   9.188
24586WAT      O73999   5.659   2.639   8.264
24586WAT     H174000   5.597   2.715   8.282
24586WAT     H274001   5.665   2.622   8.166
24587WAT      O74002   0.662   6.779   0.906
24587WAT     H174003   0.581   6.829   0.937
24587WAT     H274004   0.705   6.734   0.984
24588WAT      O74005   2.188   6.169   6.322
24588WAT     H174006   2.104   6.204   6.363
24588WAT     H274007   2.171   6.078   6.284
24589WAT      O74008   7.224   0.652   2.608
24589WAT     H174009   7.288   0.698   2.547
24589WAT     H274010   7.223   0.697   2.697
24590WAT      O74011   4.207   1.908   2.907
24590WAT     H174012   4.299   1.904   2.868
24590WAT     H274013   4.200   1.988   2.966
24591WAT      O74014   3.999   4.281   6.073
24591WAT     H174015   3.997   4.261   5.975
24591WAT     H274016   3.966   4.201   6.123
24592WAT      O74017   3.185   2.711   8.123
24592WAT     H174018   3.096   2.717   8.167
24592WAT     H274019   3.257   2.717   8.192
24593WAT      O74020   8.233   6.437   2.351
24593WAT     H174021   8.140   6.399   2.341
24593WAT     H274022   8.236   6.527   2.309
24594WAT      O74023   1.751   9.410   8.364
24594WAT     H174024   1.805   9.328   8.344
24594WAT     H274025   1.785   9.486   8.309
24595WAT      O74026   5.678   0.195   0.935
24595WAT     H174027   5.696   0.143   1.018
24595WAT     H274028   5.628   0.279   0.959
24596WAT      O74029   5.664   7.609   6.923
24596WAT     H174030   5.715   7.593   7.007
24596WAT     H274031   5.610   7.692   6.931
24597WAT      O74032   2.412   2.783   1.138
24597WAT     H174033   2.450   2.702   1.093
24597WAT     H274034   2.427   2.863   1.080
24598WAT      O74035   4.062   6.929   8.693
24598WAT     H174036   4.083   6.838   8.727
24598WAT     H274037   3.981   6.964   8.740
24599WAT      O74038   7.311   9.112   5.673
24599WAT     H174039   7.269   9.105   5.764
24599WAT     H274040   7.243   9.144   5.608
24600WAT      O74041   0.811   0.809   4.739
24600WAT     H174042   0.716   0.840   4.733
24600WAT     H274043   0.872   0.885   4.722
24601WAT      O74044   4.019   0.525   0.756
24601WAT     H174045   4.109   0.565   0.772
24601WAT     H274046   3.999   0.459   0.829
24602WAT      O74047   3.503   0.178   8.425
24602WAT     H174048   3.509   0.079   8.417
24602WAT     H274049   3.574   0.221   8.370
24603WAT      O74050   6.530   9.239   6.867
24603WAT     H174051   6.439   9.197   6.865
24603WAT     H274052   6.585   9.206   6.791
24604WAT      O74053   7.392   9.241   4.489
24604WAT     H174054   7.370   9.180   4.565
24604WAT     H274055   7.370   9.335   4.514
24605WAT      O74056   9.070   0.766   3.551
24605WAT     H174057   8.993   0.782   3.613
24605WAT     H274058   9.106   0.674   3.566
24606WAT      O74059   3.455   4.961   2.952
24606WAT     H174060   3.550   4.960   2.983
24606WAT     H274061   3.432   4.873   2.910
24607WAT      O74062   9.127   7.069   3.592
24607WAT     H174063   9.048   7.119   3.629
24607WAT     H274064   9.094   6.996   3.532
24608WAT      O74065   8.862   4.515   2.949
24608WAT     H174066   8.804   4.510   3.031
24608WAT     H274067   8.876   4.611   2.925
24609WAT      O74068   4.792   5.855   5.238
24609WAT     H174069   4.703   5.811   5.229
24609WAT     H274070   4.824   5.886   5.149
24610WAT      O74071   8.298   2.611   1.847
24610WAT     H174072   8.266   2.526   1.888
24610WAT     H274073   8.391   2.630   1.878
24611WAT      O74074   9.105   8.022   4.320
24611WAT     H174075   9.152   7.970   4.248
24611WAT     H274076   9.011   8.040   4.292
24612WAT      O74077   4.031   7.668   6.373
24612WAT     H174078   4.096   7.613   6.321
24612WAT     H274079   3.967   7.607   6.420
24613WAT      O74080   2.712   0.499   1.691
24613WAT     H174081   2.624   0.529   1.728
24613WAT     H274082   2.706   0.401   1.669
24614WAT      O74083   7.525   1.743   1.614
24614WAT     H174084   7.601   1.695   1.568
24614WAT     H274085   7.471   1.792   1.546
24615WAT      O74086   0.224   4.027   5.894
24615WAT     H174087   0.306   4.069   5.855
24615WAT     H274088   0.180   4.092   5.956
24616WAT      O74089   7.233   4.178   1.746
24616WAT     H174090   7.298   4.103   1.750
24616WAT     H274091   7.258   4.240   1.672
24617WAT      O74092   4.207   8.926   9.584
24617WAT     H174093   4.246   9.009   9.545
24617WAT     H274094   4.205   8.854   9.514
24618WAT      O74095   1.085   0.310   2.062
24618WAT     H174096   1.173   0.348   2.091
24618WAT     H274097   1.063   0.342   1.970
24619WAT      O74098   1.889   8.875   8.309
24619WAT     H174099   1.825   8.817   8.260
24619WAT     H274100   1.967   8.898   8.251
24620WAT      O74101   7.979   6.474   8.666
24620WAT     H174102   7.991   6.379   8.694
24620WAT     H274103   8.041   6.532   8.719
24621WAT      O74104   1.465   7.217   9.222
24621WAT     H174105   1.471   7.174   9.132
24621WAT     H274106   1.386   7.179   9.271
24622WAT      O74107   1.222   6.403   7.418
24622WAT     H174108   1.142   6.346   7.437
24622WAT     H274109   1.255   6.385   7.325
24623WAT      O74110   0.068   0.163   3.069
24623WAT     H174111   0.086   0.185   3.164
24623WAT     H274112   0.115   0.228   3.010
24624WAT      O74113   2.646   8.728   3.099
24624WAT     H174114   2.642   8.813   3.152
24624WAT     H274115   2.570   8.726   3.033
24625WAT      O74116   0.552   7.335   5.452
24625WAT     H174117   0.547   7.338   5.353
24625WAT     H274118   0.612   7.261   5.481
24626WAT      O74119   5.051   1.422   2.123
24626WAT     H174120   5.052   1.503   2.063
24626WAT     H274121   5.053   1.339   2.067
24627WAT      O74122   2.720   0.378   8.507
24627WAT     H174123   2.777   0.449   8.547
24627WAT     H274124   2.626   0.388   8.539
24628WAT      O74125   1.213   9.066   7.574
24628WAT     H174126   1.212   8.995   7.645
24628WAT     H274127   1.188   9.153   7.616
24629WAT      O74128   2.472   3.569   5.110
24629WAT     H174129   2.542   3.501   5.088
24629WAT     H274130   2.491   3.653   5.059
24630WAT      O74131   4.035   9.454   6.073
24630WAT     H174132   3.939   9.479   6.087
24630WAT     H274133   4.042   9.357   6.052
24631WAT      O74134   8.085   4.823   0.187
24631WAT     H174135   8.042   4.906   0.154
24631WAT     H274136   8.017   4.751   0.195
24632WAT      O74137   8.736   6.184   4.277
24632WAT     H174138   8.711   6.269   4.323
24632WAT     H274139   8.779   6.121   4.342
24633WAT      O74140   9.270   4.193   7.792
24633WAT     H174141   9.200   4.127   7.819
24633WAT     H274142   9.322   4.221   7.873
24634WAT      O74143   4.935   4.576   0.072
24634WAT     H174144   5.003   4.646   0.048
24634WAT     H274145   4.928   4.569   0.171
24635WAT      O74146   6.624   7.795   0.311
24635WAT     H174147   6.563   7.857   0.262
24635WAT     H274148   6.618   7.704   0.271
24636WAT      O74149   6.193   3.936   7.805
24636WAT     H174150   6.283   3.895   7.823
24636WAT     H274151   6.178   4.012   7.868
24637WAT      O74152   9.019   6.342   9.719
24637WAT     H174153   8.923   6.370   9.722
24637WAT     H274154   9.031   6.257   9.769
24638WAT      O74155   1.048   5.610   9.387
24638WAT     H174156   0.950   5.605   9.405
24638WAT     H274157   1.082   5.702   9.407
24639WAT      O74158   2.100   5.451   9.478
24639WAT     H174159   2.194   5.421   9.495
24639WAT     H274160   2.100   5.544   9.442
24640WAT      O74161   8.672   3.448   4.999
24640WAT     H174162   8.575   3.429   4.981
24640WAT     H274163   8.693   3.425   5.094
24641WAT      O74164   2.309   7.066   5.267
24641WAT     H174165   2.360   7.096   5.186
24641WAT     H274166   2.233   7.008   5.238
24642WAT      O74167   1.292   3.979   6.538
24642WAT     H174168   1.251   4.067   6.561
24642WAT     H274169   1.366   3.959   6.602
24643WAT      O74170   0.792   0.662   1.464
24643WAT     H174171   0.765   0.746   1.511
24643WAT     H274172   0.772   0.671   1.367
24644WAT      O74173   8.787   8.022   0.505
24644WAT     H174174   8.774   7.956   0.430
24644WAT     H274175   8.868   7.996   0.557
24645WAT      O74176   9.398   1.436   4.471
24645WAT     H174177   9.486   1.415   4.429
24645WAT     H274178   9.359   1.353   4.512
24646WAT      O74179   8.860   2.214   1.264
24646WAT     H174180   8.785   2.240   1.325
24646WAT     H274181   8.947   2.241   1.305
24647WAT      O74182   7.771   8.578   9.317
24647WAT     H174183   7.853   8.562   9.262
24647WAT     H274184   7.696   8.608   9.258
24648WAT      O74185   4.931   3.757   8.797
24648WAT     H174186   4.905   3.669   8.838
24648WAT     H274187   4.849   3.810   8.777
24649WAT      O74188   1.499   8.767   2.431
24649WAT     H174189   1.593   8.734   2.426
24649WAT     H274190   1.492   8.855   2.384
24650WAT      O74191   3.688   8.756   8.958
24650WAT     H174192   3.620   8.793   9.022
24650WAT     H274193   3.688   8.811   8.875
24651WAT      O74194   1.669   2.181   6.696
24651WAT     H174195   1.748   2.122   6.706
24651WAT     H274196   1.592   2.142   6.746
24652WAT      O74197   1.306   4.930   1.809
24652WAT     H174198   1.360   4.918   1.892
24652WAT     H274199   1.230   4.866   1.809
24653WAT      O74200   0.261   7.713   8.113
24653WAT     H174201   0.329   7.651   8.151
24653WAT     H274202   0.195   7.662   8.058
24654WAT      O74203   7.486   0.805   7.901
24654WAT     H174204   7.529   0.715   7.909
24654WAT     H274205   7.386   0.794   7.901
24655WAT      O74206   5.013   2.352   3.237
24655WAT     H174207   4.929   2.396   3.207
24655WAT     H274208   5.048   2.294   3.163
24656WAT      O74209   4.829   3.587   2.656
24656WAT     H174210   4.893   3.633   2.717
24656WAT     H274211   4.878   3.523   2.597
24657WAT      O74212   3.022   8.837   9.644
24657WAT     H174213   2.993   8.904   9.575
24657WAT     H274214   3.077   8.884   9.713
24658WAT      O74215   2.156   2.202   3.955
24658WAT     H174216   2.135   2.261   3.878
24658WAT     H274217   2.252   2.216   3.983
24659WAT      O74218   0.297   5.290   1.452
24659WAT     H174219   0.296   5.200   1.410
24659WAT     H274220   0.250   5.356   1.394
24660WAT      O74221   4.685   2.137   2.139
24660WAT     H174222   4.728   2.047   2.130
24660WAT     H274223   4.613   2.132   2.208
24661WAT      O74224   9.648   1.661   2.746
24661WAT     H174225   9.737   1.683   2.705
24661WAT     H274226   9.575   1.701   2.691
24662WAT      O74227   1.324   1.850   0.113
24662WAT     H174228   1.237   1.870   0.157
24662WAT     H274229   1.395   1.837   0.182
24663WAT      O74230   0.615   5.799   6.254
24663WAT     H174231   0.596   5.703   6.277
24663WAT     H274232   0.696   5.804   6.196
24664WAT      O74233   1.391   6.739   2.621
24664WAT     H174234   1.419   6.707   2.531
24664WAT     H274235   1.362   6.661   2.677
24665WAT      O74236   5.334   2.367   5.093
24665WAT     H174237   5.252   2.319   5.062
24665WAT     H274238   5.395   2.383   5.015
24666WAT      O74239   7.722   9.643   1.316
24666WAT     H174240   7.631   9.684   1.324
24666WAT     H274241   7.792   9.713   1.327
24667WAT      O74242   5.356   7.150   4.784
24667WAT     H174243   5.440   7.159   4.731
24667WAT     H274244   5.278   7.182   4.730
24668WAT      O74245   5.195   9.774   0.205
24668WAT     H174246   5.173   9.818   0.117
24668WAT     H274247   5.265   9.705   0.190
24669WAT      O74248   9.551   9.388   0.987
24669WAT     H174249   9.469   9.332   0.998
24669WAT     H274250   9.586   9.378   0.894
24670WAT      O74251   6.392   2.501   3.510
24670WAT     H174252   6.432   2.506   3.419
24670WAT     H274253   6.341   2.585   3.530
24671WAT      O74254   3.474   0.037   6.962
24671WAT     H174255   3.550   0.097   6.940
24671WAT     H274256   3.412   0.083   7.025
24672WAT      O74257   6.658   8.404   8.132
24672WAT     H174258   6.651   8.383   8.229
24672WAT     H274259   6.567   8.403   8.091
24673WAT      O74260   7.390   8.370   1.622
24673WAT     H174261   7.384   8.271   1.627
24673WAT     H274262   7.480   8.400   1.655
24674WAT      O74263   6.390   8.536   5.297
24674WAT     H174264   6.417   8.440   5.304
24674WAT     H274265   6.353   8.553   5.205
24675WAT      O74266   1.329   7.932   8.688
24675WAT     H174267   1.419   7.900   8.718
24675WAT     H274268   1.336   7.969   8.595
24676WAT      O74269   3.602   8.286   3.140
24676WAT     H174270   3.691   8.276   3.184
24676WAT     H274271   3.579   8.202   3.092
24677WAT      O74272   6.293   7.160   0.431
24677WAT     H174273   6.390   7.172   0.412
24677WAT     H274274   6.276   7.170   0.529
24678WAT      O74275   2.834   8.909   1.056
24678WAT     H174276   2.759   8.880   0.996
24678WAT     H274277   2.806   8.991   1.106
24679WAT      O74278   1.203   0.702   3.492
24679WAT     H174279   1.147   0.698   3.575
24679WAT     H274280   1.282   0.761   3.508
24680WAT      O74281   0.939   0.514   7.710
24680WAT     H174282   1.038   0.524   7.715
24680WAT     H274283   0.910   0.433   7.761
24681WAT      O74284   7.990   9.761   5.336
24681WAT     H174285   7.893   9.783   5.324
24681WAT     H274286   8.045   9.840   5.308
24682WAT      O74287   4.179   5.047   7.867
24682WAT     H174288   4.211   4.954   7.883
24682WAT     H274289   4.238   5.111   7.917
24683WAT      O74290   3.198   7.954   9.475
24683WAT     H174291   3.249   7.950   9.389
24683WAT     H274292   3.228   8.033   9.528
24684WAT      O74293   0.020   8.674   8.169
24684WAT     H174294   0.043   8.772   8.166
24684WAT     H274295  -0.077   8.662   8.149
24685WAT      O74296   5.044   3.368   1.784
24685WAT     H174297   5.135   3.398   1.815
24685WAT     H274298   5.023   3.279   1.825
24686WAT      O74299   4.572   4.660   8.189
24686WAT     H174300   4.508   4.625   8.120
24686WAT     H274301   4.561   4.609   8.274
24687WAT      O74302   7.786   5.242   5.120
24687WAT     H174303   7.727   5.223   5.042
24687WAT     H274304   7.806   5.157   5.168
24688WAT      O74305   2.889   7.865   9.278
24688WAT     H174306   2.794   7.838   9.265
24688WAT     H274307   2.948   7.784   9.274
24689WAT      O74308   0.317   6.670   5.010
24689WAT     H174309   0.374   6.634   5.084
24689WAT     H274310   0.237   6.611   4.998
24690WAT      O74311   4.395   7.092   2.172
24690WAT     H174312   4.320   7.073   2.235
24690WAT     H274313   4.415   7.190   2.171
24691WAT      O74314   4.714   5.215   0.837
24691WAT     H174315   4.673   5.198   0.747
24691WAT     H274316   4.812   5.199   0.832
24692WAT      O74317   8.064   9.220   6.044
24692WAT     H174318   8.025   9.171   6.123
24692WAT     H274319   8.002   9.214   5.966
24693WAT      O74320   0.217   4.279   0.018
24693WAT     H174321   0.265   4.358  -0.019
24693WAT     H274322   0.185   4.299   0.111
24694WAT      O74323   8.290   4.617   3.109
24694WAT     H174324   8.349   4.561   3.168
24694WAT     H274325   8.337   4.634   3.022
24695WAT      O74326   8.837   0.468   2.951
24695WAT     H174327   8.858   0.476   2.854
24695WAT     H274328   8.904   0.408   2.995
24696WAT      O74329   3.543   4.334   8.957
24696WAT     H174330   3.625   4.277   8.964
24696WAT     H274331   3.484   4.299   8.884
24697WAT      O74332   3.401   4.861   6.143
24697WAT     H174333   3.483   4.905   6.106
24697WAT     H274334   3.322   4.919   6.129
24698WAT      O74335   4.869   1.904   6.228
24698WAT     H174336   4.867   1.808   6.199
24698WAT     H274337   4.938   1.915   6.300
24699WAT      O74338   5.544   6.820   4.096
24699WAT     H174339   5.501   6.909   4.079
24699WAT     H274340   5.545   6.766   4.012
24700WAT      O74341   0.408   3.396   1.826
24700WAT     H174342   0.336   3.462   1.803
24700WAT     H274343   0.489   3.416   1.772
24701WAT      O74344   2.747   1.052   4.569
24701WAT     H174345   2.676   1.066   4.638
24701WAT     H274346   2.705   1.031   4.481
24702WAT      O74347   5.370   1.567   7.106
24702WAT     H174348   5.368   1.517   7.019
24702WAT     H274349   5.337   1.508   7.179
24703WAT      O74350   3.108   9.239   7.310
24703WAT     H174351   3.032   9.302   7.296
24703WAT     H274352   3.139   9.243   7.405
24704WAT      O74353   1.109   9.043   2.785
24704WAT     H174354   1.113   9.088   2.874
24704WAT     H274355   1.191   9.063   2.733
24705WAT      O74356   7.054   0.535   5.613
24705WAT     H174357   7.077   0.526   5.516
24705WAT     H274358   7.123   0.487   5.668
24706WAT      O74359   2.409   7.222   9.706
24706WAT     H174360   2.456   7.144   9.664
24706WAT     H274361   2.318   7.231   9.666
24707WAT      O74362   0.572   7.118   4.502
24707WAT     H174363   0.649   7.059   4.528
24707WAT     H274364   0.488   7.084   4.545
24708WAT      O74365   2.947   8.100   7.950
24708WAT     H174366   2.870   8.128   7.893
24708WAT     H274367   3.017   8.057   7.893
24709WAT      O74368   9.630   2.879   1.431
24709WAT     H174369   9.569   2.952   1.401
24709WAT     H274370   9.584   2.824   1.501
24710WAT      O74371   1.785   3.850   9.007
24710WAT     H174372   1.747   3.854   8.914
24710WAT     H274373   1.750   3.768   9.054
24711WAT      O74374   5.339   6.026   4.017
24711WAT     H174375   5.259   6.074   4.052
24711WAT     H274376   5.344   5.934   4.056
24712WAT      O74377   9.453   0.074   2.717
24712WAT     H174378   9.499  -0.003   2.762
24712WAT     H274379   9.517   0.118   2.653
24713WAT      O74380   9.591   8.140   4.160
24713WAT     H174381   9.642   8.210   4.110
24713WAT     H274382   9.496   8.168   4.169
24714WAT      O74383   1.369   8.621   9.286
24714WAT     H174384   1.378   8.550   9.356
24714WAT     H274385   1.441   8.689   9.298
24715WAT      O74386   8.072   9.338   2.094
24715WAT     H174387   8.012   9.289   2.157
24715WAT     H274388   8.082   9.286   2.010
24716WAT      O74389   6.938   4.721   4.053
24716WAT     H174390   6.848   4.680   4.040
24716WAT     H274391   6.929   4.821   4.052
24717WAT      O74392   5.158   7.537   4.675
24717WAT     H174393   5.114   7.625   4.657
24717WAT     H274394   5.215   7.512   4.597
24718WAT      O74395   7.491   7.500   2.207
24718WAT     H174396   7.487   7.588   2.255
24718WAT     H274397   7.586   7.469   2.202
24719WAT      O74398   3.397   2.891   2.030
24719WAT     H174399   3.478   2.944   2.055
24719WAT     H274400   3.352   2.934   1.951
24720WAT      O74401   6.548   5.563   3.393
24720WAT     H174402   6.565   5.533   3.487
24720WAT     H274403   6.606   5.511   3.330
24721WAT      O74404   0.647   2.323   6.028
24721WAT     H174405   0.613   2.249   5.970
24721WAT     H274406   0.687   2.284   6.111
24722WAT      O74407   7.015   6.717   5.890
24722WAT     H174408   7.000   6.656   5.812
24722WAT     H274409   6.963   6.684   5.968
24723WAT      O74410   7.489   1.303   6.276
24723WAT     H174411   7.517   1.298   6.180
24723WAT     H274412   7.570   1.314   6.334
24724WAT      O74413   4.983   5.383   2.811
24724WAT     H174414   5.029   5.440   2.742
24724WAT     H274415   5.001   5.420   2.902
24725WAT      O74416   7.297   4.004   8.149
24725WAT     H174417   7.369   4.030   8.214
24725WAT     H274418   7.208   4.014   8.193
24726WAT      O74419   3.388   6.836   0.418
24726WAT     H174420   3.375   6.932   0.392
24726WAT     H274421   3.386   6.829   0.518
24727WAT      O74422   4.725   1.095   0.825
24727WAT     H174423   4.627   1.113   0.830
24727WAT     H274424   4.751   1.077   0.730
24728WAT      O74425   9.323   2.109   9.396
24728WAT     H174426   9.315   2.205   9.368
24728WAT     H274427   9.417   2.078   9.381
24729WAT      O74428   2.119   6.965   4.169
24729WAT     H174429   2.070   6.893   4.119
24729WAT     H274430   2.208   6.931   4.198
24730WAT      O74431   8.665   1.889   3.356
24730WAT     H174432   8.654   1.793   3.382
24730WAT     H274433   8.740   1.897   3.290
24731WAT      O74434   8.477   1.428   3.250
24731WAT     H174435   8.430   1.486   3.184
24731WAT     H274436   8.461   1.462   3.342
24732WAT      O74437   6.037   5.964   5.343
24732WAT     H174438   6.042   6.038   5.277
24732WAT     H274439   5.990   5.996   5.426
24733WAT      O74440   6.222   2.575   9.715
24733WAT     H174441   6.154   2.504   9.696
24733WAT     H274442   6.265   2.557   9.804
24734WAT      O74443   5.392   2.658   1.946
24734WAT     H174444   5.343   2.645   2.032
24734WAT     H274445   5.327   2.655   1.870
24735WAT      O74446   0.033   8.934   8.596
24735WAT     H174447  -0.007   8.994   8.665
24735WAT     H274448   0.132   8.937   8.602
24736WAT      O74449   7.818   8.461   5.217
24736WAT     H174450   7.901   8.444   5.268
24736WAT     H274451   7.820   8.555   5.181
24737WAT      O74452   8.771   1.921   5.842
24737WAT     H174453   8.844   1.891   5.781
24737WAT     H274454   8.705   1.848   5.854
24738WAT      O74455   1.062   7.413   3.264
24738WAT     H174456   1.130   7.482   3.288
24738WAT     H274457   0.970   7.450   3.279
24739WAT      O74458   4.541   1.951   8.623
24739WAT     H174459   4.581   2.040   8.642
24739WAT     H274460   4.442   1.954   8.636
24740WAT      O74461   9.084   1.779   9.052
24740WAT     H174462   9.149   1.855   9.055
24740WAT     H274463   9.122   1.701   9.100
24741WAT      O74464   2.934   8.502   5.997
24741WAT     H174465   2.961   8.562   5.922
24741WAT     H274466   2.986   8.417   5.991
24742WAT      O74467   3.652   7.705   2.686
24742WAT     H174468   3.683   7.731   2.594
24742WAT     H274469   3.595   7.623   2.679
24743WAT      O74470   7.400   7.720   4.685
24743WAT     H174471   7.495   7.700   4.709
24743WAT     H274472   7.375   7.668   4.603
24744WAT      O74473   9.723   2.671   6.864
24744WAT     H174474   9.800   2.607   6.855
24744WAT     H274475   9.653   2.630   6.922
24745WAT      O74476   0.920   8.021   7.959
24745WAT     H174477   0.915   8.027   7.860
24745WAT     H274478   0.846   7.963   7.993
24746WAT      O74479   1.016   6.939   7.782
24746WAT     H174480   0.919   6.924   7.766
24746WAT     H274481   1.028   7.021   7.839
24747WAT      O74482   6.223   0.628   5.269
24747WAT     H174483   6.236   0.550   5.330
24747WAT     H274484   6.231   0.713   5.321
24748WAT      O74485   5.669   1.735   1.305
24748WAT     H174486   5.685   1.637   1.296
24748WAT     H274487   5.743   1.777   1.358
24749WAT      O74488   4.156   9.116   2.772
24749WAT     H174489   4.096   9.193   2.791
24749WAT     H274490   4.215   9.138   2.694
24750WAT      O74491   8.821   1.338   8.282
24750WAT     H174492   8.813   1.239   8.291
24750WAT     H274493   8.798   1.381   8.369
24751WAT      O74494   6.339   1.145   7.233
24751WAT     H174495   6.318   1.137   7.331
24751WAT     H274496   6.270   1.203   7.189
24752WAT      O74497   0.533   2.498   2.326
24752WAT     H174498   0.579   2.410   2.323
24752WAT     H274499   0.483   2.507   2.412
24753WAT      O74500   6.356   8.762   4.434
24753WAT     H174501   6.340   8.812   4.519
24753WAT     H274502   6.417   8.815   4.375
24754WAT      O74503   3.682   9.004   8.482
24754WAT     H174504   3.765   9.051   8.511
24754WAT     H274505   3.685   8.990   8.383
24755WAT      O74506   7.068   3.208   6.006
24755WAT     H174507   7.160   3.211   5.967
24755WAT     H274508   7.013   3.142   5.955
24756WAT      O74509   1.917   0.559   2.661
24756WAT     H174510   1.850   0.493   2.694
24756WAT     H274511   2.009   0.528   2.684
24757WAT      O74512   3.285   6.862   0.974
24757WAT     H174513   3.254   6.927   1.043
24757WAT     H274514   3.382   6.842   0.988
24758WAT      O74515   9.046   4.414   7.416
24758WAT     H174516   9.042   4.513   7.404
24758WAT     H274517   9.053   4.393   7.514
24759WAT      O74518   2.102   9.273   0.782
24759WAT     H174519   2.092   9.179   0.813
24759WAT     H274520   2.183   9.314   0.824
24760WAT      O74521   7.924   5.413   5.645
24760WAT     H174522   7.943   5.510   5.661
24760WAT     H274523   7.966   5.385   5.559
24761WAT      O74524   7.713   5.163   9.501
24761WAT     H174525   7.743   5.105   9.425
24761WAT     H274526   7.791   5.188   9.558
24762WAT      O74527   5.733   3.006   2.758
24762WAT     H174528   5.746   3.007   2.659
24762WAT     H274529   5.676   3.084   2.785
24763WAT      O74530   7.285   7.395   0.182
24763WAT     H174531   7.230   7.409   0.263
24763WAT     H274532   7.377   7.364   0.208
24764WAT      O74533   2.201   8.160   7.504
24764WAT     H174534   2.117   8.214   7.503
24764WAT     H274535   2.188   8.081   7.565
24765WAT      O74536   9.225   7.739   1.894
24765WAT     H174537   9.288   7.797   1.946
24765WAT     H274538   9.227   7.646   1.931
24766WAT      O74539   5.102   1.209   9.540
24766WAT     H174540   5.170   1.282   9.532
24766WAT     H274541   5.053   1.218   9.627
24767WAT      O74542   9.150   2.313   2.689
24767WAT     H174543   9.091   2.377   2.639
24767WAT     H274544   9.190   2.248   2.625
24768WAT      O74545   2.454   0.958   5.581
24768WAT     H174546   2.438   1.056   5.597
24768WAT     H274547   2.379   0.921   5.525
24769WAT      O74548   9.446   1.505   2.479
24769WAT     H174549   9.425   1.602   2.493
24769WAT     H274550   9.402   1.473   2.395
24770WAT      O74551   5.176   5.066   1.877
24770WAT     H174552   5.202   4.977   1.913
24770WAT     H274553   5.250   5.102   1.820
24771WAT      O74554   8.529   5.258   4.514
24771WAT     H174555   8.603   5.321   4.536
24771WAT     H274556   8.455   5.268   4.581
24772WAT      O74557   6.171   1.080   1.603
24772WAT     H174558   6.228   1.159   1.627
24772WAT     H274559   6.228   1.009   1.563
24773WAT      O74560   8.576   2.824   3.391
24773WAT     H174561   8.610   2.783   3.306
24773WAT     H274562   8.607   2.919   3.397
24774WAT      O74563   1.768   0.684   2.014
24774WAT     H174564   1.807   0.671   2.105
24774WAT     H274565   1.784   0.602   1.959
24775WAT      O74566   7.943   0.008   6.339
24775WAT     H174567   7.984  -0.001   6.248
24775WAT     H274568   8.015   0.023   6.407
24776WAT      O74569   3.647   7.744   6.944
24776WAT     H174570   3.573   7.802   6.976
24776WAT     H274571   3.680   7.687   7.020
24777WAT      O74572   9.730   8.301   1.997
24777WAT     H174573   9.807   8.359   1.971
24777WAT     H274574   9.758   8.240   2.071
24778WAT      O74575   6.438   6.139   0.760
24778WAT     H174576   6.463   6.205   0.831
24778WAT     H274577   6.395   6.187   0.683
24779WAT      O74578   1.273   8.205   9.298
24779WAT     H174579   1.327   8.270   9.246
24779WAT     H274580   1.324   8.119   9.308
24780WAT      O74581   4.964   3.534   6.699
24780WAT     H174582   4.934   3.583   6.781
24780WAT     H274583   5.058   3.502   6.711
24781WAT      O74584   0.886   9.512   4.354
24781WAT     H174585   0.956   9.479   4.417
24781WAT     H274586   0.896   9.467   4.266
24782WAT      O74587   8.218   5.235   3.935
24782WAT     H174588   8.160   5.224   4.016
24782WAT     H274589   8.298   5.176   3.943
24783WAT      O74590   2.529   8.190   1.986
24783WAT     H174591   2.441   8.157   1.952
24783WAT     H274592   2.568   8.123   2.049
24784WAT      O74593   9.030   1.110   9.571
24784WAT     H174594   9.101   1.101   9.501
24784WAT     H274595   8.944   1.136   9.527
24785WAT      O74596   5.791   5.669   8.735
24785WAT     H174597   5.857   5.595   8.726
24785WAT     H274598   5.826   5.750   8.687
24786WAT      O74599   7.953   3.962   7.495
24786WAT     H174600   7.931   3.981   7.591
24786WAT     H274601   7.890   3.893   7.459
24787WAT      O74602   6.991   8.134   1.480
24787WAT     H174603   7.029   8.220   1.445
24787WAT     H274604   6.935   8.154   1.561
24788WAT      O74605   5.605   2.557   6.165
24788WAT     H174606   5.564   2.614   6.236
24788WAT     H274607   5.662   2.614   6.106
24789WAT      O74608   5.641   2.651   7.648
24789WAT     H174609   5.600   2.696   7.570
24789WAT     H274610   5.576   2.651   7.725
24790WAT      O74611   3.641   9.277   8.357
24790WAT     H174612   3.614   9.182   8.340
24790WAT     H274613   3.688   9.314   8.277
24791WAT      O74614   7.849   2.848   9.628
24791WAT     H174615   7.774   2.784   9.611
24791WAT     H274616   7.858   2.863   9.726
24792WAT      O74617   2.809   5.901   2.970
24792WAT     H174618   2.751   5.918   3.050
24792WAT     H274619   2.753   5.904   2.887
24793WAT      O74620   4.265   6.403   2.532
24793WAT     H174621   4.308   6.345   2.601
24793WAT     H274622   4.269   6.499   2.563
24794WAT      O74623   5.738   7.605   2.155
24794WAT     H174624   5.739   7.509   2.130
24794WAT     H274625   5.829   7.632   2.189
24795WAT      O74626   4.470   8.195   1.839
24795WAT     H174627   4.411   8.275   1.840
24795WAT     H274628   4.543   8.206   1.907
24796WAT      O74629   9.078   7.230   5.855
24796WAT     H174630   9.122   7.318   5.872
24796WAT     H274631   9.103   7.166   5.928
24797WAT      O74632   1.883   0.482   4.217
24797WAT     H174633   1.920   0.392   4.196
24797WAT     H274634   1.828   0.478   4.300
24798WAT      O74635   2.620   8.294   3.561
24798WAT     H174636   2.663   8.357   3.626
24798WAT     H274637   2.606   8.341   3.474
24799WAT      O74638   0.224   7.006   8.495
24799WAT     H174639   0.302   7.002   8.557
24799WAT     H274640   0.165   7.083   8.520
24800WAT      O74641   9.737   4.161   5.207
24800WAT     H174642   9.734   4.259   5.190
24800WAT     H274643   9.694   4.140   5.295
24801WAT      O74644   6.186   7.958   3.624
24801WAT     H174645   6.245   7.893   3.672
24801WAT     H274646   6.132   8.009   3.690
24802WAT      O74647   2.981   2.526   6.193
24802WAT     H174648   3.001   2.528   6.095
24802WAT     H274649   3.006   2.437   6.230
24803WAT      O74650   2.645   9.699   0.745
24803WAT     H174651   2.552   9.661   0.754
24803WAT     H274652   2.696   9.680   0.829
24804WAT      O74653   2.813   1.127   6.007
24804WAT     H174654   2.794   1.146   6.103
24804WAT     H274655   2.883   1.190   5.974
24805WAT      O74656   2.582   5.438   4.372
24805WAT     H174657   2.629   5.410   4.456
24805WAT     H274658   2.610   5.378   4.297
24806WAT      O74659   4.215   4.023   6.602
24806WAT     H174660   4.193   4.020   6.505
24806WAT     H274661   4.167   4.099   6.645
24807WAT      O74662   3.915   2.021   4.075
24807WAT     H174663   3.993   2.048   4.131
24807WAT     H274664   3.831   2.055   4.117
24808WAT      O74665   7.303   7.897   1.813
24808WAT     H174666   7.302   7.845   1.899
24808WAT     H274667   7.241   7.976   1.822
24809WAT      O74668   5.024   3.016   7.648
24809WAT     H174669   5.118   2.987   7.627
24809WAT     H274670   5.013   3.112   7.624
24810WAT      O74671   0.006   0.818   4.256
24810WAT     H174672  -0.094   0.823   4.267
24810WAT     H274673   0.050   0.875   4.326
24811WAT      O74674   0.686   0.711   1.215
24811WAT     H174675   0.776   0.732   1.177
24811WAT     H274676   0.617   0.770   1.171
24812WAT      O74677   9.821   0.813   0.662
24812WAT     H174678   9.835   0.911   0.668
24812WAT     H274679   9.867   0.778   0.580
24813WAT      O74680   8.203   0.040   7.655
24813WAT     H174681   8.258   0.078   7.729
24813WAT     H274682   8.129   0.103   7.631
24814WAT      O74683   7.268   3.662   9.790
24814WAT     H174684   7.343   3.601   9.762
24814WAT     H274685   7.192   3.608   9.826
24815WAT      O74686   0.028   8.122   3.992
24815WAT     H174687  -0.036   8.075   3.931
24815WAT     H274688  -0.016   8.203   4.030
24816WAT      O74689   3.933   9.534   1.683
24816WAT     H174690   3.937   9.457   1.746
24816WAT     H274691   3.970   9.616   1.727
24817WAT      O74692   9.790   9.652   0.579
24817WAT     H174693   9.722   9.709   0.533
24817WAT     H274694   9.801   9.566   0.528
24818WAT      O74695   0.395   3.150   3.755
24818WAT     H174696   0.451   3.128   3.834
24818WAT     H274697   0.450   3.199   3.687
24819WAT      O74698   0.446   4.135   7.052
24819WAT     H174699   0.472   4.223   7.090
24819WAT     H274700   0.511   4.108   6.981
24820WAT      O74701   7.969   5.062   6.779
24820WAT     H174702   7.966   5.139   6.715
24820WAT     H274703   8.064   5.040   6.801
24821WAT      O74704   9.574   0.663   9.566
24821WAT     H174705   9.664   0.663   9.610
24821WAT     H274706   9.556   0.573   9.527
24822WAT      O74707   8.600   2.458   6.229
24822WAT     H174708   8.621   2.417   6.318
24822WAT     H274709   8.622   2.556   6.231
24823WAT      O74710   0.214   1.778   2.518
24823WAT     H174711   0.185   1.869   2.489
24823WAT     H274712   0.133   1.720   2.532
24824WAT      O74713   4.115   6.907   0.018
24824WAT     H174714   4.170   6.957   0.085
24824WAT     H274715   4.171   6.883  -0.061
24825WAT      O74716   6.883   5.261   7.681
24825WAT     H174717   6.885   5.324   7.604
24825WAT     H274718   6.943   5.183   7.662
24826WAT      O74719   8.022   9.716   3.822
24826WAT     H174720   7.929   9.703   3.789
24826WAT     H274721   8.064   9.793   3.774
24827WAT      O74722   7.495   6.081   8.243
24827WAT     H174723   7.542   6.123   8.321
24827WAT     H274724   7.535   6.114   8.158
24828WAT      O74725   5.658   4.767   2.944
24828WAT     H174726   5.737   4.777   2.883
24828WAT     H274727   5.679   4.702   3.016
24829WAT      O74728   9.643   5.858   3.389
24829WAT     H174729   9.661   5.789   3.319
24829WAT     H274730   9.644   5.815   3.479
24830WAT      O74731   9.556   9.609   7.121
24830WAT     H174732   9.572   9.609   7.220
24830WAT     H274733   9.488   9.540   7.098
24831WAT      O74734   3.245   9.766   7.762
24831WAT     H174735   3.257   9.761   7.861
24831WAT     H274736   3.293   9.689   7.719
24832WAT      O74737   4.906   7.223   7.558
24832WAT     H174738   4.834   7.293   7.565
24832WAT     H274739   4.936   7.216   7.463
24833WAT      O74740   7.259   6.245   0.169
24833WAT     H174741   7.224   6.315   0.107
24833WAT     H274742   7.356   6.231   0.151
24834WAT      O74743   7.311   2.755   0.834
24834WAT     H174744   7.277   2.849   0.825
24834WAT     H274745   7.347   2.741   0.926
24835WAT      O74746   1.084   5.627   2.032
24835WAT     H174747   1.128   5.547   1.993
24835WAT     H274748   1.038   5.678   1.959
24836WAT      O74749   3.924   1.434   7.231
24836WAT     H174750   4.013   1.395   7.253
24836WAT     H274751   3.882   1.384   7.156
24837WAT      O74752   5.885   7.975   5.191
24837WAT     H174753   5.791   7.993   5.165
24837WAT     H274754   5.940   7.956   5.110
24838WAT      O74755   9.513   2.570   7.585
24838WAT     H174756   9.481   2.643   7.646
24838WAT     H274757   9.441   2.503   7.572
24839WAT      O74758   6.111   9.416   5.389
24839WAT     H174759   6.122   9.318   5.372
24839WAT     H274760   6.051   9.429   5.469
24840WAT      O74761   3.513   6.974   4.791
24840WAT     H174762   3.573   6.917   4.734
24840WAT     H274763   3.472   6.918   4.863
24841WAT      O74764   8.386   2.137   1.875
24841WAT     H174765   8.484   2.160   1.884
24841WAT     H274766   8.365   2.059   1.933
24842WAT      O74767   7.847   0.677   5.087
24842WAT     H174768   7.862   0.630   5.000
24842WAT     H274769   7.787   0.621   5.145
24843WAT      O74770   0.406   4.046   2.213
24843WAT     H174771   0.327   4.077   2.265
24843WAT     H274772   0.431   3.953   2.241
24844WAT      O74773   3.869   0.709   2.940
24844WAT     H174774   3.905   0.696   3.032
24844WAT     H274775   3.913   0.644   2.878
24845WAT      O74776   8.961   1.172   3.092
24845WAT     H174777   8.995   1.210   3.178
24845WAT     H274778   8.885   1.110   3.111
24846WAT      O74779   7.178   3.654   8.894
24846WAT     H174780   7.103   3.647   8.959
24846WAT     H274781   7.145   3.691   8.808
24847WAT      O74782   3.604   5.899   1.387
24847WAT     H174783   3.544   5.976   1.408
24847WAT     H274784   3.694   5.916   1.428
24848WAT      O74785   0.576   4.948   6.359
24848WAT     H174786   0.563   5.047   6.357
24848WAT     H274787   0.641   4.921   6.288
24849WAT      O74788   2.039   8.159   2.579
24849WAT     H174789   2.047   8.137   2.677
24849WAT     H274790   2.067   8.079   2.526
24850WAT      O74791   3.915   3.644   9.254
24850WAT     H174792   3.821   3.644   9.219
24850WAT     H274793   3.925   3.570   9.321
24851WAT      O74794   9.761   9.602   4.605
24851WAT     H174795   9.778   9.675   4.539
24851WAT     H274796   9.779   9.513   4.563
24852WAT      O74797   9.145   5.334   4.236
24852WAT     H174798   9.139   5.416   4.180
24852WAT     H274799   9.191   5.261   4.184
24853WAT      O74800   4.840   5.965   3.791
24853WAT     H174801   4.868   6.060   3.774
24853WAT     H274802   4.921   5.910   3.809
24854WAT      O74803   2.538   7.104   2.502
24854WAT     H174804   2.489   7.174   2.450
24854WAT     H274805   2.483   7.021   2.507
24855WAT      O74806   8.844   5.514   9.717
24855WAT     H174807   8.925   5.483   9.765
24855WAT     H274808   8.781   5.558   9.781
24856WAT      O74809   8.447   5.555   0.382
24856WAT     H174810   8.523   5.584   0.441
24856WAT     H274811   8.484   5.506   0.303
24857WAT      O74812   1.972   8.948   5.479
24857WAT     H174813   1.917   8.912   5.403
24857WAT     H274814   1.944   9.042   5.497
24858WAT      O74815   7.889   3.591   3.866
24858WAT     H174816   7.887   3.687   3.893
24858WAT     H274817   7.812   3.543   3.908
24859WAT      O74818   0.149   6.693   5.394
24859WAT     H174819   0.102   6.663   5.311
24859WAT     H274820   0.155   6.617   5.459
24860WAT      O74821   0.471   1.899   9.260
24860WAT     H174822   0.532   1.845   9.202
24860WAT     H274823   0.380   1.857   9.261
24861WAT      O74824   4.297   3.862   6.240
24861WAT     H174825   4.397   3.858   6.246
24861WAT     H274826   4.257   3.806   6.313
24862WAT      O74827   6.641   0.918   4.435
24862WAT     H174828   6.566   0.866   4.395
24862WAT     H274829   6.671   0.875   4.520
24863WAT      O74830   1.052   7.339   6.140
24863WAT     H174831   0.955   7.329   6.119
24863WAT     H274832   1.064   7.345   6.239
24864WAT      O74833   7.875   0.253   0.673
24864WAT     H174834   7.785   0.259   0.631
24864WAT     H274835   7.946   0.254   0.602
24865WAT      O74836   0.086   3.391   8.361
24865WAT     H174837   0.062   3.420   8.269
24865WAT     H274838   0.026   3.437   8.427
24866WAT      O74839   9.341   5.008   2.414
24866WAT     H174840   9.426   5.048   2.446
24866WAT     H274841   9.356   4.963   2.326
24867WAT      O74842   6.368   9.825   6.548
24867WAT     H174843   6.289   9.845   6.605
24867WAT     H274844   6.407   9.910   6.513
24868WAT      O74845   4.213   6.789   7.669
24868WAT     H174846   4.270   6.817   7.592
24868WAT     H274847   4.224   6.691   7.685
24869WAT      O74848   4.066   8.171   8.845
24869WAT     H174849   3.980   8.221   8.833
24869WAT     H274850   4.090   8.168   8.942
24870WAT      O74851   1.851   6.567   7.791
24870WAT     H174852   1.815   6.478   7.820
24870WAT     H274853   1.800   6.640   7.836
24871WAT      O74854   1.318   5.940   1.205
24871WAT     H174855   1.413   5.930   1.176
24871WAT     H274856   1.270   5.852   1.194
24872WAT      O74857   3.540   2.462   7.141
24872WAT     H174858   3.543   2.408   7.225
24872WAT     H274859   3.455   2.514   7.138
24873WAT      O74860   7.517   8.375   8.542
24873WAT     H174861   7.536   8.433   8.463
24873WAT     H274862   7.580   8.398   8.617
24874WAT      O74863   0.836   6.564   4.603
24874WAT     H174864   0.841   6.506   4.684
24874WAT     H274865   0.841   6.660   4.630
24875WAT      O74866   3.762   4.227   5.781
24875WAT     H174867   3.857   4.213   5.752
24875WAT     H274868   3.744   4.324   5.791
24876WAT      O74869   4.463   3.628   6.408
24876WAT     H174870   4.507   3.678   6.483
24876WAT     H274871   4.511   3.646   6.322
24877WAT      O74872   0.766   4.200   8.451
24877WAT     H174873   0.731   4.134   8.517
24877WAT     H274874   0.853   4.167   8.414
24878WAT      O74875   1.631   8.963   8.096
24878WAT     H174876   1.686   8.880   8.084
24878WAT     H274877   1.544   8.953   8.048
24879WAT      O74878   1.687   1.128   0.078
24879WAT     H174879   1.752   1.195   0.042
24879WAT     H274880   1.732   1.071   0.146
24880WAT      O74881   7.497   7.013   6.285
24880WAT     H174882   7.546   6.962   6.215
24880WAT     H274883   7.466   7.100   6.247
24881WAT      O74884   3.161   5.417   6.895
24881WAT     H174885   3.085   5.468   6.935
24881WAT     H274886   3.145   5.319   6.906
24882WAT      O74887   8.353   8.216   7.534
24882WAT     H174888   8.374   8.118   7.531
24882WAT     H274889   8.418   8.261   7.595
24883WAT      O74890   6.909   4.886   5.636
24883WAT     H174891   7.004   4.864   5.611
24883WAT     H274892   6.869   4.808   5.683
24884WAT      O74893   8.500   1.647   7.986
24884WAT     H174894   8.568   1.615   8.052
24884WAT     H274895   8.511   1.745   7.972
24885WAT      O74896   3.931   8.568   1.316
24885WAT     H174897   3.894   8.524   1.398
24885WAT     H274898   4.020   8.609   1.336
24886WAT      O74899   2.511   4.372   5.425
24886WAT     H174900   2.511   4.373   5.525
24886WAT     H274901   2.602   4.398   5.391
24887WAT      O74902   9.194   7.460   3.261
24887WAT     H174903   9.258   7.537   3.256
24887WAT     H274904   9.234   7.388   3.319
24888WAT      O74905   0.615   8.329   0.943
24888WAT     H174906   0.653   8.419   0.919
24888WAT     H274907   0.687   8.272   0.983
24889WAT      O74908   0.092   0.524   8.888
24889WAT     H174909   0.179   0.499   8.845
24889WAT     H274910   0.044   0.591   8.831
24890WAT      O74911   7.861   3.838   3.992
24890WAT     H174912   7.879   3.861   4.088
24890WAT     H274913   7.762   3.832   3.977
24891WAT      O74914   4.201   3.577   4.395
24891WAT     H174915   4.257   3.653   4.430
24891WAT     H274916   4.236   3.549   4.306
24892WAT      O74917   3.844   4.007   1.641
24892WAT     H174918   3.921   4.069   1.626
24892WAT     H274919   3.800   3.988   1.553
24893WAT      O74920   9.462   0.506   6.901
24893WAT     H174921   9.428   0.530   6.991
24893WAT     H274922   9.387   0.506   6.835
24894WAT      O74923   0.670   5.603   3.773
24894WAT     H174924   0.606   5.582   3.699
24894WAT     H274925   0.699   5.699   3.767
24895WAT      O74926   2.065   7.015   3.834
24895WAT     H174927   2.022   6.955   3.902
24895WAT     H274928   2.159   7.035   3.862
24896WAT      O74929   5.841   8.046   5.896
24896WAT     H174930   5.767   8.095   5.943
24896WAT     H274931   5.918   8.034   5.959
24897WAT      O74932   7.592   9.513   5.668
24897WAT     H174933   7.597   9.419   5.702
24897WAT     H274934   7.629   9.517   5.575
24898WAT      O74935   4.365   8.767   5.575
24898WAT     H174936   4.330   8.850   5.531
24898WAT     H274937   4.386   8.699   5.505
24899WAT      O74938   7.255   8.525   7.520
24899WAT     H174939   7.237   8.616   7.484
24899WAT     H274940   7.212   8.456   7.461
24900WAT      O74941   3.088   0.668   9.090
24900WAT     H174942   3.084   0.571   9.068
24900WAT     H274943   3.017   0.717   9.040
24901WAT      O74944   4.089   3.860   0.410
24901WAT     H174945   4.139   3.868   0.324
24901WAT     H274946   4.017   3.929   0.413
24902WAT      O74947   7.896   6.771   7.971
24902WAT     H174948   7.833   6.839   7.933
24902WAT     H274949   7.965   6.747   7.902
24903WAT      O74950   7.825   0.800   6.365
24903WAT     H174951   7.740   0.851   6.353
24903WAT     H274952   7.877   0.839   6.440
24904WAT      O74953   9.710   5.970   8.341
24904WAT     H174954   9.794   6.021   8.361
24904WAT     H274955   9.730   5.872   8.345
24905WAT      O74956   8.354   4.798   6.956
24905WAT     H174957   8.370   4.859   7.034
24905WAT     H274958   8.426   4.728   6.954
24906WAT      O74959   3.718   8.244   2.335
24906WAT     H174960   3.626   8.245   2.376
24906WAT     H274961   3.781   8.195   2.396
24907WAT      O74962   0.117   2.670   5.230
24907WAT     H174963   0.072   2.602   5.173
24907WAT     H274964   0.131   2.754   5.177
24908WAT      O74965   3.356   2.951   2.743
24908WAT     H174966   3.378   3.047   2.727
24908WAT     H274967   3.376   2.927   2.838
24909WAT      O74968   0.642   7.938   6.979
24909WAT     H174969   0.703   7.937   7.058
24909WAT     H274970   0.695   7.929   6.895
24910WAT      O74971   7.276   1.502   5.312
24910WAT     H174972   7.270   1.403   5.319
24910WAT     H274973   7.359   1.528   5.263
24911WAT      O74974   6.654   7.312   4.389
24911WAT     H174975   6.642   7.385   4.321
24911WAT     H274976   6.669   7.225   4.342
24912WAT      O74977   4.559   5.059   1.386
24912WAT     H174978   4.469   5.094   1.360
24912WAT     H274979   4.556   4.959   1.387
24913WAT      O74980   6.795   0.108   0.534
24913WAT     H174981   6.826   0.108   0.439
24913WAT     H274982   6.869   0.076   0.593
24914WAT      O74983   6.993   8.593   4.880
24914WAT     H174984   6.918   8.612   4.944
24914WAT     H274985   7.025   8.500   4.892
24915WAT      O74986   2.234   3.661   6.861
24915WAT     H174987   2.159   3.723   6.881
24915WAT     H274988   2.321   3.710   6.869
24916WAT      O74989   5.734   9.768   4.072
24916WAT     H174990   5.736   9.862   4.039
24916WAT     H274991   5.828   9.735   4.085
24917WAT      O74992   8.475   3.886   3.124
24917WAT     H174993   8.518   3.949   3.060
24917WAT     H274994   8.421   3.818   3.073
24918WAT      O74995   9.493   0.559   7.704
24918WAT     H174996   9.484   0.467   7.744
24918WAT     H274997   9.564   0.558   7.634
24919WAT      O74998   8.298   8.931   9.044
24919WAT     H174999   8.264   8.867   8.975
24919WAT     H275000   8.325   8.880   9.126
24920WAT      O75001   0.825   4.942   6.222
24920WAT     H175002   0.905   4.992   6.254
24920WAT     H275003   0.792   4.983   6.137
24921WAT      O75004   4.636   0.397   8.606
24921WAT     H175005   4.551   0.356   8.573
24921WAT     H275006   4.680   0.336   8.672
24922WAT      O75007   2.168   5.850   0.040
24922WAT     H175008   2.234   5.843  -0.035
24922WAT     H275009   2.153   5.759   0.080
24923WAT      O75010   1.653   7.404   7.372
24923WAT     H175011   1.703   7.341   7.312
24923WAT     H275012   1.714   7.478   7.400
24924WAT      O75013   2.567   5.531   8.234
24924WAT     H175014   2.504   5.461   8.265
24924WAT     H275015   2.660   5.494   8.233
24925WAT      O75016   6.531   2.745   1.284
24925WAT     H175017   6.455   2.803   1.315
24925WAT     H275018   6.525   2.732   1.185
24926WAT      O75019   7.882   7.864   7.524
24926WAT     H175020   7.790   7.893   7.548
24926WAT     H275021   7.948   7.927   7.565
24927WAT      O75022   6.766   2.154   1.611
24927WAT     H175023   6.780   2.206   1.695
24927WAT     H275024   6.800   2.206   1.533
24928WAT      O75025   4.535   2.743   9.202
24928WAT     H175026   4.503   2.650   9.218
24928WAT     H275027   4.599   2.743   9.125
24929WAT      O75028   0.842   7.191   9.484
24929WAT     H175029   0.834   7.105   9.434
24929WAT     H275030   0.828   7.174   9.582
24930WAT      O75031   4.558   0.211   3.210
24930WAT     H175032   4.596   0.295   3.172
24930WAT     H275033   4.548   0.143   3.137
24931WAT      O75034   3.070   3.935   4.818
24931WAT     H175035   3.001   4.008   4.819
24931WAT     H275036   3.125   3.943   4.735
24932WAT      O75037   2.466   8.095   2.480
24932WAT     H175038   2.392   8.041   2.521
24932WAT     H275039   2.551   8.044   2.485
24933WAT      O75040   0.052   5.202   4.702
24933WAT     H175041   0.093   5.285   4.739
24933WAT     H275042  -0.040   5.222   4.668
24934WAT      O75043   1.138   6.716   3.987
24934WAT     H175044   1.043   6.723   4.018
24934WAT     H275045   1.159   6.793   3.928
24935WAT      O75046   7.522   3.710   4.813
24935WAT     H175047   7.431   3.746   4.790
24935WAT     H275048   7.513   3.617   4.849
24936WAT      O75049   2.384   3.281   4.080
24936WAT     H175050   2.330   3.362   4.058
24936WAT     H275051   2.334   3.199   4.053
24937WAT      O75052   2.553   3.563   7.197
24937WAT     H175053   2.643   3.597   7.224
24937WAT     H275054   2.564   3.488   7.132
24938WAT      O75055   2.275   0.303   6.633
24938WAT     H175056   2.228   0.266   6.713
24938WAT     H275057   2.364   0.259   6.623
24939WAT      O75058   6.633   2.925   5.723
24939WAT     H175059   6.707   2.863   5.697
24939WAT     H275060   6.601   2.975   5.642
24940WAT      O75061   5.097   4.235   0.603
24940WAT     H175062   5.138   4.145   0.615
24940WAT     H275063   5.169   4.303   0.588
24941WAT      O75064   9.727   8.642   5.426
24941WAT     H175065   9.699   8.613   5.518
24941WAT     H275066   9.646   8.645   5.367
24942WAT      O75067   3.916   1.917   7.398
24942WAT     H175068   3.848   1.847   7.420
24942WAT     H275069   3.906   1.944   7.302
24943WAT      O75070   3.397   7.227   5.508
24943WAT     H175071   3.378   7.318   5.470
24943WAT     H275072   3.493   7.203   5.491
24944WAT      O75073   6.626   5.730   8.807
24944WAT     H175074   6.651   5.666   8.734
24944WAT     H275075   6.534   5.764   8.790
24945WAT      O75076   0.574   0.267   0.515
24945WAT     H175077   0.539   0.187   0.466
24945WAT     H275078   0.538   0.268   0.608
24946WAT      O75079   8.432   2.932   2.375
24946WAT     H175080   8.486   2.892   2.301
24946WAT     H275081   8.337   2.904   2.366
24947WAT      O75082   3.409   3.761   0.725
24947WAT     H175083   3.317   3.767   0.686
24947WAT     H275084   3.476   3.792   0.658
24948WAT      O75085   1.706   6.164   4.961
24948WAT     H175086   1.791   6.127   4.924
24948WAT     H275087   1.674   6.238   4.902
24949WAT      O75088   3.222   3.967   9.466
24949WAT     H175089   3.204   4.041   9.400
24949WAT     H275090   3.136   3.941   9.510
24950WAT      O75091   5.744   1.756   0.554
24950WAT     H175092   5.817   1.763   0.623
24950WAT     H275093   5.719   1.660   0.542
24951WAT      O75094   3.396   3.089   1.049
24951WAT     H175095   3.307   3.071   1.006
24951WAT     H275096   3.439   3.168   1.006
24952WAT      O75097   3.401   2.992   6.423
24952WAT     H175098   3.345   2.979   6.342
24952WAT     H275099   3.398   3.089   6.450
24953WAT      O75100   1.380   2.797   5.042
24953WAT     H175101   1.318   2.853   4.988
24953WAT     H275102   1.419   2.725   4.984
24954WAT      O75103   2.269   7.038   2.259
24954WAT     H175104   2.347   7.062   2.202
24954WAT     H275105   2.184   7.051   2.207
24955WAT      O75106   5.623   0.286   1.361
24955WAT     H175107   5.700   0.348   1.346
24955WAT     H275108   5.645   0.222   1.434
24956WAT      O75109   4.247   8.232   2.235
24956WAT     H175110   4.290   8.147   2.207
24956WAT     H275111   4.288   8.264   2.321
24957WAT      O75112   6.673   1.796   1.129
24957WAT     H175113   6.766   1.817   1.099
24957WAT     H275114   6.663   1.820   1.226
24958WAT      O75115   7.449   3.551   5.218
24958WAT     H175116   7.465   3.649   5.230
24958WAT     H275117   7.511   3.515   5.148
24959WAT      O75118   9.410   7.924   9.660
24959WAT     H175119   9.417   8.017   9.625
24959WAT     H275120   9.496   7.896   9.702
24960WAT      O75121   8.424   2.548   9.524
24960WAT     H175122   8.383   2.525   9.612
24960WAT     H275123   8.357   2.596   9.467
24961WAT      O75124   0.198   6.646   2.963
24961WAT     H175125   0.199   6.738   2.924
24961WAT     H275126   0.183   6.579   2.891
24962WAT      O75127   6.677   1.931   4.702
24962WAT     H175128   6.605   1.867   4.676
24962WAT     H275129   6.663   1.959   4.797
24963WAT      O75130   3.889   8.733   3.144
24963WAT     H175131   3.899   8.750   3.243
24963WAT     H275132   3.806   8.778   3.111
24964WAT      O75133   3.391   8.654   0.633
24964WAT     H175134   3.311   8.708   0.661
24964WAT     H275135   3.379   8.622   0.539
24965WAT      O75136   5.425   5.122   4.160
24965WAT     H175137   5.390   5.216   4.155
24965WAT     H275138   5.350   5.057   4.150
24966WAT      O75139   5.668   4.632   2.330
24966WAT     H175140   5.652   4.731   2.323
24966WAT     H275141   5.712   4.599   2.246
24967WAT      O75142   7.405   3.508   2.306
24967WAT     H175143   7.493   3.551   2.287
24967WAT     H275144   7.408   3.412   2.279
24968WAT      O75145   8.849   6.945   0.514
24968WAT     H175146   8.890   6.920   0.426
24968WAT     H275147   8.870   6.875   0.582
24969WAT      O75148   7.081   6.692   9.592
24969WAT     H175149   7.090   6.603   9.546
24969WAT     H275150   7.077   6.764   9.523
24970WAT      O75151   7.449   5.275   2.151
24970WAT     H175152   7.459   5.333   2.070
24970WAT     H275153   7.480   5.182   2.130
24971WAT      O75154   9.232   4.760   6.508
24971WAT     H175155   9.155   4.725   6.455
24971WAT     H275156   9.202   4.781   6.601
24972WAT      O75157   2.399   5.565   4.492
24972WAT     H175158   2.335   5.509   4.544
24972WAT     H275159   2.455   5.507   4.433
24973WAT      O75160   3.127   8.328   4.183
24973WAT     H175161   3.197   8.321   4.112
24973WAT     H275162   3.110   8.238   4.221
24974WAT      O75163   0.757   9.243   4.538
24974WAT     H175164   0.799   9.211   4.453
24974WAT     H275165   0.825   9.292   4.592
24975WAT      O75166   7.926   9.050   8.357
24975WAT     H175167   7.877   9.134   8.380
24975WAT     H275168   7.989   9.026   8.431
24976WAT      O75169   9.363   9.210   1.090
24976WAT     H175170   9.295   9.140   1.113
24976WAT     H275171   9.383   9.265   1.171
24977WAT      O75172   9.105   7.135   0.225
24977WAT     H175173   9.180   7.127   0.290
24977WAT     H275174   9.142   7.142   0.132
24978WAT      O75175   3.988   6.755   8.068
24978WAT     H175176   3.941   6.824   8.122
24978WAT     H275177   4.033   6.798   7.990
24979WAT      O75178   8.482   5.839   0.521
24979WAT     H175179   8.414   5.840   0.448
24979WAT     H275180   8.520   5.747   0.531
24980WAT      O75181   7.986   2.233   5.597
24980WAT     H175182   8.070   2.211   5.647
24980WAT     H275183   7.915   2.166   5.620
24981WAT      O75184   4.668   2.784   6.567
24981WAT     H175185   4.678   2.748   6.475
24981WAT     H275186   4.753   2.826   6.597
24982WAT      O75187   4.770   4.511   4.124
24982WAT     H175188   4.852   4.543   4.173
24982WAT     H275189   4.697   4.578   4.135
24983WAT      O75190   4.192   6.860   5.568
24983WAT     H175191   4.126   6.936   5.564
24983WAT     H275192   4.231   6.846   5.477
24984WAT      O75193   6.492   8.219   1.854
24984WAT     H175194   6.565   8.248   1.916
24984WAT     H275195   6.478   8.121   1.862
24985WAT      O75196   5.110   5.557   7.864
24985WAT     H175197   5.164   5.584   7.944
24985WAT     H275198   5.057   5.636   7.832
24986WAT      O75199   1.678   4.931   7.308
24986WAT     H175200   1.706   4.958   7.216
24986WAT     H275201   1.757   4.933   7.369
24987WAT      O75202   5.054   8.686   9.419
24987WAT     H175203   5.120   8.752   9.382
24987WAT     H275204   4.978   8.675   9.356
24988WAT      O75205   3.918   8.653   9.056
24988WAT     H175206   3.844   8.688   8.998
24988WAT     H275207   3.991   8.617   8.998
24989WAT      O75208   5.747   0.486   3.386
24989WAT     H175209   5.766   0.407   3.444
24989WAT     H275210   5.770   0.570   3.434
24990WAT      O75211   3.363   4.605   9.305
24990WAT     H175212   3.279   4.651   9.333
24990WAT     H275213   3.424   4.670   9.260
24991WAT      O75214   8.790   5.765   2.376
24991WAT     H175215   8.742   5.852   2.370
24991WAT     H275216   8.833   5.757   2.466
24992WAT      O75217   1.137   1.225   3.634
24992WAT     H175218   1.232   1.233   3.664
24992WAT     H275219   1.130   1.251   3.538
24993WAT      O75220   2.945   5.016   8.379
24993WAT     H175221   2.966   5.085   8.310
24993WAT     H275222   2.928   5.061   8.467
24994WAT      O75223   6.001   4.561   4.334
24994WAT     H175224   5.969   4.609   4.416
24994WAT     H275225   6.071   4.494   4.359
24995WAT      O75226   0.495   1.641   2.711
24995WAT     H175227   0.566   1.691   2.760
24995WAT     H275228   0.406   1.660   2.752
24996WAT      O75229   5.084   0.223   0.573
24996WAT     H175230   5.048   0.195   0.484
24996WAT     H275231   5.016   0.278   0.621
24997WAT      O75232   6.538   1.019   6.895
24997WAT     H175233   6.470   1.044   6.825
24997WAT     H275234   6.605   1.093   6.904
24998WAT      O75235   8.033   7.863   5.750
24998WAT     H175236   8.110   7.892   5.693
24998WAT     H275237   8.060   7.866   5.846
24999WAT      O75238   9.547   7.066   5.237
24999WAT     H175239   9.560   7.035   5.143
24999WAT     H275240   9.478   7.010   5.282
25000WAT      O75241   5.049   6.088   8.307
25000WAT     H175242   5.079   6.183   8.309
25000WAT     H275243   4.956   6.081   8.344
25001WAT      O75244   4.778   4.881   3.430
25001WAT     H175245   4.798   4.887   3.332
25001WAT     H275246   4.862   4.894   3.482
25002WAT      O75247   6.293   0.055   3.670
25002WAT     H175248   6.264   0.150   3.679
25002WAT     H275249   6.361   0.035   3.740
25003WAT      O75250   5.163   6.288   1.833
25003WAT     H175251   5.065   6.286   1.851
25003WAT     H275252   5.201   6.197   1.847
25004WAT      O75253   2.033   8.325   8.243
25004WAT     H175254   2.124   8.359   8.265
25004WAT     H275255   2.007   8.254   8.309
25005WAT      O75256   5.484   6.335   1.944
25005WAT     H175257   5.489   6.414   1.882
25005WAT     H275258   5.491   6.251   1.890
25006WAT      O75259   6.306   2.870   1.326
25006WAT     H175260   6.225   2.811   1.318
25006WAT     H275261   6.340   2.867   1.419
25007WAT      O75262   3.021   7.645   3.420
25007WAT     H175263   2.927   7.661   3.391
25007WAT     H275264   3.027   7.645   3.520
25008WAT      O75265   2.881   4.043   2.758
25008WAT     H175266   2.857   4.139   2.771
25008WAT     H275267   2.970   4.036   2.713
25009WAT      O75268   1.519   6.886   3.935
25009WAT     H175269   1.518   6.825   3.856
25009WAT     H275270   1.452   6.855   4.003
25010WAT      O75271   8.767   9.370   0.968
25010WAT     H175272   8.765   9.434   1.045
25010WAT     H275273   8.847   9.310   0.978
25011WAT      O75274   7.580   2.083   1.370
25011WAT     H175275   7.605   2.121   1.282
25011WAT     H275276   7.641   2.120   1.441
25012WAT      O75277   5.244   2.733   1.085
25012WAT     H175278   5.146   2.727   1.066
25012WAT     H275279   5.276   2.826   1.067
25013WAT      O75280   8.528   8.355   9.034
25013WAT     H175281   8.572   8.281   9.086
25013WAT     H275282   8.471   8.316   8.963
25014WAT      O75283   1.516   0.070   7.682
25014WAT     H175284   1.434   0.115   7.646
25014WAT     H275285   1.526   0.091   7.779
25015WAT      O75286   3.552   8.377   1.638
25015WAT     H175287   3.568   8.447   1.569
25015WAT     H275288   3.554   8.286   1.596
25016WAT      O75289   0.714   4.520   4.111
25016WAT     H175290   0.764   4.443   4.070
25016WAT     H275291   0.771   4.563   4.180
25017WAT      O75292   4.746   1.573   3.225
25017WAT     H175293   4.699   1.594   3.139
25017WAT     H275294   4.826   1.632   3.233
25018WAT      O75295   0.534   3.151   4.395
25018WAT     H175296   0.498   3.148   4.489
25018WAT     H275297   0.509   3.239   4.353
25019WAT      O75298   7.655   0.373   0.568
25019WAT     H175299   7.567   0.399   0.529
25019WAT     H275300   7.649   0.370   0.667
25020WAT      O75301   9.782   2.190   3.883
25020WAT     H175302   9.719   2.227   3.952
25020WAT     H275303   9.744   2.106   3.846
25021WAT      O75304   6.825   5.752   8.235
25021WAT     H175305   6.916   5.789   8.254
25021WAT     H275306   6.761   5.827   8.220
25022WAT      O75307   8.046   7.533   5.341
25022WAT     H175308   8.114   7.511   5.271
25022WAT     H275309   7.969   7.582   5.299
25023WAT      O75310   7.349   3.984   6.542
25023WAT     H175311   7.277   3.980   6.610
25023WAT     H275312   7.438   3.974   6.586
25024WAT      O75313   8.162   5.726   6.441
25024WAT     H175314   8.190   5.682   6.356
25024WAT     H275315   8.238   5.726   6.506
25025WAT      O75316   7.662   3.763   3.655
25025WAT     H175317   7.623   3.671   3.649
25025WAT     H275318   7.732   3.774   3.585
25026WAT      O75319   9.729   3.353   5.953
25026WAT     H175320   9.720   3.449   5.982
25026WAT     H275321   9.762   3.298   6.030
25027WAT      O75322   2.289   8.849   0.489
25027WAT     H175323   2.240   8.881   0.407
25027WAT     H275324   2.384   8.830   0.465
25028WAT      O75325   1.414   0.053   0.403
25028WAT     H175326   1.499   0.006   0.428
25028WAT     H275327   1.340   0.023   0.463
25029WAT      O75328   8.068   1.714   6.130
25029WAT     H175329   8.051   1.615   6.130
25029WAT     H275330   7.994   1.760   6.179
25030WAT      O75331   5.211   9.720   8.488
25030WAT     H175332   5.278   9.780   8.445
25030WAT     H275333   5.252   9.678   8.569
25031WAT      O75334   1.571   3.969   5.416
25031WAT     H175335   1.571   4.039   5.488
25031WAT     H275336   1.626   3.891   5.446
25032WAT      O75337   4.577   9.487   3.201
25032WAT     H175338   4.560   9.584   3.220
25032WAT     H275339   4.629   9.479   3.116
25033WAT      O75340   9.045   6.485   4.099
25033WAT     H175341   8.962   6.535   4.123
25033WAT     H275342   9.110   6.546   4.055
25034WAT      O75343   7.798   5.834   9.309
25034WAT     H175344   7.732   5.884   9.364
25034WAT     H275345   7.751   5.766   9.254
25035WAT      O75346   7.014   0.629   4.045
25035WAT     H175347   6.991   0.582   4.130
25035WAT     H275348   7.103   0.596   4.012
25036WAT      O75349   2.089   7.839   7.351
25036WAT     H175350   2.180   7.880   7.347
25036WAT     H275351   2.023   7.909   7.379
25037WAT      O75352   5.017   0.482   4.516
25037WAT     H175353   5.034   0.403   4.456
25037WAT     H275354   5.103   0.515   4.553
25038WAT      O75355   4.722   4.754   6.090
25038WAT     H175356   4.766   4.719   6.007
25038WAT     H275357   4.788   4.805   6.144
25039WAT      O75358   5.495   4.011   9.461
25039WAT     H175359   5.401   4.045   9.457
25039WAT     H275360   5.503   3.947   9.538
25040WAT      O75361   3.613   3.853   0.554
25040WAT     H175362   3.665   3.928   0.595
25040WAT     H275363   3.586   3.877   0.461
25041WAT      O75364   5.701   2.979   9.495
25041WAT     H175365   5.777   2.939   9.546
25041WAT     H275366   5.632   3.014   9.559
25042WAT      O75367   4.164   0.144   1.189
25042WAT     H175368   4.254   0.171   1.154
25042WAT     H275369   4.174   0.066   1.251
25043WAT      O75370   0.524   0.464   9.706
25043WAT     H175371   0.481   0.465   9.796
25043WAT     H275372   0.456   0.483   9.636
25044WAT      O75373   7.408   1.469   8.798
25044WAT     H175374   7.315   1.457   8.834
25044WAT     H275375   7.409   1.546   8.735
25045WAT      O75376   9.768   4.700   6.429
25045WAT     H175377   9.859   4.724   6.462
25045WAT     H275378   9.773   4.680   6.331
25046WAT      O75379   5.601   3.749   3.561
25046WAT     H175380   5.630   3.677   3.498
25046WAT     H275381   5.641   3.733   3.651
25047WAT      O75382   2.719   6.771   9.322
25047WAT     H175383   2.627   6.791   9.289
25047WAT     H275384   2.782   6.764   9.244
25048WAT      O75385   4.579   1.756   1.301
25048WAT     H175386   4.654   1.822   1.302
25048WAT     H275387   4.580   1.703   1.386
25049WAT      O75388   8.436   2.694   1.404
25049WAT     H175389   8.394   2.755   1.336
25049WAT     H275390   8.390   2.705   1.492
25050WAT      O75391   9.019   7.891   9.781
25050WAT     H175392   9.050   7.937   9.863
25050WAT     H275393   9.093   7.834   9.745
25051WAT      O75394   1.213   8.945   4.438
25051WAT     H175395   1.140   8.930   4.505
25051WAT     H275396   1.270   8.863   4.432
25052WAT      O75397   4.471   4.517   8.734
25052WAT     H175398   4.475   4.608   8.693
25052WAT     H275399   4.546   4.506   8.800
25053WAT      O75400   3.912   7.589   2.271
25053WAT     H175401   3.837   7.524   2.255
25053WAT     H275402   3.927   7.643   2.188
25054WAT      O75403   2.986   7.158   2.838
25054WAT     H175404   3.066   7.177   2.895
25054WAT     H275405   2.903   7.170   2.893
25055WAT      O75406   6.498   5.411   2.035
25055WAT     H175407   6.560   5.461   1.974
25055WAT     H275408   6.432   5.474   2.074
25056WAT      O75409   9.613   2.995   4.281
25056WAT     H175410   9.612   3.072   4.345
25056WAT     H275411   9.688   2.933   4.305
25057WAT      O75412   4.066   4.882   6.352
25057WAT     H175413   4.062   4.907   6.256
25057WAT     H275414   4.126   4.803   6.363
25058WAT      O75415   2.720   0.027   5.960
25058WAT     H175416   2.651   0.001   6.028
25058WAT     H275417   2.773   0.105   5.993
25059WAT      O75418   9.492   7.078   6.814
25059WAT     H175419   9.440   7.025   6.880
25059WAT     H275420   9.466   7.175   6.821
25060WAT      O75421   0.072   0.502   0.889
25060WAT     H175422   0.163   0.543   0.883
25060WAT     H275423   0.080   0.403   0.897
25061WAT      O75424   6.192   4.721   4.055
25061WAT     H175425   6.106   4.676   4.029
25061WAT     H275426   6.269   4.671   4.016
25062WAT      O75427   1.751   4.331   1.070
25062WAT     H175428   1.797   4.252   1.111
25062WAT     H275429   1.736   4.314   0.973
25063WAT      O75430   5.274   6.026   5.031
25063WAT     H175431   5.228   6.022   5.120
25063WAT     H275432   5.216   6.075   4.966
25064WAT      O75433   4.692   8.734   2.551
25064WAT     H175434   4.617   8.696   2.497
25064WAT     H275435   4.765   8.666   2.560
25065WAT      O75436   6.246   3.672   6.056
25065WAT     H175437   6.176   3.682   6.127
25065WAT     H275438   6.219   3.725   5.975
25066WAT      O75439   7.384   4.801   1.936
25066WAT     H175440   7.353   4.852   2.016
25066WAT     H275441   7.417   4.711   1.965
25067WAT      O75442   5.816   2.639   9.370
25067WAT     H175443   5.737   2.601   9.323
25067WAT     H275444   5.792   2.659   9.465
25068WAT      O75445   2.995   1.269   3.789
25068WAT     H175446   3.027   1.344   3.846
25068WAT     H275447   2.924   1.218   3.837
25069WAT      O75448   4.002   5.277   9.808
25069WAT     H175449   4.062   5.348   9.844
25069WAT     H275450   3.958   5.310   9.724
25070WAT      O75451   2.005   5.751   1.416
25070WAT     H175452   1.929   5.689   1.436
25070WAT     H275453   2.089   5.698   1.402
25071WAT      O75454   9.710   8.729   7.906
25071WAT     H175455   9.733   8.736   7.809
25071WAT     H275456   9.628   8.674   7.917
25072WAT      O75457   8.117   0.614   4.021
25072WAT     H175458   8.102   0.520   4.049
25072WAT     H275459   8.039   0.671   4.051
25073WAT      O75460   0.459   5.928   1.247
25073WAT     H175461   0.445   5.931   1.148
25073WAT     H275462   0.531   5.992   1.273
25074WAT      O75463   6.040   1.967   4.864
25074WAT     H175464   6.095   1.981   4.781
25074WAT     H275465   6.049   1.872   4.894
25075WAT      O75466   4.406   0.054   0.783
25075WAT     H175467   4.344   0.015   0.716
25075WAT     H275468   4.475  -0.014   0.809
25076WAT      O75469   1.593   0.497   6.363
25076WAT     H175470   1.682   0.542   6.366
25076WAT     H275471   1.591   0.431   6.287
25077WAT      O75472   5.763   5.660   0.211
25077WAT     H175473   5.715   5.748   0.217
25077WAT     H275474   5.854   5.669   0.252
25078WAT      O75475   2.163   8.349   5.187
25078WAT     H175476   2.220   8.364   5.106
25078WAT     H275477   2.175   8.256   5.220
25079WAT      O75478   5.846   3.145   1.634
25079WAT     H175479   5.860   3.231   1.585
25079WAT     H275480   5.846   3.162   1.733
25080WAT      O75481   4.164   4.626   4.696
25080WAT     H175482   4.160   4.706   4.755
25080WAT     H275483   4.132   4.546   4.747
25081WAT      O75484   8.292   2.793   8.660
25081WAT     H175485   8.311   2.869   8.722
25081WAT     H275486   8.291   2.827   8.566
25082WAT      O75487   3.748   3.107   5.595
25082WAT     H175488   3.649   3.107   5.606
25082WAT     H275489   3.772   3.157   5.512
25083WAT      O75490   5.163   1.110   0.473
25083WAT     H175491   5.243   1.170   0.463
25083WAT     H275492   5.132   1.112   0.568
25084WAT      O75493   2.096   1.096   7.301
25084WAT     H175494   2.108   1.024   7.369
25084WAT     H275495   2.068   1.054   7.214
25085WAT      O75496   7.446   4.540   0.379
25085WAT     H175497   7.354   4.526   0.343
25085WAT     H275498   7.512   4.492   0.322
25086WAT      O75499   7.535   1.200   4.012
25086WAT     H175500   7.489   1.199   3.924
25086WAT     H275501   7.632   1.180   4.000
25087WAT      O75502   5.728   6.538   0.342
25087WAT     H175503   5.822   6.542   0.376
25087WAT     H275504   5.720   6.462   0.278
25088WAT      O75505   4.970   5.614   1.352
25088WAT     H175506   5.004   5.584   1.263
25088WAT     H275507   4.954   5.534   1.410
25089WAT      O75508   8.604   7.911   3.014
25089WAT     H175509   8.636   7.823   2.977
25089WAT     H275510   8.596   7.904   3.113
25090WAT      O75511   6.532   2.492   1.344
25090WAT     H175512   6.608   2.483   1.409
25090WAT     H275513   6.533   2.583   1.304
25091WAT      O75514   1.549   8.953   5.072
25091WAT     H175515   1.555   8.903   4.985
25091WAT     H275516   1.607   8.909   5.140
25092WAT      O75517   7.701   9.271   9.100
25092WAT     H175518   7.667   9.180   9.122
25092WAT     H275519   7.771   9.265   9.029
25093WAT      O75520   3.522   0.678   2.438
25093WAT     H175521   3.571   0.603   2.394
25093WAT     H275522   3.506   0.751   2.372
25094WAT      O75523   8.537   6.228   8.182
25094WAT     H175524   8.528   6.149   8.122
25094WAT     H275525   8.473   6.220   8.258
25095WAT      O75526   6.063   3.444   9.120
25095WAT     H175527   6.095   3.527   9.166
25095WAT     H275528   5.982   3.465   9.065
25096WAT      O75529   6.045   6.878   3.658
25096WAT     H175530   5.964   6.836   3.617
25096WAT     H275531   6.019   6.922   3.744
25097WAT      O75532   5.813   4.210   0.235
25097WAT     H175533   5.863   4.274   0.177
25097WAT     H275534   5.763   4.145   0.177
25098WAT      O75535   9.250   3.664   8.897
25098WAT     H175536   9.208   3.747   8.935
25098WAT     H275537   9.240   3.589   8.963
25099WAT      O75538   4.462   3.763   4.173
25099WAT     H175539   4.512   3.795   4.253
25099WAT     H275540   4.466   3.663   4.169
25100WAT      O75541   0.971   3.189   8.531
25100WAT     H175542   0.965   3.237   8.443
25100WAT     H275543   0.970   3.090   8.515
25101WAT      O75544   4.916   2.087   0.912
25101WAT     H175545   4.836   2.146   0.904
25101WAT     H275546   4.887   1.991   0.910
25102WAT      O75547   8.235   4.905   6.103
25102WAT     H175548   8.274   4.862   6.022
25102WAT     H275549   8.213   4.835   6.171
25103WAT      O75550   1.391   6.990   0.894
25103WAT     H175551   1.371   7.073   0.946
25103WAT     H275552   1.431   7.016   0.805
25104WAT      O75553   1.358   3.474   8.732
25104WAT     H175554   1.292   3.466   8.657
25104WAT     H275555   1.311   3.458   8.819
25105WAT      O75556   7.001   2.472   0.766
25105WAT     H175557   7.087   2.426   0.786
25105WAT     H275558   6.946   2.476   0.849
25106WAT      O75559   8.104   0.411   9.892
25106WAT     H175560   8.130   0.456   9.806
25106WAT     H275561   8.005   0.399   9.895
25107WAT      O75562   0.766   4.831   7.365
25107WAT     H175563   0.865   4.823   7.377
25107WAT     H275564   0.727   4.741   7.349
25108WAT      O75565   5.434   9.062   8.419
25108WAT     H175566   5.525   9.101   8.436
25108WAT     H275567   5.431   8.968   8.453
25109WAT      O75568   6.893   2.908   0.296
25109WAT     H175569   6.819   2.842   0.300
25109WAT     H275570   6.877   2.972   0.221
25110WAT      O75571   6.117   8.189   3.765
25110WAT     H175572   6.085   8.253   3.834
25110WAT     H275573   6.072   8.209   3.678
25111WAT      O75574   8.439   0.032   5.383
25111WAT     H175575   8.507   0.024   5.456
25111WAT     H275576   8.360   0.084   5.416
25112WAT      O75577   0.386   9.316   6.716
25112WAT     H175578   0.441   9.266   6.650
25112WAT     H275579   0.445   9.374   6.772
25113WAT      O75580   9.627   7.656   7.401
25113WAT     H175581   9.596   7.665   7.496
25113WAT     H275582   9.653   7.745   7.365
25114WAT      O75583   6.792   2.230   2.966
25114WAT     H175584   6.834   2.266   3.049
25114WAT     H275585   6.715   2.288   2.940
25115WAT      O75586   4.184   8.184   3.965
25115WAT     H175587   4.178   8.280   3.935
25115WAT     H275588   4.179   8.180   4.065
25116WAT      O75589   7.536   0.629   2.938
25116WAT     H175590   7.447   0.663   2.969
25116WAT     H275591   7.522   0.549   2.880
25117WAT      O75592   3.013   9.024   8.582
25117WAT     H175593   2.957   9.095   8.625
25117WAT     H275594   3.045   9.056   8.493
25118WAT      O75595   6.538   2.685   8.712
25118WAT     H175596   6.548   2.783   8.698
25118WAT     H275597   6.521   2.640   8.624
25119WAT      O75598   7.501   2.931   5.908
25119WAT     H175599   7.468   2.844   5.870
25119WAT     H275600   7.441   2.958   5.983
25120WAT      O75601   2.779   1.975   0.211
25120WAT     H175602   2.775   2.065   0.255
25120WAT     H275603   2.686   1.941   0.197
25121WAT      O75604   6.527   6.344   3.138
25121WAT     H175605   6.541   6.291   3.221
25121WAT     H275606   6.615   6.378   3.104
25122WAT      O75607   3.941   2.953   7.204
25122WAT     H175608   3.888   2.869   7.202
25122WAT     H275609   3.887   3.027   7.165
25123WAT      O75610   8.104   5.101   6.229
25123WAT     H175611   8.117   5.019   6.174
25123WAT     H275612   8.036   5.082   6.301
25124WAT      O75613   7.452   9.724   3.674
25124WAT     H175614   7.535   9.776   3.695
25124WAT     H275615   7.388   9.731   3.751
25125WAT      O75616   4.077   6.443   5.045
25125WAT     H175617   4.161   6.406   5.005
25125WAT     H275618   4.053   6.529   5.001
25126WAT      O75619   7.207   4.678   2.548
25126WAT     H175620   7.194   4.774   2.575
25126WAT     H275621   7.159   4.619   2.613
25127WAT      O75622   0.139   7.740   8.917
25127WAT     H175623   0.058   7.768   8.864
25127WAT     H275624   0.197   7.682   8.860
25128WAT      O75625   4.015   4.587   0.338
25128WAT     H175626   4.101   4.636   0.350
25128WAT     H275627   3.975   4.568   0.428
25129WAT      O75628   5.368   1.326   3.691
25129WAT     H175629   5.290   1.372   3.650
25129WAT     H275630   5.382   1.237   3.647
25130WAT      O75631   2.537   7.388   9.479
25130WAT     H175632   2.529   7.326   9.401
25130WAT     H275633   2.525   7.337   9.564
25131WAT      O75634   7.539   4.874   6.695
25131WAT     H175635   7.486   4.934   6.636
25131WAT     H275636   7.486   4.791   6.714
25132WAT      O75637   9.859   0.093   1.044
25132WAT     H175638   9.813   0.035   0.977
25132WAT     H275639   9.790   0.145   1.095
25133WAT      O75640   7.310   4.778   1.084
25133WAT     H175641   7.244   4.760   1.157
25133WAT     H275642   7.386   4.832   1.120
25134WAT      O75643   5.217   9.110   2.169
25134WAT     H175644   5.157   9.112   2.089
25134WAT     H275645   5.163   9.088   2.250
25135WAT      O75646   7.000   9.455   4.530
25135WAT     H175647   6.939   9.387   4.572
25135WAT     H275648   7.076   9.407   4.486
25136WAT      O75649   0.569   3.670   0.103
25136WAT     H175650   0.544   3.757   0.061
25136WAT     H275651   0.664   3.648   0.081
25137WAT      O75652   1.792   0.940   6.322
25137WAT     H175653   1.879   0.916   6.365
25137WAT     H275654   1.738   0.857   6.309
25138WAT      O75655   6.044   1.678   4.184
25138WAT     H175656   6.040   1.721   4.094
25138WAT     H275657   5.959   1.626   4.200
25139WAT      O75658   2.378   5.489   6.962
25139WAT     H175659   2.398   5.542   6.879
25139WAT     H275660   2.362   5.552   7.038
25140WAT      O75661   7.237   2.126   8.235
25140WAT     H175662   7.173   2.061   8.275
25140WAT     H275663   7.189   2.210   8.211
25141WAT      O75664   3.908   2.062   1.232
25141WAT     H175665   3.934   2.061   1.329
25141WAT     H275666   3.830   2.001   1.219
25142WAT      O75667   4.151   2.435   5.913
25142WAT     H175668   4.112   2.404   5.826
25142WAT     H275669   4.194   2.524   5.901
25143WAT      O75670   8.319   9.472   1.804
25143WAT     H175671   8.251   9.545   1.803
25143WAT     H275672   8.305   9.412   1.726
25144WAT      O75673   2.394   0.045   5.046
25144WAT     H175674   2.310   0.097   5.063
25144WAT     H275675   2.462   0.067   5.116
25145WAT      O75676   2.735   2.385   0.714
25145WAT     H175677   2.650   2.356   0.757
25145WAT     H275678   2.812   2.335   0.754
25146WAT      O75679   9.164   7.512   5.894
25146WAT     H175680   9.089   7.579   5.903
25146WAT     H275681   9.239   7.538   5.955
25147WAT      O75682   1.993   1.874   5.315
25147WAT     H175683   1.938   1.863   5.232
25147WAT     H275684   2.064   1.803   5.318
25148WAT      O75685   2.093   1.215   4.927
25148WAT     H175686   2.033   1.266   4.866
25148WAT     H275687   2.072   1.239   5.022
25149WAT      O75688   1.373   1.329   5.457
25149WAT     H175689   1.273   1.325   5.450
25149WAT     H275690   1.408   1.403   5.399
25150WAT      O75691   0.992   9.328   7.154
25150WAT     H175692   1.049   9.409   7.144
25150WAT     H275693   0.959   9.321   7.249
25151WAT      O75694   9.285   3.543   9.500
25151WAT     H175695   9.318   3.595   9.579
25151WAT     H275696   9.356   3.477   9.472
25152WAT      O75697   4.258   5.652   0.607
25152WAT     H175698   4.175   5.621   0.652
25152WAT     H275699   4.244   5.655   0.509
25153WAT      O75700   6.842   0.838   2.635
25153WAT     H175701   6.875   0.771   2.568
25153WAT     H275702   6.749   0.814   2.663
25154WAT      O75703   1.555   6.017   0.822
25154WAT     H175704   1.652   6.038   0.822
25154WAT     H275705   1.541   5.921   0.799
25155WAT      O75706   7.016   4.160   5.330
25155WAT     H175707   7.009   4.094   5.255
25155WAT     H275708   6.994   4.116   5.417
25156WAT      O75709   5.067   2.217   3.888
25156WAT     H175710   5.142   2.172   3.840
25156WAT     H275711   5.103   2.265   3.968
25157WAT      O75712   6.003   1.306   3.640
25157WAT     H175713   6.013   1.291   3.738
25157WAT     H275714   6.009   1.404   3.620
25158WAT      O75715   7.545   9.564   8.332
25158WAT     H175716   7.552   9.502   8.254
25158WAT     H275717   7.543   9.511   8.416
25159WAT      O75718   9.510   1.841   2.574
25159WAT     H175719   9.422   1.814   2.612
25159WAT     H275720   9.501   1.929   2.528
25160WAT      O75721   0.558   7.796   5.268
25160WAT     H175722   0.613   7.713   5.258
25160WAT     H275723   0.576   7.858   5.192
25161WAT      O75724   5.049   9.312   9.385
25161WAT     H175725   5.067   9.369   9.465
25161WAT     H275726   4.966   9.344   9.339
25162WAT      O75727   4.730   0.089   8.564
25162WAT     H175728   4.635   0.074   8.594
25162WAT     H275729   4.783   0.005   8.578
25163WAT      O75730   1.092   7.381   9.636
25163WAT     H175731   1.093   7.330   9.550
25163WAT     H275732   1.122   7.321   9.710
25164WAT      O75733   4.553   3.446   5.685
25164WAT     H175734   4.507   3.413   5.603
25164WAT     H275735   4.485   3.479   5.751
25165WAT      O75736   6.534   2.106   9.330
25165WAT     H175737   6.612   2.146   9.282
25165WAT     H275738   6.485   2.044   9.268
25166WAT      O75739   6.839   6.693   6.106
25166WAT     H175740   6.868   6.714   6.199
25166WAT     H275741   6.741   6.673   6.105
25167WAT      O75742   5.946   4.978   8.051
25167WAT     H175743   5.937   5.040   8.129
25167WAT     H275744   5.991   4.893   8.081
25168WAT      O75745   4.186   8.077   2.667
25168WAT     H175746   4.106   8.103   2.612
25168WAT     H275747   4.160   8.072   2.763
25169WAT      O75748   3.062   9.677   6.622
25169WAT     H175749   2.978   9.629   6.598
25169WAT     H275750   3.062   9.698   6.720
25170WAT      O75751   5.598   0.314   9.481
25170WAT     H175752   5.681   0.338   9.532
25170WAT     H275753   5.548   0.244   9.532
25171WAT      O75754   7.898   1.228   0.276
25171WAT     H175755   7.916   1.218   0.374
25171WAT     H275756   7.973   1.278   0.234
25172WAT      O75757   5.666   0.669   5.620
25172WAT     H175758   5.755   0.701   5.652
25172WAT     H275759   5.593   0.719   5.667
25173WAT      O75760   9.514   6.639   3.212
25173WAT     H175761   9.486   6.561   3.267
25173WAT     H275762   9.567   6.702   3.268
25174WAT      O75763   9.164   8.373   7.214
25174WAT     H175764   9.188   8.308   7.287
25174WAT     H275765   9.091   8.433   7.246
25175WAT      O75766   2.262   5.742   9.487
25175WAT     H175767   2.237   5.679   9.413
25175WAT     H275768   2.246   5.699   9.575
25176WAT      O75769   4.276   7.506   4.661
25176WAT     H175770   4.192   7.465   4.625
25176WAT     H275771   4.343   7.434   4.681
25177WAT      O75772   1.451   4.910   9.023
25177WAT     H175773   1.445   4.940   9.118
25177WAT     H275774   1.410   4.819   9.014
25178WAT      O75775   4.880   8.961   3.429
25178WAT     H175776   4.809   9.021   3.465
25178WAT     H275777   4.879   8.874   3.478
25179WAT      O75778   5.510   8.699   2.650
25179WAT     H175779   5.610   8.704   2.651
25179WAT     H275780   5.480   8.658   2.564
25180WAT      O75781   8.982   2.615   9.268
25180WAT     H175782   8.983   2.515   9.272
25180WAT     H275783   8.922   2.644   9.193
25181WAT      O75784   2.985   2.949   4.902
25181WAT     H175785   2.969   2.991   4.992
25181WAT     H275786   3.067   2.892   4.907
25182WAT      O75787   0.076   2.819   1.709
25182WAT     H175788   0.029   2.899   1.671
25182WAT     H275789   0.136   2.780   1.639
25183WAT      O75790   0.872   1.123   6.260
25183WAT     H175791   0.856   1.164   6.170
25183WAT     H275792   0.934   1.045   6.251
25184WAT      O75793   5.382   8.525   9.885
25184WAT     H175794   5.399   8.616   9.847
25184WAT     H275795   5.301   8.528   9.944
25185WAT      O75796   9.306   9.361   6.337
25185WAT     H175797   9.397   9.399   6.318
25185WAT     H275798   9.306   9.320   6.428
25186WAT      O75799   6.976   9.318   9.074
25186WAT     H175800   6.947   9.222   9.075
25186WAT     H275801   6.930   9.368   9.147
25187WAT      O75802   7.239   1.700   2.254
25187WAT     H175803   7.201   1.778   2.303
25187WAT     H275804   7.172   1.626   2.251
25188WAT      O75805   8.543   7.630   1.741
25188WAT     H175806   8.615   7.565   1.767
25188WAT     H275807   8.553   7.714   1.794
25189WAT      O75808   5.333   5.674   7.219
25189WAT     H175809   5.432   5.659   7.213
25189WAT     H275810   5.301   5.646   7.309
25190WAT      O75811   5.378   5.070   6.614
25190WAT     H175812   5.409   5.110   6.701
25190WAT     H275813   5.379   5.140   6.543
25191WAT      O75814   7.756   2.353   8.582
25191WAT     H175815   7.709   2.267   8.600
25191WAT     H275816   7.762   2.368   8.484
25192WAT      O75817   9.435   8.771   2.767
25192WAT     H175818   9.400   8.771   2.674
25192WAT     H275819   9.470   8.861   2.790
25193WAT      O75820   5.985   9.224   4.592
25193WAT     H175821   5.950   9.160   4.661
25193WAT     H275822   6.061   9.181   4.543
25194WAT      O75823   1.244   3.757   5.523
25194WAT     H175824   1.181   3.691   5.564
25194WAT     H275825   1.315   3.781   5.589
25195WAT      O75826   4.357   4.081   4.357
25195WAT     H175827   4.427   4.100   4.426
25195WAT     H275828   4.301   4.004   4.385
25196WAT      O75829   8.233   7.258   8.527
25196WAT     H175830   8.135   7.272   8.539
25196WAT     H275831   8.283   7.335   8.565
25197WAT      O75832   5.094   2.828   0.792
25197WAT     H175833   5.051   2.795   0.876
25197WAT     H275834   5.087   2.927   0.788
25198WAT      O75835   5.303   6.370   0.494
25198WAT     H175836   5.340   6.410   0.577
25198WAT     H275837   5.227   6.425   0.461
25199WAT      O75838   6.887   2.581   5.460
25199WAT     H175839   6.843   2.499   5.496
25199WAT     H275840   6.830   2.620   5.387
25200WAT      O75841   7.460   9.623   7.959
25200WAT     H175842   7.457   9.552   8.029
25200WAT     H275843   7.545   9.675   7.967
25201WAT      O75844   0.628   1.990   7.455
25201WAT     H175845   0.592   2.055   7.521
25201WAT     H275846   0.681   2.038   7.385
25202WAT      O75847   3.755   1.849   8.815
25202WAT     H175848   3.695   1.909   8.867
25202WAT     H275849   3.741   1.863   8.717
25203WAT      O75850   5.672   8.926   2.416
25203WAT     H175851   5.608   8.850   2.406
25203WAT     H275852   5.630   9.009   2.379
25204WAT      O75853   2.126   9.323   6.975
25204WAT     H175854   2.103   9.244   6.919
25204WAT     H275855   2.053   9.391   6.970
25205WAT      O75856   4.968   0.329   2.497
25205WAT     H175857   4.914   0.266   2.553
25205WAT     H275858   4.907   0.384   2.440
25206WAT      O75859   9.439   8.803   1.361
25206WAT     H175860   9.363   8.784   1.423
25206WAT     H275861   9.510   8.734   1.374
25207WAT      O75862   1.370   9.400   0.712
25207WAT     H175863   1.454   9.431   0.755
25207WAT     H275864   1.296   9.399   0.779
25208WAT      O75865   1.825   2.527   7.102
25208WAT     H175866   1.840   2.625   7.119
25208WAT     H275867   1.877   2.500   7.021
25209WAT      O75868   7.726   4.236   3.661
25209WAT     H175869   7.818   4.243   3.698
25209WAT     H275870   7.681   4.155   3.699
25210WAT      O75871   4.570   7.207   8.093
25210WAT     H175872   4.572   7.144   8.016
25210WAT     H275873   4.479   7.209   8.133
25211WAT      O75874   4.753   0.699   5.099
25211WAT     H175875   4.815   0.776   5.109
25211WAT     H275876   4.806   0.615   5.086
25212WAT      O75877   6.153   3.016   9.104
25212WAT     H175878   6.064   2.971   9.115
25212WAT     H275879   6.160   3.053   9.011
25213WAT      O75880   6.332   5.625   1.078
25213WAT     H175881   6.366   5.544   1.125
25213WAT     H275882   6.298   5.598   0.988
25214WAT      O75883   4.620   6.199   2.398
25214WAT     H175884   4.530   6.236   2.376
25214WAT     H275885   4.611   6.103   2.424
25215WAT      O75886   2.838   0.150   6.359
25215WAT     H175887   2.841   0.229   6.298
25215WAT     H275888   2.824   0.180   6.453
25216WAT      O75889   3.061   2.112   4.788
25216WAT     H175890   3.055   2.052   4.709
25216WAT     H275891   3.089   2.059   4.868
25217WAT      O75892   0.499   5.795   8.571
25217WAT     H175893   0.535   5.885   8.596
25217WAT     H275894   0.483   5.793   8.472
25218WAT      O75895   3.660   3.396   0.010
25218WAT     H175896   3.626   3.379  -0.083
25218WAT     H275897   3.757   3.419   0.007
25219WAT      O75898   1.882   4.185   1.720
25219WAT     H175899   1.842   4.254   1.660
25219WAT     H275900   1.859   4.207   1.815
25220WAT      O75901   9.215   3.469   0.851
25220WAT     H175902   9.256   3.546   0.802
25220WAT     H275903   9.285   3.398   0.865
25221WAT      O75904   8.020   8.634   4.463
25221WAT     H175905   8.025   8.728   4.498
25221WAT     H275906   8.112   8.603   4.438
25222WAT      O75907   8.753   9.438   4.084
25222WAT     H175908   8.751   9.394   3.994
25222WAT     H275909   8.797   9.378   4.150
25223WAT      O75910   6.501   0.217   2.271
25223WAT     H175911   6.414   0.169   2.277
25223WAT     H275912   6.576   0.151   2.274
25224WAT      O75913   3.461   8.300   4.712
25224WAT     H175914   3.365   8.305   4.741
25224WAT     H275915   3.477   8.367   4.639
25225WAT      O75916   0.070   8.530   7.601
25225WAT     H175917   0.030   8.613   7.563
25225WAT     H275918   0.159   8.513   7.557
25226WAT      O75919   6.841   9.260   4.587
25226WAT     H175920   6.838   9.186   4.521
25226WAT     H275921   6.754   9.310   4.584
25227WAT      O75922   1.771   5.697   8.182
25227WAT     H175923   1.756   5.796   8.174
25227WAT     H275924   1.828   5.666   8.106
25228WAT      O75925   9.298   1.605   0.732
25228WAT     H175926   9.390   1.637   0.707
25228WAT     H275927   9.305   1.517   0.779
25229WAT      O75928   6.818   7.892   0.771
25229WAT     H175929   6.763   7.907   0.853
25229WAT     H275930   6.760   7.856   0.698
25230WAT      O75931   6.885   5.267   2.987
25230WAT     H175932   6.785   5.271   2.981
25230WAT     H275933   6.913   5.280   3.082
25231WAT      O75934   3.593   0.896   7.071
25231WAT     H175935   3.494   0.906   7.076
25231WAT     H275936   3.630   0.883   7.163
25232WAT      O75937   4.364   5.212   1.062
25232WAT     H175938   4.308   5.268   1.001
25232WAT     H275939   4.461   5.227   1.043
25233WAT      O75940   0.324   0.845   3.239
25233WAT     H175941   0.258   0.915   3.211
25233WAT     H275942   0.393   0.887   3.299
25234WAT      O75943   7.087   4.130   0.923
25234WAT     H175944   7.054   4.039   0.948
25234WAT     H275945   7.010   4.193   0.919
25235WAT      O75946   7.409   6.142   9.561
25235WAT     H175947   7.431   6.240   9.561
25235WAT     H275948   7.455   6.098   9.639
25236WAT      O75949   1.522   3.638   7.765
25236WAT     H175950   1.496   3.544   7.785
25236WAT     H275951   1.472   3.701   7.825
25237WAT      O75952   3.876   3.039   1.180
25237WAT     H175953   3.922   2.961   1.136
25237WAT     H275954   3.828   3.007   1.262
25238WAT      O75955   3.950   8.088   8.018
25238WAT     H175956   3.942   8.095   7.918
25238WAT     H275957   4.016   8.156   8.051
25239WAT      O75958   7.195   2.480   5.321
25239WAT     H175959   7.134   2.433   5.385
25239WAT     H275960   7.157   2.476   5.229
25240WAT      O75961   6.720   2.491   8.553
25240WAT     H175962   6.672   2.453   8.632
25240WAT     H275963   6.745   2.586   8.572
25241WAT      O75964   3.999   5.083   5.264
25241WAT     H175965   4.009   4.989   5.231
25241WAT     H275966   3.921   5.088   5.326
25242WAT      O75967   1.649   9.573   8.557
25242WAT     H175968   1.703   9.514   8.496
25242WAT     H275969   1.552   9.560   8.537
25243WAT      O75970   7.641   0.179   1.714
25243WAT     H175971   7.580   0.101   1.703
25243WAT     H275972   7.596   0.249   1.770
25244WAT      O75973   8.015   0.837   4.961
25244WAT     H175974   7.945   0.803   5.025
25244WAT     H275975   8.106   0.823   5.002
25245WAT      O75976   4.714   4.822   8.523
25245WAT     H175977   4.620   4.799   8.549
25245WAT     H275978   4.714   4.875   8.438
25246WAT      O75979   7.456   1.598   6.820
25246WAT     H175980   7.411   1.552   6.744
25246WAT     H275981   7.543   1.553   6.841
25247WAT      O75982   9.226   6.805   2.594
25247WAT     H175983   9.292   6.831   2.524
25247WAT     H275984   9.263   6.731   2.650
25248WAT      O75985   2.939   6.720   9.168
25248WAT     H175986   2.916   6.629   9.133
25248WAT     H275987   2.979   6.712   9.260
25249WAT      O75988   0.461   8.324   1.674
25249WAT     H175989   0.382   8.384   1.683
25249WAT     H275990   0.463   8.285   1.582
25250WAT      O75991   0.328   4.479   9.762
25250WAT     H175992   0.424   4.489   9.737
25250WAT     H275993   0.290   4.569   9.786
25251WAT      O75994   6.417   2.532   7.255
25251WAT     H175995   6.321   2.558   7.242
25251WAT     H275996   6.421   2.451   7.314
25252WAT      O75997   0.792   7.076   6.222
25252WAT     H175998   0.862   7.111   6.283
25252WAT     H275999   0.745   6.999   6.265
25253WAT      O76000   9.316   6.556   0.046
25253WAT     H176001   9.288   6.626  -0.019
25253WAT     H276002   9.239   6.533   0.106
25254WAT      O76003   6.763   8.602   3.916
25254WAT     H176004   6.745   8.673   3.984
25254WAT     H276005   6.732   8.514   3.951
25255WAT      O76006   5.796   9.764   8.024
25255WAT     H176007   5.874   9.732   7.970
25255WAT     H276008   5.792   9.715   8.111
25256WAT      O76009   9.781   5.126   1.136
25256WAT     H176010   9.740   5.076   1.213
25256WAT     H276011   9.732   5.212   1.123
25257WAT      O76012   0.103   0.231   3.366
25257WAT     H176013   0.036   0.229   3.440
25257WAT     H276014   0.191   0.198   3.400
25258WAT      O76015   8.423   4.220   9.077
25258WAT     H176016   8.439   4.149   9.008
25258WAT     H276017   8.432   4.310   9.035
25259WAT      O76018   2.891   2.650   0.210
25259WAT     H176019   2.853   2.730   0.162
25259WAT     H276020   2.846   2.640   0.299
25260WAT      O76021   0.651   6.654   2.656
25260WAT     H176022   0.637   6.706   2.572
25260WAT     H276023   0.735   6.686   2.701
25261WAT      O76024   8.393   9.264   1.957
25261WAT     H176025   8.357   9.338   1.900
25261WAT     H276026   8.492   9.269   1.960
25262WAT      O76027   3.424   3.902   9.639
25262WAT     H176028   3.349   3.940   9.585
25262WAT     H276029   3.420   3.938   9.732
25263WAT      O76030   0.930   5.661   8.281
25263WAT     H176031   0.894   5.605   8.356
25263WAT     H276032   0.890   5.753   8.286
25264WAT      O76033   8.852   2.344   4.163
25264WAT     H176034   8.904   2.376   4.243
25264WAT     H276035   8.832   2.247   4.174
25265WAT      O76036   3.360   1.654   2.206
25265WAT     H176037   3.270   1.626   2.175
25265WAT     H276038   3.423   1.577   2.201
25266WAT      O76039   4.368   1.088   2.193
25266WAT     H176040   4.421   1.173   2.185
25266WAT     H276041   4.335   1.079   2.287
25267WAT      O76042   2.396   1.263   5.575
25267WAT     H176043   2.300   1.279   5.596
25267WAT     H276044   2.448   1.347   5.592
25268WAT      O76045   1.695   4.248   4.713
25268WAT     H176046   1.637   4.193   4.772
25268WAT     H276047   1.718   4.334   4.759
25269WAT      O76048   6.341   3.112   0.239
25269WAT     H176049   6.351   3.212   0.246
25269WAT     H276050   6.298   3.089   0.151
25270WAT      O76051   9.784   1.065   7.712
25270WAT     H176052   9.863   1.017   7.750
25270WAT     H276053   9.811   1.157   7.683
25271WAT      O76054   7.019   2.093   8.836
25271WAT     H176055   7.056   2.146   8.913
25271WAT     H276056   6.934   2.048   8.865
25272WAT      O76057   4.018   9.491   5.158
25272WAT     H176058   4.069   9.526   5.237
25272WAT     H276059   4.069   9.513   5.074
25273WAT      O76060   1.627   6.710   7.913
25273WAT     H176061   1.622   6.802   7.951
25273WAT     H276062   1.569   6.704   7.832
25274WAT      O76063   0.707   8.608   1.467
25274WAT     H176064   0.695   8.545   1.544
25274WAT     H276065   0.623   8.659   1.452
25275WAT      O76066   5.969   0.673   5.395
25275WAT     H176067   6.052   0.618   5.388
25275WAT     H276068   5.946   0.687   5.492
25276WAT      O76069   4.608   7.194   3.733
25276WAT     H176070   4.639   7.139   3.655
25276WAT     H276071   4.522   7.240   3.710
25277WAT      O76072   5.975   5.320   0.147
25277WAT     H176073   5.882   5.351   0.127
25277WAT     H276074   6.039   5.395   0.133
25278WAT      O76075   4.390   5.559   3.206
25278WAT     H176076   4.391   5.468   3.163
25278WAT     H276077   4.376   5.549   3.304
25279WAT      O76078   8.759   6.541   4.610
25279WAT     H176079   8.716   6.631   4.603
25279WAT     H276080   8.858   6.552   4.617
25280WAT      O76081   2.474   8.893   4.207
25280WAT     H176082   2.495   8.908   4.110
25280WAT     H276083   2.560   8.879   4.257
25281WAT      O76084   8.767   9.527   5.739
25281WAT     H176085   8.764   9.616   5.695
25281WAT     H276086   8.681   9.509   5.785
25282WAT      O76087   8.088   3.595   8.716
25282WAT     H176088   7.994   3.617   8.688
25282WAT     H276089   8.086   3.539   8.799
25283WAT      O76090   6.108   7.795   4.370
25283WAT     H176091   6.108   7.706   4.415
25283WAT     H276092   6.186   7.849   4.402
25284WAT      O76093   7.433   1.839   6.437
25284WAT     H176094   7.406   1.934   6.421
25284WAT     H276095   7.499   1.836   6.512
25285WAT      O76096   4.403   7.759   3.418
25285WAT     H176097   4.336   7.833   3.426
25285WAT     H276098   4.455   7.770   3.333
25286WAT      O76099   9.685   2.020   9.411
25286WAT     H176100   9.652   1.944   9.355
25286WAT     H276101   9.681   2.105   9.358
25287WAT      O76102   2.906   9.691   6.914
25287WAT     H176103   2.914   9.591   6.916
25287WAT     H276104   2.966   9.731   6.983
25288WAT      O76105   7.549   2.721   5.030
25288WAT     H176106   7.460   2.741   5.072
25288WAT     H276107   7.543   2.634   4.981
25289WAT      O76108   4.378   8.404   1.248
25289WAT     H176109   4.414   8.450   1.329
25289WAT     H276110   4.455   8.368   1.194
25290WAT      O76111   8.657   0.743   0.597
25290WAT     H176112   8.566   0.749   0.556
25290WAT     H276113   8.720   0.701   0.531
25291WAT      O76114   4.466   2.222   6.223
25291WAT     H176115   4.531   2.157   6.260
25291WAT     H276116   4.377   2.210   6.267
25292WAT      O76117   6.175   9.010   6.099
25292WAT     H176118   6.224   8.954   6.166
25292WAT     H276119   6.205   9.105   6.108
25293WAT      O76120   3.534   7.329   6.890
25293WAT     H176121   3.567   7.326   6.984
25293WAT     H276122   3.445   7.375   6.887
25294WAT      O76123   5.339   2.347   8.459
25294WAT     H176124   5.437   2.341   8.442
25294WAT     H276125   5.320   2.423   8.521
25295WAT      O76126   7.000   8.996   1.026
25295WAT     H176127   7.098   9.005   1.014
25295WAT     H276128   6.961   8.945   0.949
25296WAT      O76129   7.858   5.841   7.897
25296WAT     H176130   7.937   5.790   7.862
25296WAT     H276131   7.867   5.852   7.996
25297WAT      O76132   6.566   3.325   8.215
25297WAT     H176133   6.494   3.304   8.281
25297WAT     H276134   6.653   3.334   8.262
25298WAT      O76135   3.263   2.871   4.956
25298WAT     H176136   3.296   2.827   5.039
25298WAT     H276137   3.303   2.827   4.876
25299WAT      O76138   9.842   7.132   4.084
25299WAT     H176139   9.891   7.209   4.044
25299WAT     H276140   9.841   7.056   4.018
25300WAT      O76141   3.133   4.003   5.486
25300WAT     H176142   3.207   3.940   5.461
25300WAT     H276143   3.150   4.092   5.443
25301WAT      O76144   5.999   1.653   0.880
25301WAT     H176145   5.985   1.557   0.858
25301WAT     H276146   5.984   1.709   0.798
25302WAT      O76147   7.373   2.034   0.379
25302WAT     H176148   7.436   1.958   0.362
25302WAT     H276149   7.356   2.042   0.477
25303WAT      O76150   3.332   6.629   3.671
25303WAT     H176151   3.354   6.711   3.618
25303WAT     H276152   3.372   6.549   3.626
25304WAT      O76153   4.191   9.181   1.781
25304WAT     H176154   4.153   9.235   1.706
25304WAT     H276155   4.285   9.156   1.760
25305WAT      O76156   3.135   7.190   5.614
25305WAT     H176157   3.230   7.185   5.583
25305WAT     H276158   3.095   7.278   5.585
25306WAT      O76159   4.653   2.910   7.786
25306WAT     H176160   4.564   2.925   7.743
25306WAT     H276161   4.725   2.912   7.717
25307WAT      O76162   1.614   8.869   6.837
25307WAT     H176163   1.622   8.821   6.750
25307WAT     H276164   1.704   8.904   6.864
25308WAT      O76165   4.676   4.486   9.499
25308WAT     H176166   4.652   4.440   9.585
25308WAT     H276167   4.771   4.462   9.475
25309WAT      O76168   3.010   8.972   6.562
25309WAT     H176169   2.915   8.992   6.587
25309WAT     H276170   3.040   9.034   6.490
25310WAT      O76171   6.946   1.680   9.010
25310WAT     H176172   6.894   1.677   9.096
25310WAT     H276173   6.883   1.685   8.933
25311WAT      O76174   6.466   1.133   0.041
25311WAT     H176175   6.557   1.153   0.006
25311WAT     H276176   6.407   1.104  -0.035
25312WAT      O76177   6.859   7.661   7.871
25312WAT     H176178   6.811   7.617   7.946
25312WAT     H276179   6.919   7.732   7.906
25313WAT      O76180   8.428   0.093   6.048
25313WAT     H176181   8.370   0.016   6.072
25313WAT     H276182   8.520   0.079   6.084
25314WAT      O76183   0.499   3.292   6.612
25314WAT     H176184   0.592   3.297   6.575
25314WAT     H276185   0.479   3.198   6.638
25315WAT      O76186   0.774   8.304   7.102
25315WAT     H176187   0.713   8.314   7.023
25315WAT     H276188   0.731   8.345   7.182
25316WAT      O76189   3.735   2.775   0.387
25316WAT     H176190   3.679   2.858   0.390
25316WAT     H276191   3.733   2.729   0.475
25317WAT      O76192   6.139   8.586   1.117
25317WAT     H176193   6.213   8.624   1.061
25317WAT     H276194   6.152   8.611   1.212
25318WAT      O76195   1.435   9.159   6.994
25318WAT     H176196   1.515   9.215   7.013
25318WAT     H276197   1.452   9.065   7.023
25319WAT      O76198   2.584   6.073   8.691
25319WAT     H176199   2.568   5.996   8.629
25319WAT     H276200   2.644   6.044   8.765
25320WAT      O76201   7.133   5.385   3.342
25320WAT     H176202   7.067   5.339   3.401
25320WAT     H276203   7.196   5.438   3.398
25321WAT      O76204   1.048   4.977   2.823
25321WAT     H176205   1.016   5.061   2.867
25321WAT     H276206   0.983   4.903   2.841
25322WAT      O76207   5.613   3.508   3.111
25322WAT     H176208   5.613   3.409   3.099
25322WAT     H276209   5.545   3.549   3.050
25323WAT      O76210   6.201   9.812   7.729
25323WAT     H176211   6.166   9.896   7.771
25323WAT     H276212   6.223   9.829   7.633
25324WAT      O76213   4.615   0.833   5.327
25324WAT     H176214   4.676   0.900   5.368
25324WAT     H276215   4.657   0.742   5.332
25325WAT      O76216   8.993   2.462   6.243
25325WAT     H176217   8.969   2.524   6.318
25325WAT     H276218   8.992   2.368   6.276
25326WAT      O76219   7.722   5.465   3.412
25326WAT     H176220   7.755   5.559   3.403
25326WAT     H276221   7.800   5.403   3.428
25327WAT      O76222   6.682   0.796   7.197
25327WAT     H176223   6.709   0.758   7.109
25327WAT     H276224   6.597   0.847   7.187
25328WAT      O76225   5.380   6.830   2.901
25328WAT     H176226   5.348   6.912   2.856
25328WAT     H276227   5.365   6.751   2.842
25329WAT      O76228   6.972   3.210   9.681
25329WAT     H176229   7.014   3.205   9.772
25329WAT     H276230   6.873   3.201   9.690
25330WAT      O76231   5.456   8.288   9.747
25330WAT     H176232   5.459   8.322   9.653
25330WAT     H276233   5.403   8.351   9.804
25331WAT      O76234   1.273   1.604   0.806
25331WAT     H176235   1.192   1.559   0.844
25331WAT     H276236   1.355   1.551   0.828
25332WAT      O76237   6.266   6.763   8.975
25332WAT     H176238   6.254   6.666   8.953
25332WAT     H276239   6.189   6.815   8.938
25333WAT      O76240   2.510   7.230   4.277
25333WAT     H176241   2.482   7.156   4.218
25333WAT     H276242   2.560   7.299   4.224
25334WAT      O76243   9.480   6.128   9.116
25334WAT     H176244   9.475   6.054   9.048
25334WAT     H276245   9.423   6.205   9.085
25335WAT      O76246   9.224   0.410   7.880
25335WAT     H176247   9.300   0.356   7.844
25335WAT     H276248   9.139   0.378   7.840
25336WAT      O76249   0.148   1.373   4.571
25336WAT     H176250   0.244   1.373   4.599
25336WAT     H276251   0.109   1.464   4.588
25337WAT      O76252   1.966   7.763   1.550
25337WAT     H176253   1.876   7.806   1.550
25337WAT     H276254   2.002   7.763   1.644
25338WAT      O76255   1.286   7.201   3.914
25338WAT     H176256   1.384   7.202   3.896
25338WAT     H276257   1.246   7.288   3.883
25339WAT      O76258   6.004   5.697   0.317
25339WAT     H176259   6.095   5.697   0.275
25339WAT     H276260   5.997   5.772   0.383
25340WAT      O76261   9.833   3.513   7.139
25340WAT     H176262   9.769   3.563   7.080
25340WAT     H276263   9.924   3.555   7.133
25341WAT      O76264   7.314   7.260   5.920
25341WAT     H176265   7.214   7.268   5.915
25341WAT     H276266   7.355   7.330   5.861
25342WAT      O76267   2.545   1.524   0.913
25342WAT     H176268   2.612   1.598   0.904
25342WAT     H276269   2.505   1.527   1.005
25343WAT      O76270   5.558   3.071   0.054
25343WAT     H176271   5.584   2.982   0.018
25343WAT     H276272   5.639   3.129   0.063
25344WAT      O76273   6.480   5.064   6.499
25344WAT     H176274   6.402   5.069   6.437
25344WAT     H276275   6.543   4.994   6.468
25345WAT      O76276   2.332   2.734   0.797
25345WAT     H176277   2.418   2.688   0.818
25345WAT     H276278   2.332   2.825   0.838
25346WAT      O76279   9.091   2.451   7.807
25346WAT     H176280   9.076   2.364   7.854
25346WAT     H276281   9.061   2.526   7.865
25347WAT      O76282   9.010   3.905   0.895
25347WAT     H176283   9.048   3.916   0.803
25347WAT     H276284   9.073   3.850   0.951
25348WAT      O76285   9.012   7.494   6.742
25348WAT     H176286   8.926   7.451   6.769
25348WAT     H276287   8.997   7.550   6.660
25349WAT      O76288   3.010   5.138   3.165
25349WAT     H176289   3.043   5.228   3.191
25349WAT     H276290   2.945   5.105   3.233
25350WAT      O76291   1.779   4.116   3.007
25350WAT     H176292   1.705   4.182   3.020
25350WAT     H276293   1.806   4.115   2.910
25351WAT      O76294   3.132   5.011   7.401
25351WAT     H176295   3.142   4.943   7.473
25351WAT     H276296   3.120   5.101   7.441
25352WAT      O76297   2.358   5.959   8.299
25352WAT     H176298   2.408   5.946   8.214
25352WAT     H276299   2.281   6.021   8.284
25353WAT      O76300   5.595   8.830   8.808
25353WAT     H176301   5.680   8.814   8.757
25353WAT     H276302   5.575   8.928   8.808
25354WAT      O76303   0.716   4.602   4.919
25354WAT     H176304   0.732   4.663   4.997
25354WAT     H276305   0.650   4.645   4.856
25355WAT      O76306   4.904   7.480   6.115
25355WAT     H176307   4.820   7.428   6.129
25355WAT     H276308   4.893   7.572   6.153
25356WAT      O76309   5.777   6.931   6.860
25356WAT     H176310   5.762   7.007   6.922
25356WAT     H276311   5.695   6.918   6.803
25357WAT      O76312   9.410   7.295   6.255
25357WAT     H176313   9.498   7.263   6.218
25357WAT     H276314   9.407   7.278   6.353
25358WAT      O76315   7.013   6.034   2.781
25358WAT     H176316   7.055   5.956   2.736
25358WAT     H276317   6.915   6.035   2.760
25359WAT      O76318   7.390   6.507   9.300
25359WAT     H176319   7.330   6.428   9.300
25359WAT     H276320   7.337   6.590   9.285
25360WAT      O76321   8.284   6.424   5.035
25360WAT     H176322   8.278   6.491   4.961
25360WAT     H276323   8.296   6.471   5.122
25361WAT      O76324   2.184   0.518   2.439
25361WAT     H176325   2.245   0.492   2.514
25361WAT     H276326   2.204   0.462   2.359
25362WAT      O76327   6.766   8.976   5.821
25362WAT     H176328   6.698   9.030   5.773
25362WAT     H276329   6.850   9.030   5.832
25363WAT      O76330   0.340   8.629   0.300
25363WAT     H176331   0.361   8.552   0.239
25363WAT     H276332   0.415   8.641   0.365
25364WAT      O76333   3.884   2.216   2.058
25364WAT     H176334   3.805   2.188   2.005
25364WAT     H276335   3.854   2.271   2.136
25365WAT      O76336   1.402   0.145   6.893
25365WAT     H176337   1.426   0.233   6.852
25365WAT     H276338   1.303   0.136   6.898
25366WAT      O76339   7.041   5.519   9.863
25366WAT     H176340   7.087   5.456   9.924
25366WAT     H276341   7.105   5.591   9.835
25367WAT      O76342   6.479   6.800   5.757
25367WAT     H176343   6.382   6.798   5.783
25367WAT     H276344   6.535   6.794   5.840
25368WAT      O76345   8.126   1.449   8.763
25368WAT     H176346   8.075   1.437   8.678
25368WAT     H276347   8.071   1.499   8.829
25369WAT      O76348   6.719   7.110   7.441
25369WAT     H176349   6.678   7.198   7.462
25369WAT     H276350   6.817   7.114   7.458
25370WAT      O76351   5.286   1.978   1.877
25370WAT     H176352   5.335   2.056   1.917
25370WAT     H276353   5.210   1.953   1.936
25371WAT      O76354   0.371   2.338   8.471
25371WAT     H176355   0.467   2.337   8.442
25371WAT     H276356   0.326   2.419   8.434
25372WAT      O76357   1.311   5.929   8.787
25372WAT     H176358   1.226   5.878   8.782
25372WAT     H276359   1.298   6.011   8.843
25373WAT      O76360   0.172   4.944   0.086
25373WAT     H176361   0.169   4.974   0.182
25373WAT     H276362   0.199   5.022   0.029
25374WAT      O76363   6.290   4.826   4.346
25374WAT     H176364   6.192   4.826   4.331
25374WAT     H276365   6.327   4.735   4.330
25375WAT      O76366   7.448   1.789   7.015
25375WAT     H176367   7.536   1.764   7.055
25375WAT     H276368   7.418   1.718   6.951
25376WAT      O76369   0.038   5.751   0.101
25376WAT     H176370  -0.047   5.804   0.104
25376WAT     H276371   0.033   5.677   0.167
25377WAT      O76372   9.385   2.142   4.082
25377WAT     H176373   9.355   2.094   4.165
25377WAT     H276374   9.314   2.207   4.054
25378WAT      O76375   7.215   6.274   4.402
25378WAT     H176376   7.189   6.271   4.499
25378WAT     H276377   7.143   6.232   4.347
25379WAT      O76378   3.299   4.919   6.951
25379WAT     H176379   3.253   4.901   6.864
25379WAT     H276380   3.236   4.903   7.027
25380WAT      O76381   0.748   2.467   3.465
25380WAT     H176382   0.844   2.442   3.467
25380WAT     H276383   0.692   2.387   3.486
25381WAT      O76384   3.643   3.281   4.704
25381WAT     H176385   3.615   3.300   4.798
25381WAT     H276386   3.724   3.336   4.683
25382WAT      O76387   9.160   6.266   1.821
25382WAT     H176388   9.231   6.332   1.846
25382WAT     H276389   9.070   6.304   1.843
25383WAT      O76390   2.370   1.528   6.979
25383WAT     H176391   2.300   1.572   7.034
25383WAT     H276392   2.326   1.468   6.911
25384WAT      O76393   3.613   5.774   5.109
25384WAT     H176394   3.573   5.759   5.199
25384WAT     H276395   3.689   5.839   5.117
25385WAT      O76396   1.006   3.759   6.820
25385WAT     H176397   1.016   3.744   6.919
25385WAT     H276398   1.054   3.843   6.794
25386WAT      O76399   5.169   0.456   3.358
25386WAT     H176400   5.138   0.550   3.373
25386WAT     H276401   5.263   0.446   3.392
25387WAT      O76402   3.712   6.672   8.982
25387WAT     H176403   3.779   6.645   8.914
25387WAT     H276404   3.757   6.682   9.071
25388WAT      O76405   2.065   1.758   0.062
25388WAT     H176406   2.026   1.739   0.152
25388WAT     H276407   1.994   1.793   0.001
25389WAT      O76408   8.801   5.646   0.374
25389WAT     H176409   8.794   5.713   0.448
25389WAT     H276410   8.789   5.554   0.411
25390WAT      O76411   1.882   1.669   1.376
25390WAT     H176412   1.838   1.752   1.411
25390WAT     H276413   1.890   1.676   1.276
25391WAT      O76414   6.051   8.864   5.815
25391WAT     H176415   6.046   8.957   5.779
25391WAT     H276416   6.019   8.864   5.910
25392WAT      O76417   3.799   3.983   4.149
25392WAT     H176418   3.763   4.042   4.077
25392WAT     H276419   3.895   4.006   4.166
25393WAT      O76420   8.942   8.611   1.592
25393WAT     H176421   8.954   8.666   1.510
25393WAT     H276422   8.963   8.515   1.571
25394WAT      O76423   5.796   7.032   5.400
25394WAT     H176424   5.889   7.018   5.368
25394WAT     H276425   5.735   7.046   5.321
25395WAT      O76426   0.378   0.794   1.236
25395WAT     H176427   0.441   0.858   1.279
25395WAT     H276428   0.343   0.834   1.152
25396WAT      O76429   5.465   0.952   2.284
25396WAT     H176430   5.471   0.996   2.374
25396WAT     H276431   5.556   0.927   2.253
25397WAT      O76432   8.282   1.832   3.781
25397WAT     H176433   8.296   1.776   3.862
25397WAT     H276434   8.207   1.896   3.796
25398WAT      O76435   5.832   1.168   0.050
25398WAT     H176436   5.798   1.104   0.119
25398WAT     H276437   5.774   1.166  -0.031
25399WAT      O76438   8.761   7.970   5.349
25399WAT     H176439   8.847   8.004   5.312
25399WAT     H276440   8.691   8.042   5.343
25400WAT      O76441   3.106   2.564   9.268
25400WAT     H176442   3.205   2.552   9.261
25400WAT     H276443   3.086   2.651   9.313
25401WAT      O76444   9.834   9.333   6.298
25401WAT     H176445   9.812   9.354   6.393
25401WAT     H276446   9.933   9.343   6.284
25402WAT      O76447   2.316   1.450   2.951
25402WAT     H176448   2.296   1.352   2.942
25402WAT     H276449   2.374   1.465   3.031
25403WAT      O76450   2.436   7.727   8.239
25403WAT     H176451   2.374   7.748   8.315
25403WAT     H276452   2.477   7.637   8.254
25404WAT      O76453   5.572   3.706   8.587
25404WAT     H176454   5.473   3.717   8.578
25404WAT     H276455   5.593   3.673   8.679
25405WAT      O76456   0.112   4.570   8.214
25405WAT     H176457   0.177   4.534   8.147
25405WAT     H276458   0.163   4.614   8.289
25406WAT      O76459   4.204   2.046   8.958
25406WAT     H176460   4.278   1.992   8.999
25406WAT     H276461   4.116   2.010   8.987
25407WAT      O76462   0.239   6.602   6.846
25407WAT     H176463   0.292   6.532   6.797
25407WAT     H276464   0.275   6.693   6.823
25408WAT      O76465   9.466   5.090   4.623
25408WAT     H176466   9.465   5.052   4.716
25408WAT     H276467   9.382   5.140   4.606
25409WAT      O76468   1.496   3.280   7.957
25409WAT     H176469   1.469   3.295   8.052
25409WAT     H276470   1.501   3.182   7.938
25410WAT      O76471   1.373   6.422   1.163
25410WAT     H176472   1.393   6.365   1.082
25410WAT     H276473   1.455   6.472   1.189
25411WAT      O76474   6.335   3.783   3.442
25411WAT     H176475   6.308   3.712   3.377
25411WAT     H276476   6.376   3.741   3.522
25412WAT      O76477   3.863   7.192   5.850
25412WAT     H176478   3.962   7.179   5.861
25412WAT     H276479   3.823   7.211   5.940
25413WAT      O76480   9.257   0.069   6.948
25413WAT     H176481   9.277   0.148   7.006
25413WAT     H276482   9.306   0.078   6.862
25414WAT      O76483   9.043   9.715   7.258
25414WAT     H176484   9.014   9.718   7.162
25414WAT     H276485   9.136   9.751   7.265
25415WAT      O76486   8.557   5.028   5.460
25415WAT     H176487   8.524   5.097   5.525
25415WAT     H276488   8.622   5.069   5.397
25416WAT      O76489   9.229   5.212   8.944
25416WAT     H176490   9.314   5.264   8.931
25416WAT     H276491   9.161   5.270   8.989
25417WAT      O76492   0.956   9.800   2.295
25417WAT     H176493   0.878   9.747   2.262
25417WAT     H276494   1.015   9.741   2.350
25418WAT      O76495   9.528   5.303   8.240
25418WAT     H176496   9.447   5.266   8.285
25418WAT     H276497   9.599   5.232   8.236
25419WAT      O76498   1.164   4.050   4.622
25419WAT     H176499   1.138   4.104   4.542
25419WAT     H276500   1.085   4.035   4.680
25420WAT      O76501   0.962   0.014   0.600
25420WAT     H176502   1.057  -0.015   0.589
25420WAT     H276503   0.939   0.080   0.529
25421WAT      O76504   6.944   8.925   9.514
25421WAT     H176505   6.890   9.003   9.544
25421WAT     H276506   6.889   8.867   9.454
25422WAT      O76507   7.164   6.284   5.974
25422WAT     H176508   7.170   6.185   5.963
25422WAT     H276509   7.068   6.312   5.978
25423WAT      O76510   5.776   9.126   1.443
25423WAT     H176511   5.791   9.061   1.518
25423WAT     H276512   5.724   9.204   1.477
25424WAT      O76513   2.369   1.017   1.202
25424WAT     H176514   2.406   1.101   1.162
25424WAT     H276515   2.389   0.940   1.142
25425WAT      O76516   2.085   8.710   1.656
25425WAT     H176517   2.027   8.630   1.668
25425WAT     H276518   2.037   8.778   1.601
25426WAT      O76519   5.071   5.871   1.286
25426WAT     H176520   5.023   5.784   1.273
25426WAT     H276521   5.135   5.862   1.362
25427WAT      O76522   3.260   4.579   1.030
25427WAT     H176523   3.331   4.536   0.974
25427WAT     H276524   3.177   4.590   0.977
25428WAT      O76525   3.889   7.544   6.558
25428WAT     H176526   3.953   7.593   6.617
25428WAT     H276527   3.861   7.459   6.602
25429WAT      O76528   7.866   4.670   4.166
25429WAT     H176529   7.934   4.737   4.137
25429WAT     H276530   7.879   4.585   4.114
25430WAT      O76531   3.036   5.939   0.504
25430WAT     H176532   3.015   5.950   0.407
25430WAT     H276533   3.030   6.028   0.550
25431WAT      O76534   7.080   7.162   4.537
25431WAT     H176535   7.053   7.161   4.440
25431WAT     H276536   6.998   7.155   4.594
25432WAT      O76537   9.583   3.973   8.799
25432WAT     H176538   9.534   3.948   8.715
25432WAT     H276539   9.542   4.055   8.838
25433WAT      O76540   3.418   6.579   6.089
25433WAT     H176541   3.487   6.588   6.017
25433WAT     H276542   3.328   6.571   6.048
25434WAT      O76543   4.873   2.003   8.804
25434WAT     H176544   4.921   1.975   8.887
25434WAT     H276545   4.935   2.053   8.744
25435WAT      O76546   3.822   5.796   1.107
25435WAT     H176547   3.912   5.782   1.064
25435WAT     H276548   3.762   5.843   1.042
25436WAT      O76549   3.285   5.486   6.521
25436WAT     H176550   3.271   5.387   6.519
25436WAT     H276551   3.244   5.527   6.440
25437WAT      O76552   3.962   0.979   7.247
25437WAT     H176553   3.941   0.939   7.157
25437WAT     H276554   4.031   1.051   7.236
25438WAT      O76555   0.443   8.479   8.276
25438WAT     H176556   0.443   8.529   8.363
25438WAT     H276557   0.351   8.478   8.238
25439WAT      O76558   2.811   4.816   1.807
25439WAT     H176559   2.767   4.895   1.763
25439WAT     H276560   2.746   4.772   1.868
25440WAT      O76561   3.790   4.834   2.778
25440WAT     H176562   3.775   4.735   2.783
25440WAT     H276563   3.724   4.880   2.837
25441WAT      O76564   2.425   9.436   0.074
25441WAT     H176565   2.475   9.520   0.049
25441WAT     H276566   2.488   9.359   0.072
25442WAT      O76567   0.265   3.489   0.577
25442WAT     H176568   0.340   3.507   0.640
25442WAT     H276569   0.301   3.469   0.486
25443WAT      O76570   8.062   1.646   8.034
25443WAT     H176571   8.070   1.725   8.095
25443WAT     H276572   8.121   1.573   8.067
25444WAT      O76573   4.133   5.929   8.098
25444WAT     H176574   4.182   6.015   8.088
25444WAT     H276575   4.167   5.863   8.031
25445WAT      O76576   3.648   7.484   6.100
25445WAT     H176577   3.697   7.514   6.182
25445WAT     H276578   3.678   7.538   6.021
25446WAT      O76579   5.571   3.173   2.252
25446WAT     H176580   5.642   3.185   2.321
25446WAT     H276581   5.581   3.083   2.209
25447WAT      O76582   8.833   4.465   5.330
25447WAT     H176583   8.737   4.490   5.341
25447WAT     H276584   8.866   4.501   5.243
25448WAT      O76585   2.552   1.013   8.122
25448WAT     H176586   2.515   0.920   8.122
25448WAT     H276587   2.489   1.074   8.074
25449WAT      O76588   2.649   5.743   3.521
25449WAT     H176589   2.705   5.721   3.441
25449WAT     H276590   2.671   5.680   3.595
25450WAT      O76591   7.581   9.706   2.181
25450WAT     H176592   7.665   9.761   2.181
25450WAT     H276593   7.605   9.609   2.189
25451WAT      O76594   5.856   9.040   7.497
25451WAT     H176595   5.864   8.976   7.421
25451WAT     H276596   5.893   8.998   7.580
25452WAT      O76597   2.040   5.841   9.043
25452WAT     H176598   2.016   5.828   9.140
25452WAT     H276599   1.962   5.882   8.995
25453WAT      O76600   2.532   7.077   7.628
25453WAT     H176601   2.458   7.024   7.587
25453WAT     H276602   2.493   7.151   7.683
25454WAT      O76603   3.323   4.405   3.189
25454WAT     H176604   3.340   4.498   3.223
25454WAT     H276605   3.363   4.338   3.251
25455WAT      O76606   2.008   9.178   2.579
25455WAT     H176607   2.022   9.209   2.485
25455WAT     H276608   2.096   9.172   2.626
25456WAT      O76609   3.360   8.435   5.590
25456WAT     H176610   3.401   8.462   5.502
25456WAT     H276611   3.417   8.365   5.633
25457WAT      O76612   5.579   7.628   6.654
25457WAT     H176613   5.627   7.558   6.602
25457WAT     H276614   5.619   7.635   6.746
25458WAT      O76615   7.663   8.037   1.996
25458WAT     H176616   7.740   7.978   1.971
25458WAT     H276617   7.670   8.060   2.093
25459WAT      O76618   7.068   9.799   2.841
25459WAT     H176619   7.158   9.754   2.834
25459WAT     H276620   7.000   9.744   2.793
25460WAT      O76621   4.208   1.609   1.275
25460WAT     H176622   4.175   1.628   1.182
25460WAT     H276623   4.248   1.693   1.313
25461WAT      O76624   5.115   7.788   0.343
25461WAT     H176625   5.125   7.761   0.438
25461WAT     H276626   5.143   7.884   0.332
25462WAT      O76627   7.953   6.643   3.809
25462WAT     H176628   7.855   6.627   3.818
25462WAT     H276629   7.983   6.707   3.879
25463WAT      O76630   4.891   5.568   0.083
25463WAT     H176631   4.938   5.611   0.005
25463WAT     H276632   4.907   5.469   0.081
25464WAT      O76633   8.038   0.712   0.958
25464WAT     H176634   8.034   0.627   0.907
25464WAT     H276635   8.038   0.693   1.056
25465WAT      O76636   0.081   7.239   2.936
25465WAT     H176637   0.034   7.322   2.968
25465WAT     H276638   0.100   7.249   2.838
25466WAT      O76639   7.240   7.970   4.691
25466WAT     H176640   7.309   7.899   4.677
25466WAT     H276641   7.285   8.057   4.711
25467WAT      O76642   1.031   8.751   5.560
25467WAT     H176643   1.003   8.847   5.567
25467WAT     H276644   1.106   8.743   5.495
25468WAT      O76645   1.531   0.569   3.969
25468WAT     H176646   1.628   0.563   3.944
25468WAT     H276647   1.515   0.650   4.024
25469WAT      O76648   4.496   5.761   2.800
25469WAT     H176649   4.413   5.706   2.813
25469WAT     H276650   4.474   5.858   2.806
25470WAT      O76651   9.304   1.283   3.262
25470WAT     H176652   9.335   1.299   3.168
25470WAT     H276653   9.225   1.342   3.281
25471WAT      O76654   6.887   0.757   1.422
25471WAT     H176655   6.909   0.853   1.406
25471WAT     H276656   6.911   0.704   1.341
25472WAT      O76657   2.518   4.504   8.327
25472WAT     H176658   2.532   4.545   8.237
25472WAT     H276659   2.561   4.561   8.397
25473WAT      O76660   7.357   1.068   7.039
25473WAT     H176661   7.337   1.063   7.137
25473WAT     H276662   7.273   1.053   6.987
25474WAT      O76663   6.929   5.041   9.320
25474WAT     H176664   6.962   5.121   9.369
25474WAT     H276665   7.006   4.985   9.291
25475WAT      O76666   2.015   0.860   0.373
25475WAT     H176667   2.115   0.859   0.374
25475WAT     H276668   1.982   0.820   0.287
25476WAT      O76669   0.999   8.708   5.835
25476WAT     H176670   1.009   8.732   5.738
25476WAT     H276671   0.908   8.670   5.851
25477WAT      O76672   9.114   2.524   3.593
25477WAT     H176673   9.173   2.500   3.516
25477WAT     H276674   9.092   2.621   3.590
25478WAT      O76675   7.724   6.233   6.842
25478WAT     H176676   7.689   6.273   6.926
25478WAT     H276677   7.762   6.306   6.784
25479WAT      O76678   5.584   1.274   6.603
25479WAT     H176679   5.649   1.209   6.643
25479WAT     H276680   5.581   1.260   6.504
25480WAT      O76681   9.615   0.330   3.064
25480WAT     H176682   9.609   0.420   3.107
25480WAT     H276683   9.703   0.288   3.086
25481WAT      O76684   9.580   2.827   9.876
25481WAT     H176685   9.508   2.873   9.824
25481WAT     H276686   9.662   2.883   9.877
25482WAT      O76687   6.153   0.730   8.154
25482WAT     H176688   6.055   0.731   8.132
25482WAT     H276689   6.196   0.813   8.120
25483WAT      O76690   6.001   9.647   7.834
25483WAT     H176691   6.068   9.715   7.802
25483WAT     H276692   6.039   9.598   7.913
25484WAT      O76693   3.377   8.400   0.735
25484WAT     H176694   3.367   8.488   0.690
25484WAT     H276695   3.442   8.408   0.811
25485WAT      O76696   6.802   0.751   4.638
25485WAT     H176697   6.800   0.768   4.737
25485WAT     H276698   6.787   0.653   4.621
25486WAT      O76699   3.248   6.639   5.737
25486WAT     H176700   3.202   6.553   5.715
25486WAT     H276701   3.216   6.711   5.675
25487WAT      O76702   9.519   6.779   9.626
25487WAT     H176703   9.461   6.717   9.572
25487WAT     H276704   9.485   6.783   9.720
25488WAT      O76705   7.055   7.636   5.730
25488WAT     H176706   7.101   7.616   5.816
25488WAT     H276707   7.028   7.732   5.729
25489WAT      O76708   8.647   0.290   8.083
25489WAT     H176709   8.710   0.215   8.062
25489WAT     H276710   8.660   0.364   8.016
25490WAT      O76711   5.252   3.520   5.200
25490WAT     H176712   5.262   3.587   5.275
25490WAT     H276713   5.327   3.454   5.204
25491WAT      O76714   5.253   1.401   5.358
25491WAT     H176715   5.312   1.444   5.426
25491WAT     H276716   5.160   1.394   5.395
25492WAT      O76717   5.996   1.510   5.653
25492WAT     H176718   6.014   1.422   5.609
25492WAT     H276719   6.013   1.584   5.588
25493WAT      O76720   1.309   6.465   8.057
25493WAT     H176721   1.408   6.473   8.053
25493WAT     H276722   1.271   6.547   8.101
25494WAT      O76723   5.052   4.742   6.395
25494WAT     H176724   4.982   4.671   6.386
25494WAT     H276725   5.026   4.805   6.468
25495WAT      O76726   0.726   8.219   8.087
25495WAT     H176727   0.713   8.172   8.174
25495WAT     H276728   0.821   8.207   8.056
25496WAT      O76729   6.011   5.767   2.276
25496WAT     H176730   6.021   5.686   2.218
25496WAT     H276731   6.093   5.824   2.269
25497WAT      O76732   7.373   4.678   6.751
25497WAT     H176733   7.368   4.585   6.785
25497WAT     H276734   7.325   4.739   6.814
25498WAT      O76735   0.848   3.325   9.118
25498WAT     H176736   0.901   3.367   9.192
25498WAT     H276737   0.892   3.240   9.089
25499WAT      O76738   6.749   9.761   7.685
25499WAT     H176739   6.792   9.673   7.703
25499WAT     H276740   6.788   9.800   7.601
25500WAT      O76741   0.801   8.700   9.572
25500WAT     H176742   0.702   8.690   9.581
25500WAT     H276743   0.833   8.650   9.492
25501WAT      O76744   8.280   0.269   6.634
25501WAT     H176745   8.352   0.335   6.613
25501WAT     H276746   8.267   0.208   6.556
25502WAT      O76747   8.946   7.636   0.014
25502WAT     H176748   9.014   7.709   0.003
25502WAT     H276749   8.944   7.608   0.110
25503WAT      O76750   4.850   2.869   9.618
25503WAT     H176751   4.797   2.898   9.698
25503WAT     H276752   4.789   2.857   9.540
25504WAT      O76753   7.998   7.198   5.666
25504WAT     H176754   7.969   7.105   5.642
25504WAT     H276755   7.972   7.217   5.760
25505WAT      O76756   3.838   8.276   8.299
25505WAT     H176757   3.840   8.299   8.201
25505WAT     H276758   3.748   8.241   8.323
25506WAT      O76759   1.917   2.628   7.388
25506WAT     H176760   1.983   2.627   7.463
25506WAT     H276761   1.830   2.589   7.419
25507WAT      O76762   4.921   5.102   9.250
25507WAT     H176763   4.968   5.060   9.172
25507WAT     H276764   4.897   5.031   9.317
25508WAT      O76765   2.646   4.713   4.259
25508WAT     H176766   2.692   4.735   4.344
25508WAT     H276767   2.547   4.717   4.273
25509WAT      O76768   1.080   0.699   4.030
25509WAT     H176769   1.003   0.747   3.987
25509WAT     H276770   1.061   0.601   4.032
25510WAT      O76771   2.040   0.767   3.482
25510WAT     H176772   1.977   0.839   3.512
25510WAT     H276773   1.988   0.687   3.453
25511WAT      O76774   8.298   9.562   7.482
25511WAT     H176775   8.381   9.543   7.533
25511WAT     H276776   8.300   9.656   7.448
25512WAT      O76777   8.458   8.074   3.576
25512WAT     H176778   8.463   8.145   3.506
25512WAT     H276779   8.370   8.028   3.569
25513WAT      O76780   0.697   3.971   5.423
25513WAT     H176781   0.763   4.031   5.376
25513WAT     H276782   0.642   3.923   5.355
25514WAT      O76783   0.971   0.440   9.686
25514WAT     H176784   1.064   0.418   9.717
25514WAT     H276785   0.975   0.477   9.594
25515WAT      O76786   2.840   5.353   5.490
25515WAT     H176787   2.809   5.418   5.559
25515WAT     H276788   2.934   5.374   5.465
25516WAT      O76789   0.976   0.229   3.299
25516WAT     H176790   0.883   0.245   3.266
25516WAT     H276791   0.976   0.221   3.399
25517WAT      O76792   3.076   2.492   7.475
25517WAT     H176793   3.061   2.546   7.557
25517WAT     H276794   3.173   2.471   7.466
25518WAT      O76795   7.367   9.656   2.883
25518WAT     H176796   7.395   9.697   2.796
25518WAT     H276797   7.417   9.701   2.957
25519WAT      O76798   8.967   4.538   1.236
25519WAT     H176799   9.005   4.582   1.154
25519WAT     H276800   8.886   4.588   1.266
25520WAT      O76801   3.244   5.683   1.622
25520WAT     H176802   3.251   5.720   1.529
25520WAT     H276803   3.149   5.660   1.642
25521WAT      O76804   2.920   9.670   0.249
25521WAT     H176805   3.007   9.635   0.214
25521WAT     H276806   2.853   9.596   0.253
25522WAT      O76807   1.772   5.253   8.890
25522WAT     H176808   1.755   5.214   8.800
25522WAT     H276809   1.839   5.327   8.883
25523WAT      O76810   0.849   5.878   1.095
25523WAT     H176811   0.847   5.778   1.100
25523WAT     H276812   0.940   5.907   1.065
25524WAT      O76813   2.525   7.935   8.062
25524WAT     H176814   2.508   7.866   8.133
25524WAT     H276815   2.507   7.895   7.972
25525WAT      O76816   5.599   2.801   1.312
25525WAT     H176817   5.598   2.752   1.224
25525WAT     H276818   5.545   2.884   1.304
25526WAT      O76819   6.649   2.900   4.620
25526WAT     H176820   6.651   2.947   4.531
25526WAT     H276821   6.742   2.876   4.647
25527WAT      O76822   7.425   3.584   4.186
25527WAT     H176823   7.438   3.615   4.280
25527WAT     H276824   7.360   3.645   4.140
25528WAT      O76825   9.194   9.729   2.366
25528WAT     H176826   9.246   9.805   2.404
25528WAT     H276827   9.248   9.682   2.296
25529WAT      O76828   2.007   9.825   9.133
25529WAT     H176829   2.001   9.880   9.216
25529WAT     H276830   1.915   9.807   9.097
25530WAT      O76831   7.657   9.483   7.815
25530WAT     H176832   7.732   9.479   7.880
25530WAT     H276833   7.581   9.535   7.855
25531WAT      O76834   8.025   4.033   6.783
25531WAT     H176835   8.028   3.934   6.774
25531WAT     H276836   8.020   4.058   6.880
25532WAT      O76837   0.772   4.733   2.102
25532WAT     H176838   0.678   4.716   2.131
25532WAT     H276839   0.784   4.831   2.085
25533WAT      O76840   3.640   5.786   6.515
25533WAT     H176841   3.733   5.798   6.480
25533WAT     H276842   3.598   5.875   6.531
25534WAT      O76843   9.119   8.923   8.510
25534WAT     H176844   9.123   8.831   8.548
25534WAT     H276845   9.204   8.972   8.532
25535WAT      O76846   5.951   5.422   0.416
25535WAT     H176847   5.983   5.372   0.336
25535WAT     H276848   5.951   5.520   0.397
25536WAT      O76849   7.925   4.820   5.488
25536WAT     H176850   7.825   4.823   5.492
25536WAT     H276851   7.954   4.727   5.465
25537WAT      O76852   1.581   9.386   9.790
25537WAT     H176853   1.495   9.431   9.764
25537WAT     H276854   1.651   9.455   9.807
25538WAT      O76855   5.695   1.900   4.724
25538WAT     H176856   5.787   1.883   4.688
25538WAT     H276857   5.684   1.853   4.811
25539WAT      O76858   3.305   0.812   6.717
25539WAT     H176859   3.336   0.906   6.717
25539WAT     H276860   3.295   0.780   6.622
25540WAT      O76861   2.365   9.580   1.990
25540WAT     H176862   2.344   9.536   1.903
25540WAT     H276863   2.465   9.585   2.002
25541WAT      O76864   8.222   4.358   7.605
25541WAT     H176865   8.245   4.455   7.595
25541WAT     H276866   8.225   4.333   7.702
25542WAT      O76867   9.595   2.360   2.335
25542WAT     H176868   9.532   2.435   2.354
25542WAT     H276869   9.688   2.388   2.356
25543WAT      O76870   4.772   0.581   4.447
25543WAT     H176871   4.854   0.540   4.487
25543WAT     H276872   4.782   0.681   4.445
25544WAT      O76873   5.414   4.372   8.186
25544WAT     H176874   5.338   4.361   8.121
25544WAT     H276875   5.424   4.469   8.209
25545WAT      O76876   5.634   4.370   0.329
25545WAT     H176877   5.550   4.344   0.282
25545WAT     H276878   5.709   4.312   0.299
25546WAT      O76879   2.047   9.298   2.310
25546WAT     H176880   2.034   9.381   2.364
25546WAT     H276881   2.109   9.317   2.234
25547WAT      O76882   4.664   1.239   6.333
25547WAT     H176883   4.572   1.278   6.324
25547WAT     H276884   4.721   1.271   6.256
25548WAT      O76885   1.108   2.655   5.917
25548WAT     H176886   1.149   2.707   5.992
25548WAT     H276887   1.179   2.605   5.868
25549WAT      O76888   9.465   3.942   4.259
25549WAT     H176889   9.560   3.913   4.255
25549WAT     H276890   9.456   4.017   4.325
25550WAT      O76891   0.816   4.448   5.228
25550WAT     H176892   0.812   4.528   5.288
25550WAT     H276893   0.773   4.370   5.274
25551WAT      O76894   5.165   9.112   5.111
25551WAT     H176895   5.172   9.015   5.135
25551WAT     H276896   5.238   9.137   5.049
25552WAT      O76897   7.797   4.504   5.520
25552WAT     H176898   7.789   4.412   5.557
25552WAT     H276899   7.728   4.517   5.449
25553WAT      O76900   9.354   5.261   9.548
25553WAT     H176901   9.361   5.191   9.620
25553WAT     H276902   9.362   5.352   9.590
25554WAT      O76903   3.876   6.942   4.683
25554WAT     H176904   3.802   6.917   4.620
25554WAT     H276905   3.890   6.868   4.749
25555WAT      O76906   1.939   7.572   4.944
25555WAT     H176907   2.021   7.516   4.953
25555WAT     H276908   1.913   7.608   5.034
25556WAT      O76909   0.524   7.971   9.020
25556WAT     H176910   0.537   7.895   8.957
25556WAT     H276911   0.574   8.051   8.986
25557WAT      O76912   4.895   9.365   2.488
25557WAT     H176913   4.809   9.413   2.472
25557WAT     H276914   4.968   9.410   2.437
25558WAT      O76915   4.936   7.240   2.612
25558WAT     H176916   5.030   7.207   2.615
25558WAT     H276917   4.891   7.203   2.531
25559WAT      O76918   9.706   9.126   6.958
25559WAT     H176919   9.691   9.169   6.869
25559WAT     H276920   9.798   9.147   6.991
25560WAT      O76921   4.566   6.892   8.070
25560WAT     H176922   4.609   6.803   8.054
25560WAT     H276923   4.611   6.937   8.147
25561WAT      O76924   2.125   2.885   9.044
25561WAT     H176925   2.161   2.795   9.071
25561WAT     H276926   2.201   2.949   9.036
25562WAT      O76927   0.353   7.963   3.263
25562WAT     H176928   0.262   7.925   3.280
25562WAT     H276929   0.369   8.040   3.325
25563WAT      O76930   5.862   2.540   3.433
25563WAT     H176931   5.944   2.487   3.410
25563WAT     H276932   5.812   2.561   3.349
25564WAT      O76933   8.282   3.198   8.080
25564WAT     H176934   8.358   3.153   8.034
25564WAT     H276935   8.257   3.280   8.030
25565WAT      O76936   8.293   2.044   8.583
25565WAT     H176937   8.294   2.040   8.483
25565WAT     H276938   8.385   2.028   8.618
25566WAT      O76939   4.316   3.802   4.499
25566WAT     H176940   4.318   3.770   4.594
25566WAT     H276941   4.409   3.808   4.463
25567WAT      O76942   1.338   3.154   5.499
25567WAT     H176943   1.370   3.155   5.404
25567WAT     H276944   1.365   3.239   5.544
25568WAT      O76945   4.309   1.765   5.871
25568WAT     H176946   4.393   1.710   5.876
25568WAT     H276947   4.321   1.848   5.925
25569WAT      O76948   2.438   2.342   3.419
25569WAT     H176949   2.353   2.291   3.434
25569WAT     H276950   2.512   2.279   3.396
25570WAT      O76951   8.306   9.089   8.464
25570WAT     H176952   8.357   9.161   8.416
25570WAT     H276953   8.298   9.112   8.561
25571WAT      O76954   9.734   2.546   2.780
25571WAT     H176955   9.817   2.519   2.732
25571WAT     H276956   9.730   2.646   2.785
25572WAT      O76957   6.573   5.459   3.640
25572WAT     H176958   6.548   5.515   3.719
25572WAT     H276959   6.644   5.394   3.666
25573WAT      O76960   3.127   9.207   0.284
25573WAT     H176961   3.166   9.176   0.371
25573WAT     H276962   3.033   9.175   0.276
25574WAT      O76963   9.712   1.442   2.421
25574WAT     H176964   9.615   1.430   2.403
25574WAT     H276965   9.758   1.353   2.422
25575WAT      O76966   5.891   9.563   6.180
25575WAT     H176967   5.896   9.472   6.141
25575WAT     H276968   5.962   9.573   6.250
25576WAT      O76969   4.979   0.229   5.055
25576WAT     H176970   4.952   0.152   5.114
25576WAT     H276971   5.020   0.194   4.971
25577WAT      O76972   2.434   7.325   7.791
25577WAT     H176973   2.406   7.382   7.714
25577WAT     H276974   2.521   7.358   7.828
25578WAT      O76975   6.241   9.485   5.967
25578WAT     H176976   6.151   9.527   5.956
25578WAT     H276977   6.304   9.523   5.899
25579WAT      O76978   4.276   4.757   6.093
25579WAT     H176979   4.244   4.701   6.016
25579WAT     H276980   4.216   4.837   6.103
25580WAT      O76981   6.200   5.798   7.146
25580WAT     H176982   6.293   5.835   7.141
25580WAT     H276983   6.134   5.871   7.129
25581WAT      O76984   2.445   9.801   4.783
25581WAT     H176985   2.423   9.856   4.864
25581WAT     H276986   2.360   9.772   4.739
25582WAT      O76987   1.015   6.592   1.962
25582WAT     H176988   0.932   6.544   1.991
25582WAT     H276989   0.991   6.661   1.894
25583WAT      O76990   2.237   4.749   6.573
25583WAT     H176991   2.287   4.822   6.527
25583WAT     H276992   2.256   4.662   6.527
25584WAT      O76993   5.608   2.296   6.126
25584WAT     H176994   5.603   2.392   6.150
25584WAT     H276995   5.527   2.271   6.072
25585WAT      O76996   5.869   4.869   0.874
25585WAT     H176997   5.769   4.862   0.878
25585WAT     H276998   5.898   4.883   0.779
25586WAT      O76999   6.370   2.163   4.815
25586WAT     H177000   6.295   2.197   4.872
25586WAT     H277001   6.352   2.187   4.720
25587WAT      O77002   3.798   9.170   0.308
25587WAT     H177003   3.700   9.170   0.284
25587WAT     H277004   3.812   9.120   0.393
25588WAT      O77005   3.624   0.638   0.548
25588WAT     H177006   3.581   0.601   0.465
25588WAT     H277007   3.553   0.659   0.615
25589WAT      O77008   8.166   3.546   9.812
25589WAT     H177009   8.141   3.532   9.716
25589WAT     H277010   8.091   3.593   9.859
25590WAT      O77011   6.623   3.920   1.802
25590WAT     H177012   6.622   3.959   1.894
25590WAT     H277013   6.547   3.856   1.791
25591WAT      O77014   8.477   9.604   3.804
25591WAT     H177015   8.474   9.641   3.711
25591WAT     H277016   8.385   9.572   3.829
25592WAT      O77017   5.011   6.938   2.399
25592WAT     H177018   5.074   7.013   2.420
25592WAT     H277019   5.026   6.908   2.304
25593WAT      O77020   0.736   0.247   7.750
25593WAT     H177021   0.785   0.257   7.663
25593WAT     H277022   0.772   0.313   7.816
25594WAT      O77023   0.884   1.296   3.969
25594WAT     H177024   0.857   1.255   3.882
25594WAT     H277025   0.978   1.269   3.991
25595WAT      O77026   2.666   1.666   6.093
25595WAT     H177027   2.707   1.625   6.174
25595WAT     H277028   2.736   1.713   6.040
25596WAT      O77029   8.013   1.050   6.371
25596WAT     H177030   8.060   0.961   6.370
25596WAT     H277031   8.080   1.123   6.375
25597WAT      O77032   0.021   0.883   1.135
25597WAT     H177033   0.039   0.928   1.223
25597WAT     H277034   0.023   0.784   1.147
25598WAT      O77035   7.622   7.258   6.720
25598WAT     H177036   7.633   7.209   6.633
25598WAT     H277037   7.710   7.296   6.749
25599WAT      O77038   7.194   2.225   6.110
25599WAT     H177039   7.207   2.184   6.020
25599WAT     H277040   7.127   2.299   6.103
25600WAT      O77041   8.063   1.225   9.800
25600WAT     H177042   8.001   1.150   9.822
25600WAT     H277043   8.148   1.187   9.762
25601WAT      O77044   2.420   3.368   0.358
25601WAT     H177045   2.465   3.375   0.269
25601WAT     H277046   2.489   3.347   0.428
25602WAT      O77047   5.350   5.934   7.006
25602WAT     H177048   5.388   5.856   6.957
25602WAT     H277049   5.411   6.013   6.997
25603WAT      O77050   4.874   4.527   1.220
25603WAT     H177051   4.953   4.583   1.195
25603WAT     H277052   4.901   4.432   1.228
25604WAT      O77053   2.092   2.244   5.395
25604WAT     H177054   2.099   2.164   5.455
25604WAT     H277055   2.137   2.223   5.308
25605WAT      O77056   7.113   6.366   7.860
25605WAT     H177057   7.198   6.316   7.873
25605WAT     H277058   7.088   6.366   7.763
25606WAT      O77059   9.191   6.034   0.958
25606WAT     H177060   9.215   6.068   0.867
25606WAT     H277061   9.243   6.084   1.027
25607WAT      O77062   7.396   9.442   9.041
25607WAT     H177063   7.398   9.462   9.139
25607WAT     H277064   7.305   9.465   9.005
25608WAT      O77065   6.457   2.880   1.569
25608WAT     H177066   6.557   2.877   1.560
25608WAT     H277067   6.431   2.848   1.660
25609WAT      O77068   1.502   1.352   4.654
25609WAT     H177069   1.419   1.322   4.700
25609WAT     H277070   1.492   1.447   4.625
25610WAT      O77071   5.652   7.257   7.839
25610WAT     H177072   5.626   7.166   7.871
25610WAT     H277073   5.707   7.249   7.755
25611WAT      O77074   9.218   9.692   9.640
25611WAT     H177075   9.179   9.613   9.593
25611WAT     H277076   9.156   9.770   9.631
25612WAT      O77077   3.837   0.183   0.562
25612WAT     H177078   3.931   0.180   0.527
25612WAT     H277079   3.807   0.278   0.567
25613WAT      O77080   6.497   4.663   3.451
25613WAT     H177081   6.531   4.569   3.462
25613WAT     H277082   6.563   4.716   3.399
25614WAT      O77083   5.257   8.645   6.050
25614WAT     H177084   5.263   8.741   6.079
25614WAT     H277085   5.169   8.630   6.005
25615WAT      O77086   3.600   7.348   8.242
25615WAT     H177087   3.660   7.280   8.199
25615WAT     H277088   3.547   7.304   8.315
25616WAT      O77089   8.819   6.839   5.179
25616WAT     H177090   8.892   6.770   5.175
25616WAT     H277091   8.754   6.822   5.105
25617WAT      O77092   8.120   4.878   2.398
25617WAT     H177093   8.048   4.934   2.439
25617WAT     H277094   8.078   4.808   2.341
25618WAT      O77095   1.213   6.668   1.212
25618WAT     H177096   1.268   6.584   1.211
25618WAT     H277097   1.174   6.684   1.121
25619WAT      O77098   5.372   9.767   4.757
25619WAT     H177099   5.385   9.692   4.692
25619WAT     H277100   5.433   9.842   4.734
25620WAT      O77101   5.363   8.240   3.714
25620WAT     H177102   5.334   8.299   3.789
25620WAT     H277103   5.429   8.288   3.657
25621WAT      O77104   5.742   8.979   5.158
25621WAT     H177105   5.693   9.019   5.080
25621WAT     H277106   5.743   8.879   5.150
25622WAT      O77107   2.339   1.974   6.017
25622WAT     H177108   2.353   1.907   6.090
25622WAT     H277109   2.255   1.953   5.967
25623WAT      O77110   7.853   9.381   3.838
25623WAT     H177111   7.766   9.333   3.830
25623WAT     H277112   7.835   9.480   3.844
25624WAT      O77113   4.324   1.518   4.917
25624WAT     H177114   4.298   1.474   5.002
25624WAT     H277115   4.399   1.582   4.934
25625WAT      O77116   7.292   5.599   6.318
25625WAT     H177117   7.337   5.510   6.321
25625WAT     H277118   7.211   5.594   6.260
25626WAT      O77119   1.453   3.501   3.589
25626WAT     H177120   1.438   3.467   3.682
25626WAT     H277121   1.375   3.557   3.561
25627WAT      O77122   8.424   0.458   0.070
25627WAT     H177123   8.509   0.510   0.061
25627WAT     H277124   8.404   0.442   0.167
25628WAT      O77125   0.804   6.608   0.770
25628WAT     H177126   0.861   6.633   0.692
25628WAT     H277127   0.755   6.689   0.803
25629WAT      O77128   9.718   1.069   1.049
25629WAT     H177129   9.630   1.066   1.096
25629WAT     H277130   9.769   0.985   1.067
25630WAT      O77131   3.902   5.534   0.883
25630WAT     H177132   3.968   5.507   0.813
25630WAT     H277133   3.938   5.511   0.973
25631WAT      O77134   2.174   7.794   6.783
25631WAT     H177135   2.183   7.789   6.882
25631WAT     H277136   2.181   7.889   6.753
25632WAT      O77137   2.592   0.208   0.217
25632WAT     H177138   2.503   0.252   0.202
25632WAT     H277139   2.630   0.239   0.305
25633WAT      O77140   6.307   8.303   9.674
25633WAT     H177141   6.266   8.375   9.619
25633WAT     H277142   6.247   8.223   9.675
25634WAT      O77143   2.246   7.397   2.650
25634WAT     H177144   2.262   7.375   2.554
25634WAT     H277145   2.162   7.351   2.680
25635WAT      O77146   1.886   3.180   1.597
25635WAT     H177147   1.941   3.097   1.608
25635WAT     H277148   1.841   3.179   1.508
25636WAT      O77149   5.081   2.073   6.996
25636WAT     H177150   5.081   2.140   6.922
25636WAT     H277151   5.087   1.981   6.958
25637WAT      O77152   7.670   1.562   2.157
25637WAT     H177153   7.663   1.472   2.201
25637WAT     H277154   7.578   1.598   2.143
25638WAT      O77155   4.428   3.406   0.720
25638WAT     H177156   4.335   3.414   0.683
25638WAT     H277157   4.476   3.493   0.710
25639WAT      O77158   3.396   3.302   3.135
25639WAT     H177159   3.375   3.280   3.040
25639WAT     H277160   3.318   3.276   3.193
25640WAT      O77161   4.911   0.019   5.185
25640WAT     H177162   4.842  -0.052   5.172
25640WAT     H277163   5.000  -0.024   5.201
25641WAT      O77164   6.060   4.172   3.335
25641WAT     H177165   6.089   4.166   3.239
25641WAT     H277166   6.108   4.247   3.380
25642WAT      O77167   0.075   1.790   0.584
25642WAT     H177168   0.170   1.802   0.613
25642WAT     H277169   0.040   1.876   0.547
25643WAT      O77170   2.939   6.223   5.011
25643WAT     H177171   3.008   6.293   5.029
25643WAT     H277172   2.877   6.215   5.089
25644WAT      O77173   8.936   0.914   0.930
25644WAT     H177174   8.862   0.940   0.867
25644WAT     H277175   8.912   0.941   1.023
25645WAT      O77176   1.865   0.558   1.242
25645WAT     H177177   1.907   0.487   1.299
25645WAT     H277178   1.927   0.636   1.235
25646WAT      O77179   4.579   4.608   0.364
25646WAT     H177180   4.582   4.550   0.283
25646WAT     H277181   4.611   4.700   0.340
25647WAT      O77182   1.021   3.642   6.046
25647WAT     H177183   0.985   3.649   5.953
25647WAT     H277184   1.112   3.599   6.043
25648WAT      O77185   4.636   5.318   6.634
25648WAT     H177186   4.632   5.219   6.649
25648WAT     H277187   4.607   5.366   6.717
25649WAT      O77188   6.335   2.342   1.759
25649WAT     H177189   6.301   2.436   1.748
25649WAT     H277190   6.273   2.279   1.712
25650WAT      O77191   2.561   8.081   5.781
25650WAT     H177192   2.511   8.168   5.782
25650WAT     H277193   2.654   8.095   5.747
25651WAT      O77194   2.254   4.317   0.046
25651WAT     H177195   2.233   4.372  -0.035
25651WAT     H277196   2.193   4.344   0.121
25652WAT      O77197   3.110   5.388   5.509
25652WAT     H177198   3.209   5.403   5.499
25652WAT     H277199   3.092   5.341   5.595
25653WAT      O77200   0.707   7.776   7.507
25653WAT     H177201   0.653   7.745   7.429
25653WAT     H277202   0.658   7.850   7.554
25654WAT      O77203   6.899   0.168   8.726
25654WAT     H177204   6.861   0.082   8.691
25654WAT     H277205   6.976   0.148   8.786
25655WAT      O77206   1.880   0.589   3.363
25655WAT     H177207   1.853   0.630   3.275
25655WAT     H277208   1.802   0.542   3.403
25656WAT      O77209   0.698   0.268   5.471
25656WAT     H177210   0.610   0.308   5.498
25656WAT     H277211   0.683   0.197   5.402
25657WAT      O77212   0.656   9.489   6.624
25657WAT     H177213   0.571   9.535   6.598
25657WAT     H277214   0.658   9.397   6.584
25658WAT      O77215   1.163   4.405   1.027
25658WAT     H177216   1.140   4.316   1.066
25658WAT     H277217   1.232   4.450   1.084
25659WAT      O77218   5.083   9.769   4.634
25659WAT     H177219   5.181   9.754   4.649
25659WAT     H277220   5.048   9.829   4.706
25660WAT      O77221   9.532   2.418   0.460
25660WAT     H177222   9.560   2.400   0.555
25660WAT     H277223   9.464   2.491   0.459
25661WAT      O77224   2.823   0.953   3.082
25661WAT     H177225   2.888   1.005   3.137
25661WAT     H277226   2.793   0.872   3.132
25662WAT      O77227   6.686   5.089   4.356
25662WAT     H177228   6.759   5.138   4.307
25662WAT     H277229   6.725   5.009   4.402
25663WAT      O77230   0.843   3.530   5.315
25663WAT     H177231   0.804   3.438   5.308
25663WAT     H277232   0.825   3.580   5.230
25664WAT      O77233   2.242   3.664   8.357
25664WAT     H177234   2.189   3.611   8.422
25664WAT     H277235   2.312   3.605   8.316
25665WAT      O77236   0.793   2.214   2.614
25665WAT     H177237   0.712   2.156   2.603
25665WAT     H277238   0.765   2.303   2.650
25666WAT      O77239   9.339   9.812   8.333
25666WAT     H177240   9.432   9.796   8.367
25666WAT     H277241   9.325   9.910   8.318
25667WAT      O77242   8.062   9.547   2.636
25667WAT     H177243   8.059   9.540   2.536
25667WAT     H277244   8.050   9.457   2.676
25668WAT      O77245   9.858   3.522   8.624
25668WAT     H177246   9.768   3.555   8.593
25668WAT     H277247   9.845   3.449   8.690
25669WAT      O77248   2.589   2.636   6.649
25669WAT     H177249   2.674   2.669   6.691
25669WAT     H277250   2.578   2.538   6.670
25670WAT      O77251   3.713   4.367   4.183
25670WAT     H177252   3.737   4.308   4.105
25670WAT     H277253   3.687   4.457   4.149
25671WAT      O77254   8.299   9.700   0.436
25671WAT     H177255   8.209   9.705   0.390
25671WAT     H277256   8.295   9.632   0.509
25672WAT      O77257   7.396   9.073   4.745
25672WAT     H177258   7.300   9.061   4.774
25672WAT     H277259   7.441   8.984   4.746
25673WAT      O77260   1.728   2.331   6.318
25673WAT     H177261   1.715   2.275   6.236
25673WAT     H277262   1.659   2.307   6.386
25674WAT      O77263   5.073   9.216   6.257
25674WAT     H177264   4.974   9.208   6.241
25674WAT     H277265   5.095   9.172   6.345
25675WAT      O77266   3.616   4.619   8.931
25675WAT     H177267   3.631   4.524   8.958
25675WAT     H277268   3.530   4.626   8.881
25676WAT      O77269   5.783   0.206   3.501
25676WAT     H177270   5.815   0.126   3.451
25676WAT     H277271   5.683   0.201   3.510
25677WAT      O77272   8.052   3.461   4.657
25677WAT     H177273   8.151   3.470   4.658
25677WAT     H277274   8.010   3.547   4.686
25678WAT      O77275   7.686   0.267   6.517
25678WAT     H177276   7.694   0.282   6.418
25678WAT     H277277   7.591   0.247   6.540
25679WAT      O77278   3.820   6.345   6.254
25679WAT     H177279   3.905   6.318   6.300
25679WAT     H277280   3.811   6.445   6.257
25680WAT      O77281   6.081   3.655   0.119
25680WAT     H177282   5.990   3.681   0.085
25680WAT     H277283   6.090   3.556   0.118
25681WAT      O77284   5.984   7.232   6.657
25681WAT     H177285   6.081   7.238   6.680
25681WAT     H277286   5.958   7.135   6.652
25682WAT      O77287   0.025   5.712   2.918
25682WAT     H177288   0.109   5.742   2.873
25682WAT     H277289  -0.035   5.667   2.851
25683WAT      O77290   4.159   6.196   7.072
25683WAT     H177291   4.258   6.207   7.078
25683WAT     H277292   4.115   6.256   7.139
25684WAT      O77293   9.843   5.185   2.498
25684WAT     H177294   9.901   5.253   2.544
25684WAT     H277295   9.879   5.168   2.406
25685WAT      O77296   7.798   1.058   8.392
25685WAT     H177297   7.723   1.117   8.362
25685WAT     H277298   7.844   1.101   8.471
25686WAT      O77299   9.754   5.382   8.476
25686WAT     H177300   9.784   5.391   8.381
25686WAT     H277301   9.752   5.285   8.501
25687WAT      O77302   1.429   0.975   6.381
25687WAT     H177303   1.337   0.946   6.358
25687WAT     H277304   1.495   0.932   6.319
25688WAT      O77305   3.029   7.186   2.255
25688WAT     H177306   2.959   7.252   2.229
25688WAT     H277307   3.120   7.222   2.232
25689WAT      O77308   8.544   2.399   1.689
25689WAT     H177309   8.522   2.404   1.787
25689WAT     H277310   8.614   2.466   1.667
25690WAT      O77311   1.543   4.826   6.581
25690WAT     H177312   1.496   4.889   6.518
25690WAT     H277313   1.635   4.809   6.547
25691WAT      O77314   7.448   7.200   8.084
25691WAT     H177315   7.426   7.157   7.996
25691WAT     H277316   7.370   7.189   8.147
25692WAT      O77317   1.862   2.837   2.297
25692WAT     H177318   1.888   2.815   2.203
25692WAT     H277319   1.929   2.899   2.337
25693WAT      O77320   3.290   1.700   9.694
25693WAT     H177321   3.304   1.602   9.710
25693WAT     H277322   3.324   1.752   9.772
25694WAT      O77323   2.542   8.349   5.858
25694WAT     H177324   2.614   8.326   5.925
25694WAT     H277325   2.576   8.419   5.796
25695WAT      O77326   5.232   1.365   1.552
25695WAT     H177327   5.189   1.347   1.463
25695WAT     H277328   5.310   1.426   1.539
25696WAT      O77329   6.053   9.548   0.190
25696WAT     H177330   5.977   9.491   0.219
25696WAT     H277331   6.021   9.641   0.173
25697WAT      O77332   2.278   6.613   3.962
25697WAT     H177333   2.223   6.538   3.999
25697WAT     H277334   2.307   6.589   3.869
25698WAT      O77335   9.811   5.635   6.955
25698WAT     H177336   9.748   5.641   6.878
25698WAT     H277337   9.779   5.566   7.020
25699WAT      O77338   3.975   1.689   9.555
25699WAT     H177339   3.999   1.598   9.521
25699WAT     H277340   4.047   1.754   9.531
25700WAT      O77341   6.869   5.525   4.225
25700WAT     H177342   6.771   5.533   4.207
25700WAT     H277343   6.911   5.615   4.214
25701WAT      O77344   0.757   5.855   3.685
25701WAT     H177345   0.785   5.817   3.597
25701WAT     H277346   0.704   5.938   3.669
25702WAT      O77347   1.509   9.495   6.775
25702WAT     H177348   1.533   9.591   6.762
25702WAT     H277349   1.450   9.487   6.856
25703WAT      O77350   4.694   8.229   2.005
25703WAT     H177351   4.706   8.312   2.059
25703WAT     H277352   4.721   8.149   2.059
25704WAT      O77353   8.772   5.551   9.065
25704WAT     H177354   8.856   5.540   9.011
25704WAT     H277355   8.792   5.536   9.162
25705WAT      O77356   9.589   3.058   0.843
25705WAT     H177357   9.602   3.008   0.929
25705WAT     H277358   9.632   3.007   0.768
25706WAT      O77359   0.173   5.466   5.153
25706WAT     H177360   0.253   5.414   5.121
25706WAT     H277361   0.174   5.556   5.111
25707WAT      O77362   1.229   2.224   3.168
25707WAT     H177363   1.255   2.217   3.264
25707WAT     H277364   1.289   2.166   3.113
25708WAT      O77365   5.441   5.586   0.431
25708WAT     H177366   5.485   5.666   0.473
25708WAT     H277367   5.508   5.513   0.423
25709WAT      O77368   4.643   6.418   0.551
25709WAT     H177369   4.576   6.422   0.477
25709WAT     H277370   4.694   6.332   0.545
25710WAT      O77371   6.324   4.557   2.002
25710WAT     H177372   6.353   4.462   1.995
25710WAT     H277373   6.303   4.578   2.097
25711WAT      O77374   4.682   2.238   6.874
25711WAT     H177375   4.709   2.325   6.832
25711WAT     H277376   4.694   2.164   6.808
25712WAT      O77377   4.275   6.505   5.252
25712WAT     H177378   4.340   6.573   5.217
25712WAT     H277379   4.209   6.483   5.181
25713WAT      O77380   7.016   6.744   2.850
25713WAT     H177381   6.990   6.785   2.762
25713WAT     H277382   7.023   6.816   2.919
25714WAT      O77383   7.968   7.834   0.587
25714WAT     H177384   7.891   7.774   0.608
25714WAT     H277385   8.050   7.802   0.635
25715WAT      O77386   0.272   0.015   7.659
25715WAT     H177387   0.316   0.096   7.698
25715WAT     H277388   0.174   0.031   7.650
25716WAT      O77389   4.369   9.315   2.909
25716WAT     H177390   4.354   9.381   2.836
25716WAT     H277391   4.464   9.284   2.907
25717WAT      O77392   7.046   3.538   9.312
25717WAT     H177393   7.022   3.501   9.401
25717WAT     H277394   7.142   3.518   9.292
25718WAT      O77395   6.778   0.488   2.572
25718WAT     H177396   6.843   0.543   2.520
25718WAT     H277397   6.827   0.412   2.616
25719WAT      O77398   8.751   7.743   6.824
25719WAT     H177399   8.673   7.681   6.833
25719WAT     H277400   8.808   7.737   6.906
25720WAT      O77401   4.484   4.830   7.755
25720WAT     H177402   4.575   4.819   7.795
25720WAT     H277403   4.423   4.873   7.822
25721WAT      O77404   6.574   2.620   4.613
25721WAT     H177405   6.580   2.717   4.636
25721WAT     H277406   6.529   2.609   4.525
25722WAT      O77407   9.649   0.591   0.592
25722WAT     H177408   9.683   0.675   0.634
25722WAT     H277409   9.715   0.517   0.608
25723WAT      O77410   7.246   1.758   7.650
25723WAT     H177411   7.254   1.732   7.554
25723WAT     H277412   7.272   1.681   7.707
25724WAT      O77413   4.374   2.939   8.318
25724WAT     H177414   4.307   2.873   8.350
25724WAT     H277415   4.328   3.010   8.264
25725WAT      O77416   9.418   6.813   1.435
25725WAT     H177417   9.405   6.752   1.357
25725WAT     H277418   9.343   6.880   1.438
25726WAT      O77419   4.525   2.142   5.436
25726WAT     H177420   4.506   2.233   5.475
25726WAT     H277421   4.592   2.095   5.493
25727WAT      O77422   9.174   2.818   4.573
25727WAT     H177423   9.135   2.910   4.580
25727WAT     H277424   9.106   2.751   4.605
25728WAT      O77425   5.479   4.656   0.353
25728WAT     H177426   5.503   4.653   0.450
25728WAT     H277427   5.535   4.591   0.302
25729WAT      O77428   9.622   8.506   6.673
25729WAT     H177429   9.626   8.443   6.750
25729WAT     H277430   9.531   8.548   6.668
25730WAT      O77431   1.392   6.410   4.200
25730WAT     H177432   1.337   6.411   4.117
25730WAT     H277433   1.389   6.319   4.241
25731WAT      O77434   1.927   4.836   2.069
25731WAT     H177435   1.953   4.879   1.983
25731WAT     H277436   1.941   4.737   2.062
25732WAT      O77437   6.756   5.708   7.586
25732WAT     H177438   6.724   5.735   7.495
25732WAT     H277439   6.681   5.667   7.637
25733WAT      O77440   9.665   2.295   1.030
25733WAT     H177441   9.750   2.280   1.081
25733WAT     H277442   9.633   2.208   0.993
25734WAT      O77443   5.067   6.314   8.543
25734WAT     H177444   5.142   6.325   8.609
25734WAT     H277445   4.986   6.280   8.591
25735WAT      O77446   5.701   6.078   8.782
25735WAT     H177447   5.649   6.074   8.697
25735WAT     H277448   5.736   6.171   8.795
25736WAT      O77449   0.298   2.607   0.279
25736WAT     H177450   0.212   2.648   0.309
25736WAT     H277451   0.308   2.617   0.180
25737WAT      O77452   0.088   5.446   3.635
25737WAT     H177453   0.097   5.537   3.596
25737WAT     H277454   0.092   5.378   3.561
25738WAT      O77455   7.520   8.154   3.705
25738WAT     H177456   7.441   8.127   3.651
25738WAT     H277457   7.565   8.073   3.742
25739WAT      O77458   1.191   0.906   9.885
25739WAT     H177459   1.265   0.931   9.822
25739WAT     H277460   1.231   0.867   9.968
25740WAT      O77461   0.693   5.419   5.726
25740WAT     H177462   0.717   5.469   5.643
25740WAT     H277463   0.604   5.450   5.760
25741WAT      O77464   1.665   3.629   6.613
25741WAT     H177465   1.663   3.531   6.597
25741WAT     H277466   1.698   3.675   6.531
25742WAT      O77467   3.326   4.460   2.912
25742WAT     H177468   3.314   4.366   2.879
25742WAT     H277469   3.356   4.459   3.007
25743WAT      O77470   9.398   3.186   2.875
25743WAT     H177471   9.380   3.283   2.885
25743WAT     H277472   9.321   3.134   2.912
25744WAT      O77473   2.026   7.285   8.680
25744WAT     H177474   1.980   7.348   8.617
25744WAT     H277475   1.984   7.195   8.675
25745WAT      O77476   2.899   0.144   9.350
25745WAT     H177477   2.923   0.055   9.312
25745WAT     H277478   2.966   0.171   9.419
25746WAT      O77479   7.483   6.065   5.976
25746WAT     H177480   7.434   6.047   6.061
25746WAT     H277481   7.475   5.986   5.916
25747WAT      O77482   2.988   2.022   8.928
25747WAT     H177483   3.049   2.100   8.916
25747WAT     H277484   2.896   2.047   8.900
25748WAT      O77485   6.629   2.444   2.080
25748WAT     H177486   6.661   2.538   2.083
25748WAT     H277487   6.696   2.384   2.124
25749WAT      O77488   0.111   7.909   3.020
25749WAT     H177489   0.129   7.929   2.924
25749WAT     H277490   0.130   7.990   3.075
25750WAT      O77491   5.638   8.539   3.326
25750WAT     H177492   5.573   8.545   3.250
25750WAT     H277493   5.711   8.475   3.303
25751WAT      O77494   5.095   0.724   9.520
25751WAT     H177495   5.026   0.790   9.492
25751WAT     H277496   5.177   0.735   9.464
25752WAT      O77497   0.032   4.083   1.357
25752WAT     H177498   0.017   4.050   1.264
25752WAT     H277499   0.105   4.029   1.400
25753WAT      O77500   4.672   0.095   3.880
25753WAT     H177501   4.579   0.107   3.845
25753WAT     H277502   4.684   0.002   3.915
25754WAT      O77503   0.879   1.112   7.977
25754WAT     H177504   0.842   1.197   7.940
25754WAT     H277505   0.901   1.049   7.902
25755WAT      O77506   2.759   9.686   0.998
25755WAT     H177507   2.829   9.754   1.019
25755WAT     H277508   2.710   9.662   1.082
25756WAT      O77509   6.952   3.954   3.068
25756WAT     H177510   6.985   3.874   3.118
25756WAT     H277511   6.890   4.006   3.126
25757WAT      O77512   1.295   0.438   9.536
25757WAT     H177513   1.262   0.348   9.561
25757WAT     H277514   1.248   0.508   9.590
25758WAT      O77515   9.345   9.109   1.858
25758WAT     H177516   9.427   9.084   1.910
25758WAT     H277517   9.372   9.161   1.777
25759WAT      O77518   4.084   5.135   2.788
25759WAT     H177519   4.172   5.095   2.761
25759WAT     H277520   4.067   5.218   2.735
25760WAT      O77521   0.007   1.015   0.019
25760WAT     H177522  -0.049   0.937  -0.007
25760WAT     H277523   0.104   0.989   0.019
25761WAT      O77524   0.385   6.977   1.799
25761WAT     H177525   0.312   6.916   1.828
25761WAT     H277526   0.470   6.953   1.845
25762WAT      O77527   4.033   9.512   1.369
25762WAT     H177528   4.043   9.590   1.430
25762WAT     H277529   4.122   9.490   1.328
25763WAT      O77530   6.897   4.754   8.073
25763WAT     H177531   6.843   4.688   8.020
25763WAT     H277532   6.992   4.722   8.079
25764WAT      O77533   8.090   3.170   5.836
25764WAT     H177534   8.136   3.221   5.763
25764WAT     H277535   8.052   3.235   5.902
25765WAT      O77536   5.288   3.585   3.890
25765WAT     H177537   5.237   3.647   3.949
25765WAT     H277538   5.383   3.616   3.882
25766WAT      O77539   9.611   3.584   0.636
25766WAT     H177540   9.656   3.502   0.673
25766WAT     H277541   9.593   3.571   0.538
25767WAT      O77542   3.097   2.584   8.597
25767WAT     H177543   3.130   2.604   8.505
25767WAT     H277544   3.007   2.542   8.592
25768WAT      O77545   9.854   4.419   0.808
25768WAT     H177546   9.912   4.407   0.728
25768WAT     H277547   9.783   4.486   0.789
25769WAT      O77548   6.291   4.048   3.531
25769WAT     H177549   6.213   4.087   3.482
25769WAT     H277550   6.287   3.949   3.527
25770WAT      O77551   2.112   1.526   3.876
25770WAT     H177552   2.164   1.591   3.931
25770WAT     H277553   2.081   1.450   3.934
25771WAT      O77554   0.752   6.601   7.600
25771WAT     H177555   0.740   6.682   7.542
25771WAT     H277556   0.740   6.627   7.696
25772WAT      O77557   3.665   1.867   4.393
25772WAT     H177558   3.651   1.769   4.412
25772WAT     H277559   3.581   1.905   4.353
25773WAT      O77560   1.423   1.916   6.718
25773WAT     H177561   1.515   1.880   6.731
25773WAT     H277562   1.357   1.842   6.726
25774WAT      O77563   0.951   7.560   4.768
25774WAT     H177564   1.001   7.500   4.705
25774WAT     H277565   0.864   7.585   4.727
25775WAT      O77566   5.741   7.336   5.004
25775WAT     H177567   5.829   7.348   4.959
25775WAT     H277568   5.712   7.422   5.046
25776WAT      O77569   9.394   3.694   7.912
25776WAT     H177570   9.380   3.646   7.999
25776WAT     H277571   9.338   3.652   7.841
25777WAT      O77572   3.708   1.935   8.537
25777WAT     H177573   3.615   1.909   8.512
25777WAT     H277574   3.724   2.031   8.514
25778WAT      O77575   0.151   7.783   0.862
25778WAT     H177576   0.209   7.779   0.944
25778WAT     H277577   0.138   7.878   0.835
25779WAT      O77578   6.966   7.414   5.627
25779WAT     H177579   6.975   7.502   5.674
25779WAT     H277580   6.889   7.418   5.563
25780WAT      O77581   9.277   4.857   3.938
25780WAT     H177582   9.343   4.786   3.964
25780WAT     H277583   9.185   4.826   3.960
25781WAT      O77584   5.298   2.740   9.754
25781WAT     H177585   5.330   2.681   9.679
25781WAT     H277586   5.209   2.777   9.731
25782WAT      O77587   3.747   8.114   2.785
25782WAT     H177588   3.796   8.133   2.699
25782WAT     H277589   3.663   8.064   2.764
25783WAT      O77590   8.340   7.612   0.101
25783WAT     H177591   8.396   7.579   0.025
25783WAT     H277592   8.334   7.712   0.098
25784WAT      O77593   2.842   9.267   1.603
25784WAT     H177594   2.880   9.194   1.545
25784WAT     H277595   2.759   9.303   1.561
25785WAT      O77596   5.488   7.773   1.196
25785WAT     H177597   5.514   7.757   1.291
25785WAT     H277598   5.392   7.751   1.182
25786WAT      O77599   5.905   7.024   0.049
25786WAT     H177600   5.989   7.015  -0.005
25786WAT     H277601   5.829   6.984  -0.002
25787WAT      O77602   8.202   9.073   1.977
25787WAT     H177603   8.268   9.148   1.981
25787WAT     H277604   8.174   9.049   2.070
25788WAT      O77605   0.691   2.893   3.693
25788WAT     H177606   0.695   2.794   3.706
25788WAT     H277607   0.780   2.933   3.716
25789WAT      O77608   2.505   2.671   9.211
25789WAT     H177609   2.597   2.694   9.180
25789WAT     H277610   2.488   2.574   9.192
25790WAT      O77611   8.183   1.098   8.512
25790WAT     H177612   8.192   1.000   8.530
25790WAT     H277613   8.221   1.150   8.589
25791WAT      O77614   2.662   1.330   7.561
25791WAT     H177615   2.696   1.404   7.503
25791WAT     H277616   2.660   1.360   7.656
25792WAT      O77617   4.049   3.584   0.415
25792WAT     H177618   4.038   3.683   0.411
25792WAT     H277619   3.982   3.540   0.356
25793WAT      O77620   4.390   4.557   8.017
25793WAT     H177621   4.380   4.566   7.918
25793WAT     H277622   4.429   4.467   8.038
25794WAT      O77623   3.935   7.171   7.403
25794WAT     H177624   3.888   7.117   7.473
25794WAT     H277625   3.964   7.258   7.443
25795WAT      O77626   7.499   0.407   2.760
25795WAT     H177627   7.589   0.369   2.742
25795WAT     H277628   7.439   0.391   2.681
25796WAT      O77629   3.684   5.013   3.341
25796WAT     H177630   3.758   5.014   3.274
25796WAT     H277631   3.709   4.952   3.417
25797WAT      O77632   2.817   4.738   4.481
25797WAT     H177633   2.809   4.816   4.544
25797WAT     H277634   2.907   4.741   4.436
25798WAT      O77635   4.582   1.170   2.385
25798WAT     H177636   4.535   1.228   2.319
25798WAT     H277637   4.681   1.176   2.371
25799WAT      O77638   5.708   3.972   1.652
25799WAT     H177639   5.717   3.899   1.720
25799WAT     H277640   5.612   3.981   1.625
25800WAT      O77641   5.375   2.727   3.399
25800WAT     H177642   5.440   2.791   3.442
25800WAT     H277643   5.402   2.633   3.422
25801WAT      O77644   5.438   0.267   5.106
25801WAT     H177645   5.419   0.257   5.204
25801WAT     H277646   5.365   0.321   5.064
25802WAT      O77647   6.795   4.916   4.558
25802WAT     H177648   6.856   4.850   4.516
25802WAT     H277649   6.830   4.943   4.648
25803WAT      O77650   1.669   7.823   7.430
25803WAT     H177651   1.731   7.901   7.426
25803WAT     H277652   1.723   7.739   7.436
25804WAT      O77653   0.715   1.290   4.177
25804WAT     H177654   0.787   1.285   4.108
25804WAT     H277655   0.728   1.217   4.244
25805WAT      O77656   3.088   3.542   0.343
25805WAT     H177657   3.120   3.474   0.276
25805WAT     H277658   2.991   3.528   0.361
25806WAT      O77659   9.530   1.655   9.529
25806WAT     H177660   9.569   1.732   9.579
25806WAT     H277661   9.464   1.608   9.587
25807WAT      O77662   4.992   8.512   0.672
25807WAT     H177663   5.049   8.543   0.595
25807WAT     H277664   4.998   8.579   0.746
25808WAT      O77665   4.867   2.699   3.854
25808WAT     H177666   4.809   2.641   3.911
25808WAT     H277667   4.937   2.741   3.910
25809WAT      O77668   5.905   7.993   2.139
25809WAT     H177669   5.958   8.077   2.138
25809WAT     H277670   5.882   7.970   2.234
25810WAT      O77671   1.328   9.286   0.989
25810WAT     H177672   1.403   9.311   1.049
25810WAT     H277673   1.359   9.219   0.922
25811WAT      O77674   4.228   9.519   3.030
25811WAT     H177675   4.283   9.448   2.986
25811WAT     H277676   4.188   9.579   2.960
25812WAT      O77677   2.595   7.405   1.528
25812WAT     H177678   2.530   7.474   1.496
25812WAT     H277679   2.684   7.420   1.484
25813WAT      O77680   2.570   3.282   3.427
25813WAT     H177681   2.522   3.217   3.486
25813WAT     H277682   2.538   3.272   3.333
25814WAT      O77683   2.196   2.604   9.050
25814WAT     H177684   2.156   2.538   8.986
25814WAT     H277685   2.288   2.629   9.019
25815WAT      O77686   6.650   1.139   3.835
25815WAT     H177687   6.672   1.224   3.787
25815WAT     H277688   6.712   1.128   3.912
25816WAT      O77689   3.427   9.549   9.192
25816WAT     H177690   3.335   9.555   9.229
25816WAT     H277691   3.454   9.638   9.154
25817WAT      O77692   2.543   8.337   0.092
25817WAT     H177693   2.638   8.311   0.078
25817WAT     H277694   2.539   8.434   0.118
25818WAT      O77695   1.391   2.624   9.167
25818WAT     H177696   1.447   2.553   9.209
25818WAT     H277697   1.314   2.582   9.118
25819WAT      O77698   3.590   6.998   9.449
25819WAT     H177699   3.669   6.938   9.457
25819WAT     H277700   3.506   6.944   9.451
25820WAT      O77701   8.206   3.920   9.039
25820WAT     H177702   8.211   3.914   8.940
25820WAT     H277703   8.164   3.836   9.075
25821WAT      O77704   9.479   1.565   7.108
25821WAT     H177705   9.397   1.610   7.072
25821WAT     H277706   9.549   1.634   7.129
25822WAT      O77707   4.167   4.042   8.910
25822WAT     H177708   4.210   4.119   8.862
25822WAT     H277709   4.190   4.047   9.008
25823WAT      O77710   3.672   6.923   3.532
25823WAT     H177711   3.746   6.868   3.572
25823WAT     H277712   3.585   6.876   3.545
25824WAT      O77713   0.905   5.454   4.361
25824WAT     H177714   0.958   5.510   4.424
25824WAT     H277715   0.919   5.487   4.268
25825WAT      O77716   7.107   9.647   3.387
25825WAT     H177717   7.081   9.550   3.388
25825WAT     H277718   7.030   9.701   3.352
25826WAT      O77719   2.926   2.549   7.261
25826WAT     H177720   2.985   2.628   7.244
25826WAT     H277721   2.954   2.505   7.347
25827WAT      O77722   5.037   8.000   7.003
25827WAT     H177723   4.987   8.087   6.998
25827WAT     H277724   4.979   7.931   7.047
25828WAT      O77725   0.396   7.159   2.415
25828WAT     H177726   0.378   7.146   2.317
25828WAT     H277727   0.396   7.071   2.461
25829WAT      O77728   5.370   0.193   6.164
25829WAT     H177729   5.356   0.281   6.118
25829WAT     H277730   5.449   0.200   6.225
25830WAT      O77731   7.531   8.801   9.466
25830WAT     H177732   7.514   8.745   9.385
25830WAT     H277733   7.565   8.743   9.540
25831WAT      O77734   4.006   7.206   3.349
25831WAT     H177735   3.955   7.129   3.309
25831WAT     H277736   4.097   7.175   3.374
25832WAT      O77737   7.199   3.789   1.791
25832WAT     H177738   7.111   3.791   1.744
25832WAT     H277739   7.186   3.755   1.884
25833WAT      O77740   9.396   1.872   9.773
25833WAT     H177741   9.344   1.952   9.801
25833WAT     H277742   9.493   1.896   9.762
25834WAT      O77743   6.655   4.505   0.759
25834WAT     H177744   6.749   4.494   0.790
25834WAT     H277745   6.653   4.560   0.676
25835WAT      O77746   3.595   6.083   1.765
25835WAT     H177747   3.555   6.150   1.827
25835WAT     H277748   3.531   6.007   1.752
25836WAT      O77749   3.462   9.420   5.925
25836WAT     H177750   3.384   9.361   5.947
25836WAT     H277751   3.478   9.484   6.000
25837WAT      O77752   0.495   4.620   0.511
25837WAT     H177753   0.477   4.695   0.576
25837WAT     H277754   0.540   4.657   0.430
25838WAT      O77755   9.381   5.592   3.216
25838WAT     H177756   9.424   5.590   3.306
25838WAT     H277757   9.434   5.537   3.152
25839WAT      O77758   4.083   0.038   6.140
25839WAT     H177759   4.118   0.132   6.143
25839WAT     H277760   4.084  -0.001   6.232
25840WAT      O77761   2.250   8.881   2.085
25840WAT     H177762   2.245   8.972   2.044
25840WAT     H277763   2.331   8.875   2.143
25841WAT      O77764   4.418   8.578   7.589
25841WAT     H177765   4.327   8.620   7.598
25841WAT     H277766   4.416   8.511   7.515
25842WAT      O77767   2.168   0.610   5.610
25842WAT     H177768   2.144   0.513   5.612
25842WAT     H277769   2.214   0.635   5.695
25843WAT      O77770   1.979   6.248   9.538
25843WAT     H177771   1.993   6.168   9.597
25843WAT     H277772   1.962   6.217   9.444
25844WAT      O77773   4.062   7.470   8.582
25844WAT     H177774   4.156   7.447   8.605
25844WAT     H277775   4.035   7.420   8.500
25845WAT      O77776   8.118   2.769   9.073
25845WAT     H177777   8.133   2.861   9.036
25845WAT     H277778   8.052   2.773   9.147
25846WAT      O77779   1.041   7.749   4.076
25846WAT     H177780   0.975   7.780   4.144
25846WAT     H277781   1.128   7.795   4.091
25847WAT      O77782   6.517   7.304   7.829
25847WAT     H177783   6.596   7.320   7.770
25847WAT     H277784   6.443   7.262   7.776
25848WAT      O77785   5.564   2.022   0.000
25848WAT     H177786   5.530   2.116   0.000
25848WAT     H277787   5.488   1.959   0.017
25849WAT      O77788   1.215   4.579   4.665
25849WAT     H177789   1.254   4.514   4.599
25849WAT     H277790   1.235   4.672   4.635
25850WAT      O77791   1.453   0.723   9.556
25850WAT     H177792   1.410   0.641   9.594
25850WAT     H277793   1.392   0.801   9.569
25851WAT      O77794   8.946   8.485   5.524
25851WAT     H177795   8.898   8.421   5.585
25851WAT     H277796   8.988   8.557   5.579
25852WAT      O77797   0.967   9.267   3.685
25852WAT     H177798   1.007   9.273   3.594
25852WAT     H277799   0.940   9.358   3.716
25853WAT      O77800   7.372   8.650   7.050
25853WAT     H177801   7.423   8.734   7.031
25853WAT     H277802   7.436   8.576   7.070
25854WAT      O77803   4.853   3.026   6.511
25854WAT     H177804   4.907   3.110   6.504
25854WAT     H277805   4.775   3.041   6.571
25855WAT      O77806   2.669   5.146   3.089
25855WAT     H177807   2.733   5.131   3.014
25855WAT     H277808   2.712   5.119   3.175
25856WAT      O77809   5.080   3.124   8.507
25856WAT     H177810   5.017   3.200   8.521
25856WAT     H277811   5.040   3.040   8.544
25857WAT      O77812   8.997   7.573   5.521
25857WAT     H177813   9.073   7.507   5.519
25857WAT     H277814   9.030   7.659   5.559
25858WAT      O77815   7.761   4.285   6.277
25858WAT     H177816   7.697   4.208   6.279
25858WAT     H277817   7.777   4.312   6.182
25859WAT      O77818   3.881   8.096   8.621
25859WAT     H177819   3.931   8.109   8.535
25859WAT     H277820   3.888   8.180   8.676
25860WAT      O77821   9.886   7.044   0.428
25860WAT     H177822   9.798   7.064   0.385
25860WAT     H277823   9.872   7.007   0.519
25861WAT      O77824   0.101   1.807   3.336
25861WAT     H177825   0.189   1.854   3.343
25861WAT     H277826   0.042   1.855   3.270
25862WAT      O77827   5.992   3.525   5.724
25862WAT     H177828   6.086   3.493   5.710
25862WAT     H277829   5.958   3.491   5.812
25863WAT      O77830   7.487   1.064   4.478
25863WAT     H177831   7.523   1.123   4.406
25863WAT     H277832   7.387   1.062   4.473
25864WAT      O77833   1.729   0.502   8.200
25864WAT     H177834   1.638   0.543   8.206
25864WAT     H277835   1.791   0.548   8.263
25865WAT      O77836   6.612   5.736   2.317
25865WAT     H177837   6.663   5.795   2.380
25865WAT     H277838   6.671   5.662   2.286
25866WAT      O77839   1.130   4.381   5.525
25866WAT     H177840   1.089   4.365   5.615
25866WAT     H277841   1.096   4.314   5.460
25867WAT      O77842   8.895   6.272   0.573
25867WAT     H177843   8.832   6.349   0.566
25867WAT     H277844   8.941   6.274   0.662
25868WAT      O77845   9.772   1.930   2.638
25868WAT     H177846   9.681   1.890   2.631
25868WAT     H277847   9.766   2.029   2.634
25869WAT      O77848   4.834   9.827   6.527
25869WAT     H177849   4.908   9.818   6.461
25869WAT     H277850   4.772   9.900   6.498
25870WAT      O77851   8.389   4.960   9.588
25870WAT     H177852   8.422   5.054   9.577
25870WAT     H277853   8.439   4.900   9.526
25871WAT      O77854   9.465   4.142   8.373
25871WAT     H177855   9.559   4.134   8.339
25871WAT     H277856   9.410   4.192   8.307
25872WAT      O77857   4.644   0.317   5.489
25872WAT     H177858   4.656   0.412   5.459
25872WAT     H277859   4.637   0.258   5.409
25873WAT      O77860   5.872   0.560   8.616
25873WAT     H177861   5.902   0.529   8.706
25873WAT     H277862   5.806   0.635   8.627
25874WAT      O77863   2.341   4.143   1.109
25874WAT     H177864   2.423   4.187   1.145
25874WAT     H277865   2.288   4.104   1.184
25875WAT      O77866   0.489   0.483   7.414
25875WAT     H177867   0.486   0.383   7.420
25875WAT     H277868   0.400   0.518   7.385
25876WAT      O77869   4.876   1.739   6.009
25876WAT     H177870   4.798   1.787   5.968
25876WAT     H277871   4.903   1.664   5.949
25877WAT      O77872   9.321   1.930   2.092
25877WAT     H177873   9.242   1.989   2.080
25877WAT     H277874   9.405   1.984   2.085
25878WAT      O77875   7.361   7.829   2.963
25878WAT     H177876   7.414   7.765   2.908
25878WAT     H277877   7.311   7.779   3.034
25879WAT      O77878   3.208   9.101   0.534
25879WAT     H177879   3.238   9.187   0.575
25879WAT     H277880   3.162   9.046   0.603
25880WAT      O77881   3.589   8.594   7.685
25880WAT     H177882   3.567   8.653   7.607
25880WAT     H277883   3.563   8.500   7.664
25881WAT      O77884   7.924   4.527   8.625
25881WAT     H177885   7.947   4.602   8.688
25881WAT     H277886   8.002   4.466   8.616
25882WAT      O77887   7.066   1.462   6.806
25882WAT     H177888   7.137   1.400   6.773
25882WAT     H277889   7.093   1.556   6.788
25883WAT      O77890   8.327   8.115   6.155
25883WAT     H177891   8.291   8.208   6.168
25883WAT     H277892   8.342   8.072   6.243
25884WAT      O77893   3.375   0.695   9.095
25884WAT     H177894   3.391   0.735   9.185
25884WAT     H277895   3.278   0.676   9.083
25885WAT      O77896   2.483   3.834   6.873
25885WAT     H177897   2.445   3.925   6.855
25885WAT     H277898   2.490   3.820   6.972
25886WAT      O77899   5.736   9.024   3.508
25886WAT     H177900   5.727   8.925   3.518
25886WAT     H277901   5.691   9.053   3.423
25887WAT      O77902   4.569   5.343   6.379
25887WAT     H177903   4.473   5.334   6.353
25887WAT     H277904   4.577   5.340   6.479
25888WAT      O77905   6.075   6.924   6.252
25888WAT     H177906   6.078   6.825   6.263
25888WAT     H277907   6.128   6.968   6.324
25889WAT      O77908   5.503   8.264   5.177
25889WAT     H177909   5.414   8.297   5.146
25889WAT     H277910   5.574   8.295   5.114
25890WAT      O77911   7.974   6.412   6.516
25890WAT     H177912   8.074   6.410   6.519
25890WAT     H277913   7.940   6.330   6.470
25891WAT      O77914   0.950   6.420   4.427
25891WAT     H177915   1.014   6.481   4.382
25891WAT     H277916   0.896   6.471   4.494
25892WAT      O77917   4.028   4.653   3.238
25892WAT     H177918   4.098   4.677   3.170
25892WAT     H277919   4.042   4.559   3.268
25893WAT      O77920   3.955   7.254   9.400
25893WAT     H177921   3.976   7.350   9.418
25893WAT     H277922   3.864   7.232   9.437
25894WAT      O77923   0.938   7.970   8.953
25894WAT     H177924   0.973   8.054   8.995
25894WAT     H277925   0.880   7.993   8.875
25895WAT      O77926   8.602   0.277   7.577
25895WAT     H177927   8.658   0.255   7.497
25895WAT     H277928   8.518   0.322   7.548
25896WAT      O77929   3.152   3.621   1.788
25896WAT     H177930   3.097   3.642   1.707
25896WAT     H277931   3.097   3.569   1.853
25897WAT      O77932   6.374   0.550   7.583
25897WAT     H177933   6.389   0.456   7.553
25897WAT     H277934   6.444   0.575   7.650
25898WAT      O77935   1.023   2.073   2.859
25898WAT     H177936   0.948   2.018   2.824
25898WAT     H277937   1.110   2.031   2.833
25899WAT      O77938   8.559   2.372   3.014
25899WAT     H177939   8.525   2.425   3.092
25899WAT     H277940   8.549   2.426   2.931
25900WAT      O77941   0.338   7.307   6.841
25900WAT     H177942   0.278   7.231   6.867
25900WAT     H277943   0.376   7.289   6.751
25901WAT      O77944   8.097   2.727   7.900
25901WAT     H177945   8.156   2.735   7.819
25901WAT     H277946   8.039   2.808   7.907
25902WAT      O77947   2.907   0.424   1.890
25902WAT     H177948   2.827   0.441   1.833
25902WAT     H277949   2.942   0.332   1.874
25903WAT      O77950   7.181   2.044   6.495
25903WAT     H177951   7.246   2.001   6.556
25903WAT     H277952   7.229   2.087   6.419
25904WAT      O77953   5.311   1.485   2.318
25904WAT     H177954   5.217   1.479   2.283
25904WAT     H277955   5.374   1.455   2.247
25905WAT      O77956   4.098   5.477   2.389
25905WAT     H177957   4.058   5.530   2.315
25905WAT     H277958   4.145   5.397   2.352
25906WAT      O77959   2.486   5.178   3.305
25906WAT     H177960   2.438   5.090   3.313
25906WAT     H277961   2.543   5.178   3.224
25907WAT      O77962   5.448   1.145   7.868
25907WAT     H177963   5.482   1.098   7.949
25907WAT     H277964   5.524   1.167   7.807
25908WAT      O77965   9.058   3.308   2.739
25908WAT     H177966   9.143   3.359   2.729
25908WAT     H277967   9.070   3.234   2.805
25909WAT      O77968   1.307   6.154   6.870
25909WAT     H177969   1.268   6.117   6.787
25909WAT     H277970   1.267   6.244   6.888
25910WAT      O77971   3.313   0.940   7.966
25910WAT     H177972   3.329   1.035   7.941
25910WAT     H277973   3.376   0.881   7.915
25911WAT      O77974   6.497   1.512   8.543
25911WAT     H177975   6.520   1.609   8.536
25911WAT     H277976   6.551   1.471   8.617
25912WAT      O77977   4.894   3.885   7.133
25912WAT     H177978   4.960   3.928   7.071
25912WAT     H277979   4.801   3.902   7.100
25913WAT      O77980   0.643   4.562   2.456
25913WAT     H177981   0.643   4.464   2.437
25913WAT     H277982   0.713   4.583   2.524
25914WAT      O77983   9.802   0.120   2.035
25914WAT     H177984   9.770   0.055   1.966
25914WAT     H277985   9.875   0.176   1.996
25915WAT      O77986   9.278   7.555   2.753
25915WAT     H177987   9.312   7.626   2.692
25915WAT     H277988   9.182   7.535   2.731
25916WAT      O77989   6.920   8.146   9.594
25916WAT     H177990   6.892   8.236   9.627
25916WAT     H277991   6.967   8.097   9.667
25917WAT      O77992   7.072   4.059   8.653
25917WAT     H177993   7.020   4.138   8.622
25917WAT     H277994   7.012   3.997   8.704
25918WAT      O77995   7.105   7.462   0.372
25918WAT     H177996   7.015   7.502   0.355
25918WAT     H277997   7.129   7.473   0.469
25919WAT      O77998   4.322   9.253   2.573
25919WAT     H177999   4.248   9.232   2.509
25919WAT     H278000   4.409   9.218   2.536
25920WAT      O78001   8.841   1.420   0.290
25920WAT     H178002   8.932   1.425   0.330
25920WAT     H278003   8.841   1.353   0.215
25921WAT      O78004   4.740   6.697   7.626
25921WAT     H178005   4.814   6.710   7.692
25921WAT     H278006   4.654   6.728   7.666
25922WAT      O78007   6.017   8.443   4.746
25922WAT     H178008   5.981   8.436   4.653
25922WAT     H278009   6.112   8.412   4.747
25923WAT      O78010   3.690   2.974   2.060
25923WAT     H178011   3.736   2.907   2.118
25923WAT     H278012   3.725   3.066   2.082
25924WAT      O78013   5.168   4.534   8.398
25924WAT     H178014   5.122   4.511   8.312
25924WAT     H278015   5.176   4.633   8.406
25925WAT      O78016   7.117   5.602   1.765
25925WAT     H178017   7.085   5.675   1.706
25925WAT     H278018   7.127   5.518   1.712
25926WAT      O78019   0.971   4.773   4.920
25926WAT     H178020   0.953   4.688   4.870
25926WAT     H278021   0.887   4.802   4.967
25927WAT      O78022   3.839   6.227   7.502
25927WAT     H178023   3.848   6.224   7.402
25927WAT     H278024   3.835   6.322   7.532
25928WAT      O78025   6.872   2.338   7.791
25928WAT     H178026   6.917   2.251   7.813
25928WAT     H278027   6.905   2.371   7.703
25929WAT      O78028   5.135   6.181   2.717
25929WAT     H178029   5.161   6.235   2.797
25929WAT     H278030   5.199   6.199   2.642
25930WAT      O78031   1.013   5.975   8.478
25930WAT     H178032   0.924   5.956   8.437
25930WAT     H278033   1.007   5.963   8.577
25931WAT      O78034   2.502   1.560   4.851
25931WAT     H178035   2.496   1.649   4.896
25931WAT     H278036   2.476   1.489   4.916
25932WAT      O78037   8.776   6.176   3.042
25932WAT     H178038   8.710   6.236   2.997
25932WAT     H278039   8.768   6.185   3.141
25933WAT      O78040   0.553   7.014   0.124
25933WAT     H178041   0.545   7.011   0.224
25933WAT     H278042   0.495   6.943   0.084
25934WAT      O78043   4.497   9.257   8.425
25934WAT     H178044   4.589   9.229   8.400
25934WAT     H278045   4.453   9.183   8.477
25935WAT      O78046   5.648   6.710   6.979
25935WAT     H178047   5.714   6.727   6.906
25935WAT     H278048   5.696   6.679   7.061
25936WAT      O78049   5.931   2.446   6.320
25936WAT     H178050   5.887   2.534   6.337
25936WAT     H278051   5.967   2.444   6.227
25937WAT      O78052   7.807   7.068   8.811
25937WAT     H178053   7.792   7.005   8.887
25937WAT     H278054   7.894   7.115   8.824
25938WAT      O78055   5.327   7.480   4.465
25938WAT     H178056   5.282   7.420   4.399
25938WAT     H278057   5.388   7.543   4.417
25939WAT      O78058   5.954   8.440   6.059
25939WAT     H178059   5.885   8.475   5.995
25939WAT     H278060   6.030   8.505   6.064
25940WAT      O78061   8.163   0.967   1.146
25940WAT     H178062   8.222   1.045   1.129
25940WAT     H278063   8.118   0.977   1.235
25941WAT      O78064   4.856   9.824   2.050
25941WAT     H178065   4.920   9.866   1.985
25941WAT     H278066   4.908   9.772   2.118
25942WAT      O78067   2.440   8.025   5.321
25942WAT     H178068   2.400   8.043   5.230
25942WAT     H278069   2.372   7.980   5.379
25943WAT      O78070   4.454   8.417   8.173
25943WAT     H178071   4.359   8.439   8.193
25943WAT     H278072   4.481   8.336   8.224
25944WAT      O78073   1.813   2.449   4.287
25944WAT     H178074   1.889   2.390   4.259
25944WAT     H278075   1.737   2.392   4.320
25945WAT      O78076   2.648   0.181   3.655
25945WAT     H178077   2.667   0.089   3.623
25945WAT     H278078   2.722   0.212   3.715
25946WAT      O78079   7.624   2.428   0.420
25946WAT     H178080   7.694   2.375   0.371
25946WAT     H278081   7.654   2.444   0.514
25947WAT      O78082   9.042   0.725   8.246
25947WAT     H178083   9.122   0.717   8.305
25947WAT     H278084   9.064   0.783   8.168
25948WAT      O78085   1.258   9.682   3.349
25948WAT     H178086   1.296   9.741   3.277
25948WAT     H278087   1.172   9.642   3.317
25949WAT      O78088   6.839   0.998   8.255
25949WAT     H178089   6.781   1.079   8.245
25949WAT     H278090   6.934   1.024   8.234
25950WAT      O78091   0.918   5.141   2.382
25950WAT     H178092   0.932   5.165   2.477
25950WAT     H278093   0.823   5.116   2.367
25951WAT      O78094   3.449   4.331   1.739
25951WAT     H178095   3.483   4.341   1.646
25951WAT     H278096   3.480   4.409   1.794
25952WAT      O78097   4.456   9.037   1.781
25952WAT     H178098   4.522   9.036   1.706
25952WAT     H278099   4.469   8.957   1.839
25953WAT      O78100   9.769   6.588   8.573
25953WAT     H178101   9.754   6.600   8.475
25953WAT     H278102   9.865   6.564   8.590
25954WAT      O78103   5.698   8.480   3.936
25954WAT     H178104   5.658   8.486   4.027
25954WAT     H278105   5.703   8.571   3.895
25955WAT      O78106   1.912   0.825   7.623
25955WAT     H178107   1.831   0.872   7.588
25955WAT     H278108   1.907   0.728   7.600
25956WAT      O78109   5.379   4.661   7.735
25956WAT     H178110   5.375   4.563   7.753
25956WAT     H278111   5.470   4.686   7.703
25957WAT      O78112   4.730   7.212   9.722
25957WAT     H178113   4.648   7.193   9.669
25957WAT     H278114   4.758   7.307   9.708
25958WAT      O78115   4.395   6.614   6.437
25958WAT     H178116   4.347   6.700   6.452
25958WAT     H278117   4.351   6.564   6.362
25959WAT      O78118   3.603   1.493   8.627
25959WAT     H178119   3.669   1.521   8.697
25959WAT     H278120   3.638   1.514   8.536
25960WAT      O78121   7.499   6.125   4.118
25960WAT     H178122   7.522   6.061   4.044
25960WAT     H278123   7.405   6.109   4.148
25961WAT      O78124   0.255   5.716   1.032
25961WAT     H178125   0.276   5.653   1.106
25961WAT     H278126   0.211   5.667   0.957
25962WAT      O78127   6.979   5.986   0.458
25962WAT     H178128   6.922   5.940   0.526
25962WAT     H278129   7.014   5.919   0.393
25963WAT      O78130   7.562   4.017   3.691
25963WAT     H178131   7.606   3.927   3.684
25963WAT     H278132   7.489   4.024   3.623
25964WAT      O78133   8.894   3.455   8.211
25964WAT     H178134   8.953   3.432   8.288
25964WAT     H278135   8.898   3.554   8.195
25965WAT      O78136   4.572   8.675   8.256
25965WAT     H178137   4.545   8.590   8.210
25965WAT     H278138   4.545   8.753   8.200
25966WAT      O78139   5.496   4.296   2.006
25966WAT     H178140   5.481   4.267   1.911
25966WAT     H278141   5.470   4.392   2.015
25967WAT      O78142   4.286   2.237   2.565
25967WAT     H178143   4.236   2.152   2.582
25967WAT     H278144   4.221   2.309   2.540
25968WAT      O78145   2.616   9.808   6.197
25968WAT     H178146   2.708   9.832   6.227
25968WAT     H278147   2.575   9.745   6.263
25969WAT      O78148   1.715   0.807   5.862
25969WAT     H178149   1.751   0.772   5.948
25969WAT     H278150   1.781   0.791   5.789
25970WAT      O78151   8.321   7.791   8.324
25970WAT     H178152   8.372   7.707   8.345
25970WAT     H278153   8.242   7.768   8.267
25971WAT      O78154   3.929   6.294   0.524
25971WAT     H178155   3.888   6.283   0.434
25971WAT     H278156   3.858   6.308   0.592
25972WAT      O78157   9.505   4.847   8.156
25972WAT     H178158   9.549   4.934   8.179
25972WAT     H278159   9.575   4.781   8.130
25973WAT      O78160   7.365   4.180   9.658
25973WAT     H178161   7.450   4.142   9.622
25973WAT     H278162   7.371   4.280   9.660
25974WAT      O78163   0.560   1.759   6.779
25974WAT     H178164   0.486   1.697   6.805
25974WAT     H278165   0.526   1.854   6.782
25975WAT      O78166   4.760   6.623   9.083
25975WAT     H178167   4.823   6.563   9.132
25975WAT     H278168   4.791   6.635   8.989
25976WAT      O78169   7.133   1.915   9.681
25976WAT     H178170   7.116   1.823   9.644
25976WAT     H278171   7.227   1.921   9.714
25977WAT      O78172   6.390   6.294   8.020
25977WAT     H178173   6.308   6.337   7.979
25977WAT     H278174   6.472   6.338   7.983
25978WAT      O78175   7.151   8.202   7.587
25978WAT     H178176   7.249   8.206   7.568
25978WAT     H278177   7.136   8.209   7.686
25979WAT      O78178   1.471   5.025   6.173
25979WAT     H178179   1.500   5.065   6.086
25979WAT     H278180   1.541   4.961   6.205
25980WAT      O78181   1.519   7.833   3.083
25980WAT     H178182   1.447   7.764   3.091
25980WAT     H278183   1.499   7.893   3.005
25981WAT      O78184   5.363   9.623   0.494
25981WAT     H178185   5.341   9.706   0.442
25981WAT     H278186   5.440   9.576   0.450
25982WAT      O78187   6.280   2.957   4.155
25982WAT     H178188   6.309   3.051   4.173
25982WAT     H278189   6.219   2.926   4.228
25983WAT      O78190   2.984   3.119   8.813
25983WAT     H178191   2.999   3.209   8.771
25983WAT     H278192   3.027   3.049   8.756
25984WAT      O78193   6.196   4.197   6.627
25984WAT     H178194   6.122   4.181   6.562
25984WAT     H278195   6.163   4.179   6.719
25985WAT      O78196   9.568   1.067   2.620
25985WAT     H178197   9.611   1.080   2.531
25985WAT     H278198   9.518   1.150   2.646
25986WAT      O78199   5.347   2.130   2.970
25986WAT     H178200   5.430   2.141   3.025
25986WAT     H278201   5.270   2.109   3.030
25987WAT      O78202   9.400   3.915   0.064
25987WAT     H178203   9.306   3.902   0.034
25987WAT     H278204   9.463   3.879  -0.005
25988WAT      O78205   9.365   9.709   1.647
25988WAT     H178206   9.459   9.710   1.612
25988WAT     H278207   9.308   9.767   1.589
25989WAT      O78208   2.643   2.273   8.207
25989WAT     H178209   2.732   2.230   8.195
25989WAT     H278210   2.571   2.205   8.196
25990WAT      O78211   0.395   0.982   1.830
25990WAT     H178212   0.393   0.969   1.731
25990WAT     H278213   0.427   1.074   1.851
25991WAT      O78214   0.227   8.908   0.439
25991WAT     H178215   0.139   8.948   0.465
25991WAT     H278216   0.225   8.810   0.456
25992WAT      O78217   0.230   5.523   8.212
25992WAT     H178218   0.170   5.449   8.181
25992WAT     H278219   0.176   5.592   8.258
25993WAT      O78220   5.521   3.495   2.385
25993WAT     H178221   5.450   3.431   2.412
25993WAT     H278222   5.611   3.455   2.405
25994WAT      O78223   0.123   0.648   1.641
25994WAT     H178224   0.121   0.746   1.660
25994WAT     H278225   0.062   0.601   1.704
25995WAT      O78226   3.940   7.045   6.800
25995WAT     H178227   3.886   7.018   6.720
25995WAT     H278228   3.882   7.046   6.881
25996WAT      O78229   2.435   1.656   9.682
25996WAT     H178230   2.440   1.618   9.590
25996WAT     H278231   2.437   1.756   9.676
25997WAT      O78232   0.670   1.874   6.512
25997WAT     H178233   0.634   1.892   6.603
25997WAT     H278234   0.596   1.841   6.453
25998WAT      O78235   4.486   6.470   7.191
25998WAT     H178236   4.405   6.520   7.222
25998WAT     H278237   4.527   6.518   7.113
25999WAT      O78238   8.830   0.765   1.996
25999WAT     H178239   8.826   0.819   1.912
25999WAT     H278240   8.922   0.729   2.009
26000WAT      O78241   7.871   8.413   8.201
26000WAT     H178242   7.870   8.432   8.299
26000WAT     H278243   7.952   8.359   8.179
26001WAT      O78244   4.177   5.004   0.299
26001WAT     H178245   4.216   5.047   0.380
26001WAT     H278246   4.246   4.950   0.253
26002WAT      O78247   5.297   9.407   6.298
26002WAT     H178248   5.290   9.451   6.208
26002WAT     H278249   5.222   9.342   6.309
26003WAT      O78250  -0.001   3.211   9.642
26003WAT     H178251   0.010   3.188   9.546
26003WAT     H278252   0.076   3.267   9.672
26004WAT      O78253   1.614   6.352   4.793
26004WAT     H178254   1.691   6.400   4.748
26004WAT     H278255   1.528   6.387   4.757
26005WAT      O78256   7.157   9.298   4.310
26005WAT     H178257   7.251   9.275   4.332
26005WAT     H278258   7.103   9.214   4.301
26006WAT      O78259   7.857   3.308   3.150
26006WAT     H178260   7.941   3.270   3.110
26006WAT     H278261   7.781   3.245   3.134
26007WAT      O78262   1.221   1.839   5.528
26007WAT     H178263   1.174   1.792   5.603
26007WAT     H278264   1.168   1.918   5.500
26008WAT      O78265   2.511   6.768   3.986
26008WAT     H178266   2.434   6.707   3.967
26008WAT     H278267   2.565   6.782   3.903
26009WAT      O78268   0.818   3.649   7.599
26009WAT     H178269   0.778   3.612   7.515
26009WAT     H278270   0.907   3.689   7.578
26010WAT      O78271   4.397   3.697   5.511
26010WAT     H178272   4.407   3.781   5.456
26010WAT     H278273   4.308   3.656   5.492
26011WAT      O78274   8.363   8.488   0.587
26011WAT     H178275   8.359   8.574   0.638
26011WAT     H278276   8.280   8.435   0.605
26012WAT      O78277   4.327   1.230   1.896
26012WAT     H178278   4.296   1.199   1.807
26012WAT     H278279   4.427   1.228   1.900
26013WAT      O78280   4.385   1.184   2.981
26013WAT     H178281   4.364   1.279   2.958
26013WAT     H278282   4.439   1.181   3.066
26014WAT      O78283   6.535   5.672   3.821
26014WAT     H178284   6.440   5.697   3.808
26014WAT     H278285   6.564   5.698   3.914
26015WAT      O78286   0.048   4.313   2.169
26015WAT     H178287   0.104   4.315   2.086
26015WAT     H278288   0.052   4.402   2.215
26016WAT      O78289   4.464   2.988   6.711
26016WAT     H178290   4.554   2.972   6.752
26016WAT     H278291   4.455   3.085   6.687
26017WAT      O78292   9.290   0.552   2.535
26017WAT     H178293   9.217   0.571   2.600
26017WAT     H278294   9.349   0.633   2.525
26018WAT      O78295   4.304   0.497   5.050
26018WAT     H178296   4.367   0.454   5.115
26018WAT     H278297   4.210   0.474   5.074
26019WAT      O78298   0.359   7.919   1.837
26019WAT     H178299   0.389   8.011   1.862
26019WAT     H278300   0.269   7.924   1.794
26020WAT      O78301   0.959   2.259   8.998
26020WAT     H178302   0.944   2.357   9.012
26020WAT     H278303   0.895   2.226   8.929
26021WAT      O78304   9.745   5.586   1.062
26021WAT     H178305   9.763   5.637   1.146
26021WAT     H278306   9.686   5.641   1.003
26022WAT      O78307   5.627   1.776   2.732
26022WAT     H178308   5.576   1.769   2.817
26022WAT     H278309   5.570   1.745   2.656
26023WAT      O78310   3.950   1.947   9.296
26023WAT     H178311   4.013   1.915   9.367
26023WAT     H278312   3.867   1.984   9.339
26024WAT      O78313   0.683   0.867   5.898
26024WAT     H178314   0.641   0.935   5.958
26024WAT     H278315   0.723   0.913   5.819
26025WAT      O78316   6.769   8.861   7.758
26025WAT     H178317   6.742   8.829   7.668
26025WAT     H278318   6.726   8.949   7.777
26026WAT      O78319   9.434   9.842   5.363
26026WAT     H178320   9.468   9.758   5.321
26026WAT     H278321   9.511   9.904   5.381
26027WAT      O78322   2.711   6.813   1.598
26027WAT     H178323   2.766   6.861   1.530
26027WAT     H278324   2.733   6.847   1.689
26028WAT      O78325   4.827   0.668   9.235
26028WAT     H178326   4.774   0.719   9.167
26028WAT     H278327   4.772   0.593   9.271
26029WAT      O78328   4.697   7.508   8.284
26029WAT     H178329   4.736   7.422   8.317
26029WAT     H278330   4.606   7.520   8.323
26030WAT      O78331   8.474   0.057   1.894
26030WAT     H178332   8.510  -0.018   1.950
26030WAT     H278333   8.438   0.020   1.808
26031WAT      O78334   1.070   6.697   6.756
26031WAT     H178335   0.991   6.644   6.788
26031WAT     H278336   1.059   6.719   6.660
26032WAT      O78337   2.429   3.430   1.692
26032WAT     H178338   2.379   3.505   1.649
26032WAT     H278339   2.478   3.464   1.772
26033WAT      O78340   2.758   1.239   5.040
26033WAT     H178341   2.764   1.149   5.083
26033WAT     H278342   2.757   1.309   5.111
26034WAT      O78343   0.249   4.824   1.453
26034WAT     H178344   0.338   4.838   1.410
26034WAT     H278345   0.250   4.739   1.506
26035WAT      O78346   4.153   4.450   8.954
26035WAT     H178347   4.065   4.430   8.910
26035WAT     H278348   4.222   4.385   8.921
26036WAT      O78349   7.130   4.780   1.289
26036WAT     H178350   7.141   4.753   1.385
26036WAT     H278351   7.134   4.880   1.283
26037WAT      O78352   8.300   1.225   6.994
26037WAT     H178353   8.237   1.220   6.916
26037WAT     H278354   8.390   1.190   6.967
26038WAT      O78355   4.986   6.059   7.644
26038WAT     H178356   4.897   6.041   7.601
26038WAT     H278357   5.055   6.072   7.573
26039WAT      O78358   9.630   3.409   4.871
26039WAT     H178359   9.634   3.405   4.971
26039WAT     H278360   9.647   3.318   4.833
26040WAT      O78361   6.211   5.285   9.330
26040WAT     H178362   6.136   5.258   9.391
26040WAT     H278363   6.231   5.382   9.344
26041WAT      O78364   8.282   5.636   2.220
26041WAT     H178365   8.223   5.565   2.182
26041WAT     H278366   8.318   5.693   2.146
26042WAT      O78367   8.831   8.503   1.213
26042WAT     H178368   8.736   8.531   1.205
26042WAT     H278369   8.882   8.534   1.132
26043WAT      O78370   5.462   5.152   2.434
26043WAT     H178371   5.370   5.114   2.425
26043WAT     H278372   5.467   5.237   2.380
26044WAT      O78373   8.897   3.196   0.262
26044WAT     H178374   8.973   3.221   0.202
26044WAT     H278375   8.874   3.274   0.320
26045WAT      O78376   2.294   4.351   7.876
26045WAT     H178377   2.374   4.295   7.900
26045WAT     H278378   2.310   4.446   7.904
26046WAT      O78379   1.011   2.589   4.982
26046WAT     H178380   1.091   2.602   5.041
26046WAT     H278381   0.930   2.627   5.027
26047WAT      O78382   6.753   7.319   7.700
26047WAT     H178383   6.851   7.334   7.692
26047WAT     H278384   6.708   7.346   7.615
26048WAT      O78385   2.947   3.406   3.364
26048WAT     H178386   3.034   3.358   3.351
26048WAT     H278387   2.910   3.382   3.454
26049WAT      O78388   1.710   6.772   7.594
26049WAT     H178389   1.797   6.793   7.639
26049WAT     H278390   1.723   6.695   7.532
26050WAT      O78391   7.982   6.737   8.437
26050WAT     H178392   7.926   6.808   8.479
26050WAT     H278393   8.028   6.773   8.355
26051WAT      O78394   3.928   8.748   3.424
26051WAT     H178395   4.002   8.694   3.464
26051WAT     H278396   3.948   8.846   3.435
26052WAT      O78397   2.966   5.781   8.117
26052WAT     H178398   2.956   5.878   8.097
26052WAT     H278399   3.055   5.748   8.085
26053WAT      O78400   0.773   6.708   3.705
26053WAT     H178401   0.689   6.685   3.655
26053WAT     H278402   0.846   6.645   3.678
26054WAT      O78403   2.771   3.930   4.491
26054WAT     H178404   2.708   3.896   4.561
26054WAT     H278405   2.793   4.026   4.509
26055WAT      O78406   2.373   1.871   0.613
26055WAT     H178407   2.472   1.877   0.627
26055WAT     H278408   2.350   1.912   0.524
26056WAT      O78409   2.370   3.148   8.260
26056WAT     H178410   2.273   3.164   8.281
26056WAT     H278411   2.420   3.131   8.345
26057WAT      O78412   6.288   6.240   3.891
26057WAT     H178413   6.201   6.283   3.868
26057WAT     H278414   6.279   6.140   3.884
26058WAT      O78415   5.210   7.284   8.970
26058WAT     H178416   5.251   7.363   9.016
26058WAT     H278417   5.282   7.221   8.940
26059WAT      O78418   4.575   5.610   8.738
26059WAT     H178419   4.476   5.600   8.740
26059WAT     H278420   4.612   5.561   8.659
26060WAT      O78421   3.443   5.299   2.240
26060WAT     H178422   3.541   5.318   2.233
26060WAT     H278423   3.392   5.361   2.180
26061WAT      O78424   5.138   1.572   3.812
26061WAT     H178425   5.162   1.535   3.722
26061WAT     H278426   5.165   1.508   3.883
26062WAT      O78427   2.376   5.887   4.307
26062WAT     H178428   2.445   5.824   4.343
26062WAT     H278429   2.418   5.976   4.287
26063WAT      O78430   9.828   0.335   1.599
26063WAT     H178431   9.763   0.299   1.532
26063WAT     H278432   9.803   0.306   1.691
26064WAT      O78433   1.139   6.521   5.872
26064WAT     H178434   1.206   6.516   5.946
26064WAT     H278435   1.124   6.617   5.847
26065WAT      O78436   8.061   4.768   7.022
26065WAT     H178437   7.986   4.834   7.020
26065WAT     H278438   8.140   4.806   6.973
26066WAT      O78439   9.402   4.561   6.755
26066WAT     H178440   9.400   4.601   6.846
26066WAT     H278441   9.483   4.593   6.706
26067WAT      O78442   6.921   5.611   5.944
26067WAT     H178443   6.898   5.708   5.940
26067WAT     H278444   6.897   5.568   5.856
26068WAT      O78445   9.062   1.150   1.719
26068WAT     H178446   9.090   1.148   1.623
26068WAT     H278447   9.033   1.242   1.744
26069WAT      O78448   1.409   3.161   5.247
26069WAT     H178449   1.397   3.220   5.168
26069WAT     H278450   1.475   3.089   5.226
26070WAT      O78451   4.147   0.005   9.201
26070WAT     H178452   4.158   0.054   9.288
26070WAT     H278453   4.237  -0.015   9.163
26071WAT      O78454   3.899   7.205   2.098
26071WAT     H178455   3.907   7.173   2.004
26071WAT     H278456   3.981   7.258   2.122
26072WAT      O78457   3.517   1.959   5.337
26072WAT     H178458   3.594   1.986   5.395
26072WAT     H278459   3.456   2.038   5.325
26073WAT      O78460   2.105   6.675   3.528
26073WAT     H178461   2.037   6.744   3.550
26073WAT     H278462   2.193   6.700   3.570
26074WAT      O78463   9.028   2.040   3.953
26074WAT     H178464   9.038   2.039   3.854
26074WAT     H278465   8.945   1.992   3.979
26075WAT      O78466   8.546   8.699   6.485
26075WAT     H178467   8.474   8.696   6.555
26075WAT     H278468   8.572   8.794   6.468
26076WAT      O78469   4.310   9.142   1.508
26076WAT     H178470   4.221   9.186   1.502
26076WAT     H278471   4.349   9.133   1.416
26077WAT      O78472   6.147   9.420   8.766
26077WAT     H178473   6.243   9.408   8.744
26077WAT     H278474   6.103   9.331   8.777
26078WAT      O78475   1.257   7.241   0.440
26078WAT     H178476   1.221   7.203   0.354
26078WAT     H278477   1.310   7.171   0.487
26079WAT      O78478   5.231   5.041   2.472
26079WAT     H178479   5.208   5.028   2.376
26079WAT     H278480   5.257   4.953   2.513
26080WAT      O78481   6.496   1.953   6.783
26080WAT     H178482   6.408   1.966   6.738
26080WAT     H278483   6.546   2.040   6.786
26081WAT      O78484   8.366   0.576   6.351
26081WAT     H178485   8.440   0.550   6.288
26081WAT     H278486   8.390   0.546   6.444
26082WAT      O78487   7.716   5.860   2.623
26082WAT     H178488   7.797   5.914   2.603
26082WAT     H278489   7.706   5.787   2.555
26083WAT      O78490   2.583   0.814   2.637
26083WAT     H178491   2.560   0.898   2.686
26083WAT     H278492   2.526   0.807   2.555
26084WAT      O78493   1.955   1.632   1.954
26084WAT     H178494   1.974   1.721   1.994
26084WAT     H278495   1.877   1.639   1.891
26085WAT      O78496   3.771   7.565   4.009
26085WAT     H178497   3.749   7.637   4.075
26085WAT     H278498   3.701   7.494   4.012
26086WAT      O78499   2.274   4.106   3.292
26086WAT     H178500   2.287   4.024   3.349
26086WAT     H278501   2.183   4.143   3.309
26087WAT      O78502   0.648   2.781   8.210
26087WAT     H178503   0.583   2.707   8.190
26087WAT     H278504   0.621   2.827   8.295
26088WAT      O78505   6.378   8.731   6.959
26088WAT     H178506   6.405   8.667   7.031
26088WAT     H278507   6.360   8.821   6.998
26089WAT      O78508   4.094   0.046   0.536
26089WAT     H178509   4.095   0.006   0.627
26089WAT     H278510   4.108   0.145   0.543
26090WAT      O78511   4.433   0.012   2.984
26090WAT     H178512   4.347   0.020   3.035
26090WAT     H278513   4.414  -0.029   2.894
26091WAT      O78514   6.561   5.735   2.627
26091WAT     H178515   6.586   5.820   2.580
26091WAT     H278516   6.608   5.658   2.584
26092WAT      O78517   8.896   5.340   8.881
26092WAT     H178518   8.815   5.371   8.831
26092WAT     H278519   8.869   5.276   8.953
26093WAT      O78520   6.756   3.515   7.605
26093WAT     H178521   6.713   3.550   7.522
26093WAT     H278522   6.697   3.445   7.646
26094WAT      O78523   4.386   4.553   3.263
26094WAT     H178524   4.436   4.480   3.310
26094WAT     H278525   4.327   4.512   3.192
26095WAT      O78526   7.952   1.831   8.746
26095WAT     H178527   7.879   1.762   8.740
26095WAT     H278528   8.029   1.803   8.689
26096WAT      O78529   9.314   1.137   7.335
26096WAT     H178530   9.296   1.107   7.428
26096WAT     H278531   9.341   1.234   7.336
26097WAT      O78532   7.830   4.054   8.222
26097WAT     H178533   7.919   4.098   8.210
26097WAT     H278534   7.770   4.113   8.276
26098WAT      O78535   1.032   8.457   7.500
26098WAT     H178536   0.982   8.485   7.418
26098WAT     H278537   1.088   8.534   7.533
26099WAT      O78538   4.361   4.311   3.498
26099WAT     H178539   4.298   4.355   3.561
26099WAT     H278540   4.430   4.377   3.468
26100WAT      O78541   4.132   2.458   8.558
26100WAT     H178542   4.156   2.530   8.494
26100WAT     H278543   4.083   2.497   8.636
26101WAT      O78544   5.534   6.811   2.525
26101WAT     H178545   5.592   6.751   2.469
26101WAT     H278546   5.503   6.761   2.605
26102WAT      O78547   5.382   1.602   8.476
26102WAT     H178548   5.417   1.570   8.565
26102WAT     H278549   5.291   1.564   8.461
26103WAT      O78550   4.868   0.318   7.254
26103WAT     H178551   4.837   0.371   7.332
26103WAT     H278552   4.792   0.303   7.191
26104WAT      O78553   5.126   7.204   4.029
26104WAT     H178554   5.133   7.231   4.125
26104WAT     H278555   5.085   7.279   3.977
26105WAT      O78556   3.670   0.297   2.624
26105WAT     H178557   3.734   0.315   2.549
26105WAT     H278558   3.721   0.285   2.709
26106WAT      O78559   5.640   5.506   2.100
26106WAT     H178560   5.679   5.599   2.099
26106WAT     H278561   5.598   5.486   2.012
26107WAT      O78562   9.200   9.736   8.844
26107WAT     H178563   9.210   9.686   8.759
26107WAT     H278564   9.247   9.687   8.918
26108WAT      O78565   7.888   9.002   3.614
26108WAT     H178566   7.927   9.092   3.632
26108WAT     H278567   7.795   9.012   3.577
26109WAT      O78568   4.542   7.489   9.075
26109WAT     H178569   4.612   7.475   9.005
26109WAT     H278570   4.584   7.530   9.156
26110WAT      O78571   8.764   8.793   1.979
26110WAT     H178572   8.823   8.808   1.900
26110WAT     H278573   8.668   8.810   1.954
26111WAT      O78574   6.957   1.272   9.460
26111WAT     H178575   6.973   1.292   9.363
26111WAT     H278576   7.035   1.222   9.497
26112WAT      O78577   1.198   3.218   4.561
26112WAT     H178578   1.214   3.302   4.509
26112WAT     H278579   1.262   3.214   4.638
26113WAT      O78580   8.594   3.720   3.338
26113WAT     H178581   8.526   3.783   3.301
26113WAT     H278582   8.573   3.627   3.308
26114WAT      O78583   4.695   1.909   0.026
26114WAT     H178584   4.673   1.875  -0.065
26114WAT     H278585   4.736   1.836   0.080
26115WAT      O78586   8.973   9.044   4.501
26115WAT     H178587   9.049   9.097   4.462
26115WAT     H278588   8.978   9.046   4.601
26116WAT      O78589   8.320   6.003   1.153
26116WAT     H178590   8.268   5.928   1.112
26116WAT     H278591   8.418   5.988   1.140
26117WAT      O78592   0.472   6.507   0.604
26117WAT     H178593   0.536   6.441   0.565
26117WAT     H278594   0.417   6.547   0.531
26118WAT      O78595   3.019   0.633   9.372
26118WAT     H178596   3.117   0.627   9.392
26118WAT     H278597   3.002   0.602   9.279
26119WAT      O78598   8.910   4.476   8.527
26119WAT     H178599   9.008   4.497   8.521
26119WAT     H278600   8.858   4.550   8.483
26120WAT      O78601   3.080   7.583   2.130
26120WAT     H178602   3.159   7.613   2.184
26120WAT     H278603   3.111   7.548   2.042
26121WAT      O78604   1.647   8.102   8.130
26121WAT     H178605   1.742   8.072   8.145
26121WAT     H278606   1.646   8.173   8.059
26122WAT      O78607   4.180   5.096   8.946
26122WAT     H178608   4.239   5.026   8.906
26122WAT     H278609   4.236   5.174   8.975
26123WAT      O78610   6.500   7.959   1.848
26123WAT     H178611   6.587   7.946   1.799
26123WAT     H278612   6.429   7.904   1.806
26124WAT      O78613   3.040   3.372   1.027
26124WAT     H178614   3.109   3.436   0.994
26124WAT     H278615   3.064   3.279   0.999
26125WAT      O78616   9.584   4.547   1.976
26125WAT     H178617   9.554   4.477   2.041
26125WAT     H278618   9.630   4.502   1.899
26126WAT      O78619   1.264   8.538   1.344
26126WAT     H178620   1.316   8.453   1.333
26126WAT     H278621   1.215   8.558   1.260
26127WAT      O78622   6.263   6.518   8.873
26127WAT     H178623   6.268   6.537   8.775
26127WAT     H278624   6.177   6.471   8.893
26128WAT      O78625   6.218   8.920   5.264
26128WAT     H178626   6.303   8.938   5.215
26128WAT     H278627   6.230   8.841   5.324
26129WAT      O78628   2.710   6.478   1.259
26129WAT     H178629   2.708   6.560   1.201
26129WAT     H278630   2.656   6.496   1.342
26130WAT      O78631   2.781   0.918   5.605
26130WAT     H178632   2.849   0.869   5.659
26130WAT     H278633   2.771   0.876   5.515
26131WAT      O78634   5.436   1.993   6.646
26131WAT     H178635   5.401   1.970   6.737
26131WAT     H278636   5.466   2.088   6.644
26132WAT      O78637   3.046   6.937   6.598
26132WAT     H178638   3.142   6.932   6.626
26132WAT     H278639   3.033   7.016   6.537
26133WAT      O78640   6.513   7.478   2.814
26133WAT     H178641   6.423   7.445   2.843
26133WAT     H278642   6.526   7.458   2.716
26134WAT      O78643   9.745   7.348   8.209
26134WAT     H178644   9.665   7.294   8.238
26134WAT     H278645   9.721   7.401   8.128
26135WAT      O78646   0.065   8.688   3.229
26135WAT     H178647   0.011   8.738   3.296
26135WAT     H278648   0.014   8.681   3.143
26136WAT      O78649   2.282   5.461   7.775
26136WAT     H178650   2.236   5.377   7.746
26136WAT     H278651   2.367   5.438   7.823
26137WAT      O78652   4.805   7.641   1.213
26137WAT     H178653   4.867   7.631   1.291
26137WAT     H278654   4.715   7.671   1.245
26138WAT      O78655   5.143   8.949   3.519
26138WAT     H178656   5.223   8.929   3.462
26138WAT     H278657   5.069   8.984   3.462
26139WAT      O78658   7.613   7.668   7.018
26139WAT     H178659   7.560   7.584   7.020
26139WAT     H278660   7.561   7.741   7.062
26140WAT      O78661   5.322   3.108   6.132
26140WAT     H178662   5.269   3.042   6.080
26140WAT     H278663   5.358   3.064   6.215
26141WAT      O78664   3.705   3.119   4.049
26141WAT     H178665   3.666   3.208   4.024
26141WAT     H278666   3.771   3.091   3.980
26142WAT      O78667   1.434   4.894   2.057
26142WAT     H178668   1.525   4.926   2.086
26142WAT     H278669   1.381   4.867   2.138
26143WAT      O78670   0.035   9.482   1.949
26143WAT     H178671   0.053   9.472   1.851
26143WAT     H278672  -0.051   9.531   1.962
26144WAT      O78673   5.641   5.994   2.066
26144WAT     H178674   5.574   6.023   2.134
26144WAT     H278675   5.596   5.985   1.977
26145WAT      O78676   3.513   8.027   3.042
26145WAT     H178677   3.512   7.990   2.949
26145WAT     H278678   3.420   8.031   3.077
26146WAT      O78679   1.989   0.966   8.458
26146WAT     H178680   2.005   0.902   8.533
26146WAT     H278681   1.894   0.995   8.459
26147WAT      O78682   6.836   5.293   9.868
26147WAT     H178683   6.750   5.327   9.904
26147WAT     H278684   6.896   5.370   9.847
26148WAT      O78685   1.654   8.632   0.985
26148WAT     H178686   1.704   8.547   1.006
26148WAT     H278687   1.576   8.641   1.048
26149WAT      O78688   2.122   4.219   1.847
26149WAT     H178689   2.080   4.158   1.914
26149WAT     H278690   2.064   4.224   1.766
26150WAT      O78691   1.490   6.091   6.446
26150WAT     H178692   1.468   6.187   6.460
26150WAT     H278693   1.541   6.057   6.524
26151WAT      O78694   3.240   3.144   4.903
26151WAT     H178695   3.220   3.046   4.906
26151WAT     H278696   3.278   3.173   4.991
26152WAT      O78697   3.750   7.334   6.739
26152WAT     H178698   3.664   7.324   6.790
26152WAT     H278699   3.811   7.395   6.789
26153WAT      O78700   3.548   1.652   3.166
26153WAT     H178701   3.453   1.653   3.134
26153WAT     H278702   3.608   1.624   3.091
26154WAT      O78703   9.191   5.198   0.352
26154WAT     H178704   9.147   5.150   0.277
26154WAT     H278705   9.282   5.161   0.367
26155WAT      O78706   9.277   0.133   2.444
26155WAT     H178707   9.248   0.216   2.396
26155WAT     H278708   9.324   0.158   2.529
26156WAT      O78709   3.977   7.915   6.820
26156WAT     H178710   3.960   7.823   6.786
26156WAT     H278711   3.975   7.915   6.920
26157WAT      O78712   1.150   7.432   4.210
26157WAT     H178713   1.214   7.356   4.201
26157WAT     H278714   1.156   7.490   4.129
26158WAT      O78715   0.945   7.725   0.863
26158WAT     H178716   1.013   7.727   0.789
26158WAT     H278717   0.944   7.635   0.906
26159WAT      O78718   8.272   2.748   0.045
26159WAT     H178719   8.246   2.764  -0.050
26159WAT     H278720   8.360   2.791   0.063
26160WAT      O78721   2.800   1.911   2.094
26160WAT     H178722   2.858   1.924   2.014
26160WAT     H278723   2.854   1.924   2.177
26161WAT      O78724   7.936   0.729   4.177
26161WAT     H178725   7.866   0.800   4.174
26161WAT     H278726   7.898   0.647   4.221
26162WAT      O78727   2.297   7.084   3.009
26162WAT     H178728   2.216   7.084   2.949
26162WAT     H278729   2.363   7.017   2.975
26163WAT      O78730   3.889   1.945   4.770
26163WAT     H178731   3.884   1.975   4.675
26163WAT     H278732   3.980   1.908   4.789
26164WAT      O78733   2.238   3.822   5.682
26164WAT     H178734   2.198   3.905   5.719
26164WAT     H278735   2.329   3.807   5.721
26165WAT      O78736   4.560   0.867   8.368
26165WAT     H178737   4.559   0.783   8.315
26165WAT     H278738   4.541   0.945   8.308
26166WAT      O78739   0.519   1.712   8.530
26166WAT     H178740   0.452   1.741   8.462
26166WAT     H278741   0.472   1.659   8.602
26167WAT      O78742   1.245   7.226   2.351
26167WAT     H178743   1.322   7.200   2.409
26167WAT     H278744   1.195   7.301   2.393
26168WAT      O78745   1.571   4.163   5.590
26168WAT     H178746   1.609   4.234   5.531
26168WAT     H278747   1.567   4.197   5.684
26169WAT      O78748   9.648   0.039   8.070
26169WAT     H178749   9.725   0.098   8.096
26169WAT     H278750   9.682  -0.053   8.052
26170WAT      O78751   7.066   6.886   6.475
26170WAT     H178752   7.035   6.794   6.449
26170WAT     H278753   6.989   6.937   6.513
26171WAT      O78754   8.916   5.284   9.512
26171WAT     H178755   8.832   5.272   9.564
26171WAT     H278756   8.961   5.368   9.540
26172WAT      O78757   9.160   2.046   8.285
26172WAT     H178758   9.122   1.978   8.348
26172WAT     H278759   9.239   2.091   8.328
26173WAT      O78760   0.866   1.758   1.069
26173WAT     H178761   0.941   1.741   1.133
26173WAT     H278762   0.786   1.705   1.096
26174WAT      O78763   1.292   7.276   6.610
26174WAT     H178764   1.259   7.206   6.673
26174WAT     H278765   1.387   7.300   6.633
26175WAT      O78766   0.292   6.430   1.475
26175WAT     H178767   0.246   6.483   1.404
26175WAT     H278768   0.391   6.439   1.464
26176WAT      O78769   0.421   3.494   6.335
26176WAT     H178770   0.420   3.500   6.435
26176WAT     H278771   0.481   3.418   6.307
26177WAT      O78772   3.797   7.010   7.576
26177WAT     H178773   3.795   6.921   7.621
26177WAT     H278774   3.813   7.082   7.643
26178WAT      O78775   3.959   3.742   1.677
26178WAT     H178776   3.907   3.827   1.684
26178WAT     H278777   3.966   3.716   1.580
26179WAT      O78778   7.123   8.698   9.500
26179WAT     H178779   7.130   8.617   9.442
26179WAT     H278780   7.064   8.766   9.455
26180WAT      O78781   4.830   7.069   2.872
26180WAT     H178782   4.745   7.026   2.840
26180WAT     H278783   4.908   7.027   2.826
26181WAT      O78784   6.990   0.085   6.171
26181WAT     H178785   6.960   0.112   6.262
26181WAT     H278786   6.922   0.112   6.103
26182WAT      O78787   6.150   7.629   0.268
26182WAT     H178788   6.096   7.704   0.229
26182WAT     H278789   6.160   7.557   0.200
26183WAT      O78790   2.264   5.090   5.205
26183WAT     H178791   2.229   4.997   5.204
26183WAT     H278792   2.231   5.140   5.125
26184WAT      O78793   8.596   2.967   3.784
26184WAT     H178794   8.641   2.878   3.786
26184WAT     H278795   8.599   3.008   3.875
26185WAT      O78796   1.304   6.109   0.799
26185WAT     H178797   1.281   6.126   0.895
26185WAT     H278798   1.391   6.060   0.794
26186WAT      O78799   0.899   9.818   5.260
26186WAT     H178800   0.892   9.758   5.340
26186WAT     H278801   0.812   9.865   5.247
26187WAT      O78802   3.918   6.030   9.233
26187WAT     H178803   3.991   6.009   9.167
26187WAT     H278804   3.834   5.983   9.205
26188WAT      O78805   8.903   5.500   6.025
26188WAT     H178806   8.852   5.564   6.083
26188WAT     H278807   8.927   5.419   6.078
26189WAT      O78808   2.440   1.341   4.384
26189WAT     H178809   2.438   1.286   4.467
26189WAT     H278810   2.529   1.331   4.339
26190WAT      O78811   5.563   2.590   9.214
26190WAT     H178812   5.490   2.624   9.154
26190WAT     H278813   5.537   2.501   9.251
26191WAT      O78814   9.066   8.759   1.096
26191WAT     H178815   9.105   8.700   1.025
26191WAT     H278816   8.966   8.763   1.085
26192WAT      O78817   1.041   1.834   1.606
26192WAT     H178818   0.987   1.777   1.668
26192WAT     H278819   0.993   1.920   1.589
26193WAT      O78820   3.567   6.315   8.474
26193WAT     H178821   3.568   6.387   8.543
26193WAT     H278822   3.611   6.348   8.391
26194WAT      O78823   8.383   6.889   1.707
26194WAT     H178824   8.326   6.880   1.789
26194WAT     H278825   8.477   6.862   1.728
26195WAT      O78826   4.922   7.761   1.541
26195WAT     H178827   4.929   7.838   1.605
26195WAT     H278828   4.945   7.793   1.449
26196WAT      O78829   5.000   6.777   3.053
26196WAT     H178830   5.058   6.794   2.973
26196WAT     H278831   4.904   6.773   3.024
26197WAT      O78832   1.793   8.844   9.602
26197WAT     H178833   1.852   8.885   9.672
26197WAT     H278834   1.722   8.910   9.575
26198WAT      O78835   1.904   8.750   0.956
26198WAT     H178836   1.812   8.712   0.957
26198WAT     H278837   1.951   8.727   1.042
26199WAT      O78838   7.451   5.167   7.784
26199WAT     H178839   7.371   5.182   7.843
26199WAT     H278840   7.447   5.074   7.747
26200WAT      O78841   0.506   9.471   6.350
26200WAT     H178842   0.412   9.453   6.381
26200WAT     H278843   0.557   9.385   6.347
26201WAT      O78844   4.180   2.604   4.939
26201WAT     H178845   4.143   2.584   4.848
26201WAT     H278846   4.105   2.617   5.004
26202WAT      O78847   0.141   5.389   9.636
26202WAT     H178848   0.157   5.399   9.538
26202WAT     H278849   0.087   5.466   9.669
26203WAT      O78850   4.131   4.945   2.240
26203WAT     H178851   4.222   4.936   2.280
26203WAT     H278852   4.063   4.950   2.312
26204WAT      O78853   0.510   3.240   3.530
26204WAT     H178854   0.579   3.203   3.467
26204WAT     H278855   0.433   3.276   3.477
26205WAT      O78856   4.524   1.805   0.459
26205WAT     H178857   4.450   1.857   0.503
26205WAT     H278858   4.508   1.707   0.471
26206WAT      O78859   8.826   4.158   1.854
26206WAT     H178860   8.788   4.146   1.946
26206WAT     H278861   8.879   4.243   1.851
26207WAT      O78862   2.542   2.997   4.978
26207WAT     H178863   2.632   3.014   5.017
26207WAT     H278864   2.533   3.049   4.893
26208WAT      O78865   0.785   1.137   0.498
26208WAT     H178866   0.827   1.054   0.532
26208WAT     H278867   0.699   1.153   0.546
26209WAT      O78868   2.145   1.409   8.593
26209WAT     H178869   2.232   1.438   8.553
26209WAT     H278870   2.078   1.484   8.585
26210WAT      O78871  -0.003   4.551   7.583
26210WAT     H178872   0.077   4.570   7.526
26210WAT     H278873   0.027   4.525   7.674
26211WAT      O78874   8.825   0.956   4.356
26211WAT     H178875   8.734   0.968   4.316
26211WAT     H278876   8.819   0.967   4.456
26212WAT      O78877   7.106   3.943   6.390
26212WAT     H178878   7.120   3.959   6.292
26212WAT     H278879   7.192   3.957   6.438
26213WAT      O78880   6.181   3.765   1.156
26213WAT     H178881   6.172   3.774   1.056
26213WAT     H278882   6.205   3.854   1.195
26214WAT      O78883   2.076   6.200   2.092
26214WAT     H178884   2.031   6.206   2.003
26214WAT     H278885   2.101   6.291   2.123
26215WAT      O78886   8.439   0.732   6.719
26215WAT     H178887   8.462   0.830   6.719
26215WAT     H278888   8.341   0.721   6.708
26216WAT      O78889   6.434   4.899   2.282
26216WAT     H178890   6.477   4.941   2.362
26216WAT     H278891   6.500   4.893   2.207
26217WAT      O78892   0.658   1.954   3.287
26217WAT     H178893   0.664   1.968   3.386
26217WAT     H278894   0.602   1.873   3.268
26218WAT      O78895   0.006   6.445   2.912
26218WAT     H178896  -0.016   6.360   2.864
26218WAT     H278897   0.070   6.426   2.987
26219WAT      O78898   8.388   6.594   8.167
26219WAT     H178899   8.461   6.549   8.116
26219WAT     H278900   8.350   6.531   8.235
26220WAT      O78901   9.488   6.128   9.373
26220WAT     H178902   9.500   6.120   9.274
26220WAT     H278903   9.480   6.036   9.413
26221WAT      O78904   9.835   9.150   9.210
26221WAT     H178905   9.923   9.103   9.195
26221WAT     H278906   9.850   9.249   9.211
26222WAT      O78907   9.551   7.396   7.780
26222WAT     H178908   9.454   7.411   7.762
26222WAT     H278909   9.576   7.441   7.867
26223WAT      O78910   7.867   8.324   1.998
26223WAT     H178911   7.817   8.302   1.914
26223WAT     H278912   7.821   8.283   2.076
26224WAT      O78913   9.287   5.717   4.343
26224WAT     H178914   9.200   5.707   4.392
26224WAT     H278915   9.329   5.627   4.331
26225WAT      O78916   0.727   0.164   1.579
26225WAT     H178917   0.797   0.092   1.576
26225WAT     H278918   0.754   0.239   1.519
26226WAT      O78919   2.794   9.467   5.169
26226WAT     H178920   2.707   9.419   5.172
26226WAT     H278921   2.791   9.546   5.231
26227WAT      O78922   1.955   1.261   3.161
26227WAT     H178923   2.044   1.215   3.165
26227WAT     H278924   1.901   1.222   3.087
26228WAT      O78925   1.647   6.923   3.062
26228WAT     H178926   1.573   6.991   3.064
26228WAT     H278927   1.667   6.893   3.155
26229WAT      O78928   3.271   1.751   7.704
26229WAT     H178929   3.294   1.763   7.607
26229WAT     H278930   3.352   1.766   7.760
26230WAT      O78931   2.981   5.153   9.468
26230WAT     H178932   2.894   5.200   9.450
26230WAT     H278933   3.002   5.159   9.566
26231WAT      O78934   9.107   5.973   0.637
26231WAT     H178935   9.070   5.885   0.666
26231WAT     H278936   9.051   6.010   0.563
26232WAT      O78937   7.572   7.873   4.396
26232WAT     H178938   7.557   7.872   4.297
26232WAT     H278939   7.485   7.893   4.442
26233WAT      O78940   1.257   6.544   8.581
26233WAT     H178941   1.290   6.607   8.651
26233WAT     H278942   1.277   6.581   8.490
26234WAT      O78943   6.735   4.226   4.331
26234WAT     H178944   6.769   4.239   4.237
26234WAT     H278945   6.639   4.200   4.328
26235WAT      O78946   1.765   0.050   4.952
26235WAT     H178947   1.684   0.101   4.979
26235WAT     H278948   1.847   0.096   4.986
26236WAT      O78949   4.469   0.195   1.386
26236WAT     H178950   4.547   0.150   1.343
26236WAT     H278951   4.399   0.128   1.407
26237WAT      O78952   6.579   6.155   7.445
26237WAT     H178953   6.547   6.139   7.538
26237WAT     H278954   6.623   6.245   7.439
26238WAT      O78955   6.319   3.807   5.273
26238WAT     H178956   6.351   3.718   5.241
26238WAT     H278957   6.230   3.798   5.316
26239WAT      O78958   1.325   6.860   5.716
26239WAT     H178959   1.391   6.880   5.788
26239WAT     H278960   1.232   6.871   5.752
26240WAT      O78961   7.596   0.459   5.074
26240WAT     H178962   7.517   0.401   5.054
26240WAT     H278963   7.564   0.549   5.104
26241WAT      O78964   8.261   9.124   8.756
26241WAT     H178965   8.285   9.220   8.746
26241WAT     H278966   8.221   9.109   8.846
26242WAT      O78967   2.498   9.026   8.007
26242WAT     H178968   2.448   9.082   8.073
26242WAT     H278969   2.434   8.973   7.952
26243WAT      O78970   2.436   8.213   7.786
26243WAT     H178971   2.384   8.165   7.856
26243WAT     H278972   2.466   8.302   7.820
26244WAT      O78973   9.253   1.092   9.758
26244WAT     H178974   9.348   1.120   9.745
26244WAT     H278975   9.192   1.156   9.711
26245WAT      O78976   7.842   7.568   7.188
26245WAT     H178977   7.799   7.616   7.112
26245WAT     H278978   7.798   7.597   7.274
26246WAT      O78979   6.273   1.143   3.723
26246WAT     H178980   6.310   1.214   3.663
26246WAT     H278981   6.197   1.097   3.677
26247WAT      O78982   4.096   9.532   9.219
26247WAT     H178983   4.095   9.601   9.291
26247WAT     H278984   4.002   9.501   9.201
26248WAT      O78985   9.137   1.496   6.056
26248WAT     H178986   9.050   1.546   6.055
26248WAT     H278987   9.191   1.521   5.975
26249WAT      O78988   5.893   3.268   0.833
26249WAT     H178989   5.987   3.288   0.860
26249WAT     H278990   5.892   3.199   0.761
26250WAT      O78991   5.736   1.895   0.156
26250WAT     H178992   5.816   1.863   0.105
26250WAT     H278993   5.664   1.923   0.092
26251WAT      O78994   7.735   3.828   3.352
26251WAT     H178995   7.673   3.750   3.354
26251WAT     H278996   7.819   3.807   3.403
26252WAT      O78997   9.503   2.805   0.587
26252WAT     H178998   9.566   2.879   0.564
26252WAT     H278999   9.418   2.844   0.624
26253WAT      O79000   1.517   7.746   4.066
26253WAT     H179001   1.573   7.824   4.039
26253WAT     H279002   1.489   7.695   3.985
26254WAT      O79003   0.279   1.429   0.324
26254WAT     H179004   0.355   1.421   0.389
26254WAT     H279005   0.201   1.472   0.370
26255WAT      O79006   3.422   9.226   5.617
26255WAT     H179007   3.423   9.159   5.691
26255WAT     H279008   3.506   9.280   5.619
26256WAT      O79009   9.892   1.564   9.494
26256WAT     H179010   9.835   1.620   9.434
26256WAT     H279011   9.885   1.599   9.588
26257WAT      O79012   0.847   0.875   8.979
26257WAT     H179013   0.879   0.781   8.992
26257WAT     H279014   0.791   0.902   9.057
26258WAT      O79015   0.818   1.984   0.883
26258WAT     H179016   0.795   2.054   0.951
26258WAT     H279017   0.829   1.896   0.929
26259WAT      O79018   4.276   7.648   0.970
26259WAT     H179019   4.204   7.711   0.942
26259WAT     H279020   4.337   7.631   0.893
26260WAT      O79021   9.237   7.399   5.656
26260WAT     H179022   9.225   7.453   5.740
26260WAT     H279023   9.307   7.330   5.671
26261WAT      O79024   4.522   8.572   2.802
26261WAT     H179025   4.492   8.648   2.859
26261WAT     H279026   4.604   8.598   2.751
26262WAT      O79027   6.510   8.526   9.142
26262WAT     H179028   6.505   8.504   9.239
26262WAT     H279029   6.516   8.625   9.129
26263WAT      O79030   5.125   9.757   9.216
26263WAT     H179031   5.162   9.681   9.269
26263WAT     H279032   5.170   9.761   9.127
26264WAT      O79033   4.918   1.029   2.306
26264WAT     H179034   4.893   0.933   2.293
26264WAT     H279035   4.966   1.040   2.393
26265WAT      O79036   3.767   8.842   8.698
26265WAT     H179037   3.718   8.905   8.637
26265WAT     H279038   3.855   8.882   8.723
26266WAT      O79039   8.008   8.575   0.785
26266WAT     H179040   8.055   8.528   0.710
26266WAT     H279041   7.920   8.610   0.753
26267WAT      O79042   0.368   7.681   4.468
26267WAT     H179043   0.273   7.701   4.489
26267WAT     H279044   0.426   7.712   4.544
26268WAT      O79045   5.502   6.244   9.373
26268WAT     H179046   5.535   6.245   9.279
26268WAT     H279047   5.453   6.330   9.392
26269WAT      O79048   6.593   5.889   3.264
26269WAT     H179049   6.624   5.942   3.185
26269WAT     H279050   6.671   5.859   3.318
26270WAT      O79051   4.253   0.763   8.507
26270WAT     H179052   4.270   0.708   8.426
26270WAT     H279053   4.248   0.704   8.587
26271WAT      O79054   9.621   7.188   4.214
26271WAT     H179055   9.705   7.157   4.169
26271WAT     H279056   9.642   7.265   4.274
26272WAT      O79057   2.052   7.275   1.893
26272WAT     H179058   2.142   7.237   1.868
26272WAT     H279059   1.987   7.200   1.905
26273WAT      O79060   6.899   1.944   3.831
26273WAT     H179061   6.893   2.003   3.911
26273WAT     H279062   6.820   1.960   3.772
26274WAT      O79063   9.408   7.754   8.458
26274WAT     H179064   9.418   7.829   8.524
26274WAT     H279065   9.495   7.706   8.448
26275WAT      O79066   2.980   9.799   2.044
26275WAT     H179067   3.073   9.765   2.056
26275WAT     H279068   2.920   9.755   2.112
26276WAT      O79069   3.236   4.283   0.803
26276WAT     H179070   3.232   4.183   0.793
26276WAT     H279071   3.270   4.305   0.895
26277WAT      O79072   1.564   4.503   1.552
26277WAT     H179073   1.575   4.456   1.465
26277WAT     H279074   1.650   4.498   1.604
26278WAT      O79075   6.105   2.591   3.289
26278WAT     H179076   6.064   2.680   3.307
26278WAT     H279077   6.108   2.538   3.374
26279WAT      O79078   5.792   0.724   3.482
26279WAT     H179079   5.784   0.739   3.580
26279WAT     H279080   5.726   0.781   3.433
26280WAT      O79081   7.638   2.984   7.478
26280WAT     H179082   7.729   2.983   7.519
26280WAT     H279083   7.576   2.928   7.533
26281WAT      O79084   9.473   4.683   3.997
26281WAT     H179085   9.529   4.605   3.968
26281WAT     H279086   9.522   4.736   4.066
26282WAT      O79087   6.023   1.798   2.360
26282WAT     H179088   5.940   1.820   2.310
26282WAT     H279089   6.067   1.883   2.391
26283WAT      O79090   9.755   0.784   9.855
26283WAT     H179091   9.825   0.734   9.803
26283WAT     H279092   9.729   0.730   9.935
26284WAT      O79093   7.234   4.712   3.348
26284WAT     H179094   7.297   4.678   3.418
26284WAT     H279095   7.204   4.635   3.290
26285WAT      O79096   5.590   1.285   8.607
26285WAT     H179097   5.636   1.324   8.527
26285WAT     H279098   5.545   1.358   8.658
26286WAT      O79099   7.651   3.529   8.895
26286WAT     H179100   7.553   3.515   8.883
26286WAT     H279101   7.673   3.532   8.992
26287WAT      O79102   5.630   8.524   7.630
26287WAT     H179103   5.567   8.460   7.587
26287WAT     H279104   5.719   8.481   7.643
26288WAT      O79105   4.229   3.012   9.813
26288WAT     H179106   4.225   3.040   9.718
26288WAT     H279107   4.213   2.913   9.820
26289WAT      O79108   0.198   7.340   4.241
26289WAT     H179109   0.158   7.314   4.153
26289WAT     H279110   0.199   7.260   4.301
26290WAT      O79111   5.042   1.650   7.765
26290WAT     H179112   5.101   1.673   7.842
26290WAT     H279113   5.083   1.575   7.713
26291WAT      O79114   2.577   9.205   0.134
26291WAT     H179115   2.615   9.239   0.220
26291WAT     H279116   2.650   9.194   0.067
26292WAT      O79117   2.772   6.695   1.053
26292WAT     H179118   2.750   6.687   0.956
26292WAT     H279119   2.727   6.776   1.091
26293WAT      O79120   2.122   4.505   4.276
26293WAT     H179121   2.195   4.491   4.344
26293WAT     H279122   2.162   4.514   4.185
26294WAT      O79123   7.797   1.493   1.613
26294WAT     H179124   7.749   1.574   1.579
26294WAT     H279125   7.791   1.491   1.713
26295WAT      O79126   1.123   1.567   3.494
26295WAT     H179127   1.204   1.618   3.465
26295WAT     H279128   1.074   1.532   3.414
26296WAT      O79129   8.223   6.151   8.586
26296WAT     H179130   8.260   6.186   8.672
26296WAT     H279131   8.186   6.059   8.600
26297WAT      O79132   7.006   5.982   0.100
26297WAT     H179133   7.037   6.071   0.134
26297WAT     H279134   6.908   5.987   0.080
26298WAT      O79135   5.120   3.658   7.457
26298WAT     H179136   5.204   3.695   7.498
26298WAT     H279137   5.125   3.668   7.358
26299WAT      O79138   6.374   5.283   4.755
26299WAT     H179139   6.297   5.315   4.810
26299WAT     H279140   6.388   5.185   4.772
26300WAT      O79141   0.688   4.034   8.152
26300WAT     H179142   0.594   4.040   8.186
26300WAT     H279143   0.687   4.022   8.053
26301WAT      O79144   1.570   3.244   3.312
26301WAT     H179145   1.608   3.166   3.362
26301WAT     H279146   1.577   3.326   3.368
26302WAT      O79147   2.567   9.515   6.665
26302WAT     H179148   2.467   9.513   6.664
26302WAT     H279149   2.601   9.431   6.708
26303WAT      O79150   8.362   5.799   2.999
26303WAT     H179151   8.425   5.725   2.977
26303WAT     H279152   8.402   5.856   3.071
26304WAT      O79153   9.271   7.763   7.160
26304WAT     H179154   9.203   7.742   7.089
26304WAT     H279155   9.362   7.762   7.120
26305WAT      O79156   5.039   7.661   9.400
26305WAT     H179157   5.023   7.735   9.335
26305WAT     H279158   4.952   7.615   9.421
26306WAT      O79159   7.508   4.112   7.000
26306WAT     H179160   7.569   4.112   6.921
26306WAT     H279161   7.505   4.204   7.039
26307WAT      O79162   3.092   4.957   0.580
26307WAT     H179163   3.003   5.001   0.569
26307WAT     H279164   3.099   4.918   0.672
26308WAT      O79165   8.630   5.508   7.031
26308WAT     H179166   8.624   5.557   6.944
26308WAT     H279167   8.609   5.570   7.107
26309WAT      O79168   5.223   3.159   5.053
26309WAT     H179169   5.239   3.062   5.036
26309WAT     H279170   5.138   3.170   5.105
26310WAT      O79171   1.560   8.693   2.887
26310WAT     H179172   1.529   8.706   2.793
26310WAT     H279173   1.529   8.604   2.920
26311WAT      O79174   6.153   4.120   7.984
26311WAT     H179175   6.211   4.162   8.054
26311WAT     H279176   6.091   4.188   7.946
26312WAT      O79177   0.226   5.185   6.673
26312WAT     H179178   0.300   5.142   6.726
26312WAT     H279179   0.156   5.116   6.653
26313WAT      O79180   2.292   9.405   1.771
26313WAT     H179181   2.217   9.377   1.712
26313WAT     H279182   2.378   9.366   1.738
26314WAT      O79183   8.996   9.537   2.123
26314WAT     H179184   8.945   9.512   2.041
26314WAT     H279185   8.971   9.629   2.151
26315WAT      O79186   2.358   9.218   8.471
26315WAT     H179187   2.372   9.265   8.558
26315WAT     H279188   2.357   9.119   8.487
26316WAT      O79189   7.003   0.631   9.667
26316WAT     H179190   6.915   0.635   9.714
26316WAT     H279191   7.012   0.543   9.620
26317WAT      O79192   6.581   4.274   6.089
26317WAT     H179193   6.597   4.327   6.006
26317WAT     H279194   6.505   4.315   6.140
26318WAT      O79195   6.416   0.712   0.988
26318WAT     H179196   6.368   0.775   0.928
26318WAT     H279197   6.412   0.620   0.950
26319WAT      O79198   8.730   2.693   6.205
26319WAT     H179199   8.668   2.769   6.225
26319WAT     H279200   8.806   2.694   6.270
26320WAT      O79201   0.628   4.307   5.467
26320WAT     H179202   0.553   4.254   5.427
26320WAT     H279203   0.593   4.395   5.498
26321WAT      O79204   3.544   5.785   4.369
26321WAT     H179205   3.637   5.786   4.405
26321WAT     H279206   3.503   5.876   4.378
26322WAT      O79207   1.568   1.668   8.779
26322WAT     H179208   1.646   1.636   8.833
26322WAT     H279209   1.483   1.642   8.824
26323WAT      O79210   3.182   5.005   3.721
26323WAT     H179211   3.203   4.952   3.640
26323WAT     H279212   3.261   5.061   3.746
26324WAT      O79213   9.324   8.764   9.110
26324WAT     H179214   9.247   8.703   9.093
26324WAT     H279215   9.384   8.765   9.030
26325WAT      O79216   5.839   6.192   3.027
26325WAT     H179217   5.931   6.155   3.021
26325WAT     H279218   5.772   6.119   3.015
26326WAT      O79219   3.133   3.918   7.394
26326WAT     H179220   3.188   4.002   7.398
26326WAT     H279221   3.190   3.839   7.416
26327WAT      O79222   5.417   5.474   2.791
26327WAT     H179223   5.431   5.382   2.828
26327WAT     H279224   5.342   5.518   2.839
26328WAT      O79225   2.128   1.092   1.068
26328WAT     H179226   2.077   1.177   1.058
26328WAT     H279227   2.217   1.112   1.111
26329WAT      O79228   6.436   1.490   6.708
26329WAT     H179229   6.458   1.499   6.805
26329WAT     H279230   6.515   1.517   6.653
26330WAT      O79231   1.454   4.771   2.790
26330WAT     H179232   1.541   4.751   2.745
26330WAT     H279233   1.392   4.816   2.725
26331WAT      O79234   8.613   2.453   0.151
26331WAT     H179235   8.648   2.387   0.219
26331WAT     H279236   8.549   2.407   0.090
26332WAT      O79237   3.712   2.069   9.342
26332WAT     H179238   3.632   2.037   9.291
26332WAT     H279239   3.682   2.112   9.427
26333WAT      O79240   6.323   4.995   8.101
26333WAT     H179241   6.342   4.898   8.085
26333WAT     H279242   6.367   5.050   8.030
26334WAT      O79243   1.019   1.169   4.925
26334WAT     H179244   1.056   1.259   4.904
26334WAT     H279245   0.920   1.176   4.938
26335WAT      O79246   0.915   1.730   0.574
26335WAT     H179247   0.974   1.781   0.511
26335WAT     H279248   0.917   1.633   0.549
26336WAT      O79249   6.008   7.448   2.184
26336WAT     H179250   5.967   7.360   2.162
26336WAT     H279251   6.079   7.436   2.254
26337WAT      O79252   3.209   8.172   0.784
26337WAT     H179253   3.264   8.099   0.743
26337WAT     H279254   3.256   8.259   0.771
26338WAT      O79255   0.776   7.053   4.929
26338WAT     H179256   0.697   7.062   4.868
26338WAT     H279257   0.852   7.107   4.894
26339WAT      O79258   3.830   4.650   5.248
26339WAT     H179259   3.735   4.679   5.236
26339WAT     H279260   3.842   4.616   5.342
26340WAT      O79261   1.983   6.715   6.955
26340WAT     H179262   2.047   6.647   6.919
26340WAT     H279263   2.023   6.760   7.035
26341WAT      O79264   1.654   3.852   3.926
26341WAT     H179265   1.575   3.912   3.938
26341WAT     H279266   1.660   3.789   4.003
26342WAT      O79267   8.181   6.456   1.366
26342WAT     H179268   8.211   6.429   1.275
26342WAT     H279269   8.090   6.498   1.360
26343WAT      O79270   4.547   8.386   0.146
26343WAT     H179271   4.633   8.360   0.189
26343WAT     H279272   4.482   8.310   0.150
26344WAT      O79273   0.583   7.762   4.656
26344WAT     H179274   0.613   7.850   4.619
26344WAT     H279275   0.577   7.769   4.756
26345WAT      O79276   6.011   6.726   3.314
26345WAT     H179277   6.021   6.627   3.304
26345WAT     H279278   5.949   6.747   3.390
26346WAT      O79279   4.313   4.807   9.286
26346WAT     H179280   4.228   4.761   9.261
26346WAT     H279281   4.357   4.844   9.204
26347WAT      O79282   7.154   1.874   1.212
26347WAT     H179283   7.235   1.928   1.190
26347WAT     H279284   7.178   1.804   1.280
26348WAT      O79285   2.490   9.554   9.633
26348WAT     H179286   2.557   9.507   9.690
26348WAT     H279287   2.433   9.486   9.586
26349WAT      O79288   1.945   1.406   4.811
26349WAT     H179289   1.919   1.444   4.722
26349WAT     H279290   2.034   1.442   4.838
26350WAT      O79291   3.897   3.932   8.465
26350WAT     H179292   3.924   3.942   8.369
26350WAT     H279293   3.978   3.919   8.522
26351WAT      O79294   0.442   2.694   9.675
26351WAT     H179295   0.368   2.633   9.646
26351WAT     H279296   0.530   2.655   9.647
26352WAT      O79297   1.035   5.668   0.944
26352WAT     H179298   1.045   5.610   0.863
26352WAT     H279299   1.060   5.763   0.921
26353WAT      O79300   9.068   9.040   9.446
26353WAT     H179301   9.074   8.948   9.483
26353WAT     H279302   9.117   9.104   9.506
26354WAT      O79303   7.286   0.461   6.747
26354WAT     H179304   7.297   0.434   6.843
26354WAT     H279305   7.305   0.559   6.738
26355WAT      O79306   1.534   9.348   1.175
26355WAT     H179307   1.599   9.421   1.198
26355WAT     H279308   1.580   9.259   1.184
26356WAT      O79309   2.867   7.004   4.031
26356WAT     H179310   2.846   6.929   3.968
26356WAT     H279311   2.921   6.969   4.107
26357WAT      O79312   8.153   4.011   2.836
26357WAT     H179313   8.184   3.917   2.818
26357WAT     H279314   8.053   4.014   2.832
26358WAT      O79315   2.829   7.996   4.128
26358WAT     H179316   2.850   8.092   4.110
26358WAT     H279317   2.890   7.961   4.198
26359WAT      O79318   0.250   7.046   4.644
26359WAT     H179319   0.162   7.018   4.683
26359WAT     H279320   0.324   7.012   4.701
26360WAT      O79321   4.630   4.369   6.423
26360WAT     H179322   4.571   4.288   6.414
26360WAT     H279323   4.591   4.431   6.491
26361WAT      O79324   1.483   5.815   4.414
26361WAT     H179325   1.508   5.901   4.367
26361WAT     H279326   1.385   5.800   4.403
26362WAT      O79327   1.212   0.216   3.165
26362WAT     H179328   1.202   0.192   3.068
26362WAT     H279329   1.123   0.211   3.210
26363WAT      O79330   4.888   6.448   7.630
26363WAT     H179331   4.861   6.414   7.720
26363WAT     H279332   4.895   6.548   7.634
26364WAT      O79333   6.995   0.439   4.838
26364WAT     H179334   7.091   0.451   4.864
26364WAT     H279335   6.936   0.471   4.913
26365WAT      O79336   2.453   1.318   9.540
26365WAT     H179337   2.391   1.375   9.486
26365WAT     H279338   2.517   1.271   9.479
26366WAT      O79339   5.384   1.778   3.488
26366WAT     H179340   5.466   1.744   3.534
26366WAT     H279341   5.317   1.704   3.479
26367WAT      O79342   7.890   6.793   6.473
26367WAT     H179343   7.876   6.697   6.448
26367WAT     H279344   7.864   6.852   6.397
26368WAT      O79345   1.698   6.686   6.339
26368WAT     H179346   1.718   6.674   6.242
26368WAT     H279347   1.599   6.697   6.351
26369WAT      O79348   8.961   4.369   4.445
26369WAT     H179349   9.050   4.382   4.401
26369WAT     H279350   8.947   4.440   4.515
26370WAT      O79351   7.391   2.101   3.523
26370WAT     H179352   7.355   2.051   3.602
26370WAT     H279353   7.342   2.074   3.441
26371WAT      O79354   5.202   7.965   1.540
26371WAT     H179355   5.222   7.884   1.596
26371WAT     H279356   5.288   8.009   1.514
26372WAT      O79357   2.759   7.857   8.698
26372WAT     H179358   2.858   7.847   8.708
26372WAT     H279359   2.725   7.789   8.633
26373WAT      O79360   2.615   0.587   4.464
26373WAT     H179361   2.707   0.626   4.468
26373WAT     H279362   2.592   0.548   4.553
26374WAT      O79363   3.193   9.764   7.216
26374WAT     H179364   3.188   9.708   7.133
26374WAT     H279365   3.274   9.740   7.268
26375WAT      O79366   7.918   2.694   2.437
26375WAT     H179367   7.993   2.630   2.423
26375WAT     H279368   7.880   2.722   2.349
26376WAT      O79369   0.297   1.242   4.000
26376WAT     H179370   0.242   1.235   4.083
26376WAT     H279371   0.384   1.287   4.020
26377WAT      O79372   6.471   0.712   5.479
26377WAT     H179373   6.514   0.624   5.498
26377WAT     H279374   6.499   0.745   5.389
26378WAT      O79375   8.368   1.510   2.998
26378WAT     H179376   8.331   1.447   2.930
26378WAT     H279377   8.437   1.568   2.955
26379WAT      O79378   9.206   7.558   8.914
26379WAT     H179379   9.220   7.471   8.866
26379WAT     H279380   9.147   7.543   8.993
26380WAT      O79381   8.662   8.292   6.602
26380WAT     H179382   8.741   8.323   6.655
26380WAT     H279383   8.665   8.333   6.511
26381WAT      O79384   9.730   5.366   4.366
26381WAT     H179385   9.787   5.448   4.371
26381WAT     H279386   9.769   5.303   4.298
26382WAT      O79387   9.257   8.770   0.612
26382WAT     H179388   9.306   8.812   0.689
26382WAT     H279389   9.274   8.671   0.613
26383WAT      O79390   3.381   6.852   3.517
26383WAT     H179391   3.288   6.889   3.519
26383WAT     H279392   3.395   6.804   3.430
26384WAT      O79393   5.677   6.782   6.635
26384WAT     H179394   5.641   6.693   6.610
26384WAT     H279395   5.604   6.850   6.630
26385WAT      O79396   3.156   2.251   8.601
26385WAT     H179397   3.083   2.320   8.600
26385WAT     H279398   3.198   2.250   8.692
26386WAT      O79399   1.275   8.458   6.090
26386WAT     H179400   1.265   8.537   6.150
26386WAT     H279401   1.372   8.444   6.071
26387WAT      O79402   2.011   6.793   3.988
26387WAT     H179403   1.932   6.733   3.979
26387WAT     H279404   2.093   6.745   3.957
26388WAT      O79405   2.708   5.831   8.534
26388WAT     H179406   2.770   5.869   8.465
26388WAT     H279407   2.619   5.813   8.493
26389WAT      O79408   7.276   9.006   6.664
26389WAT     H179409   7.280   9.100   6.696
26389WAT     H279410   7.245   9.004   6.569
26390WAT      O79411   9.256   6.915   6.445
26390WAT     H179412   9.352   6.896   6.464
26390WAT     H279413   9.241   6.914   6.346
26391WAT      O79414   0.463   5.370   5.461
26391WAT     H179415   0.491   5.439   5.527
26391WAT     H279416   0.487   5.399   5.369
26392WAT      O79417   2.082   4.298   4.461
26392WAT     H179418   2.037   4.341   4.383
26392WAT     H279419   2.083   4.361   4.539
26393WAT      O79420   1.211   4.875   1.275
26393WAT     H179421   1.161   4.961   1.273
26393WAT     H279422   1.308   4.894   1.290
26394WAT      O79423   7.266   9.831   8.548
26394WAT     H179424   7.261   9.835   8.448
26394WAT     H279425   7.317   9.750   8.575
26395WAT      O79426   1.595   5.936   0.250
26395WAT     H179427   1.661   5.868   0.282
26395WAT     H279428   1.560   5.909   0.160
26396WAT      O79429   5.631   3.084   5.663
26396WAT     H179430   5.590   3.120   5.747
26396WAT     H279431   5.729   3.104   5.662
26397WAT      O79432   7.952   2.733   1.249
26397WAT     H179433   7.991   2.811   1.201
26397WAT     H279434   8.019   2.698   1.315
26398WAT      O79435   1.367   9.011   5.952
26398WAT     H179436   1.394   9.105   5.937
26398WAT     H279437   1.389   8.984   6.046
26399WAT      O79438   1.771   6.432   4.313
26399WAT     H179439   1.704   6.382   4.367
26399WAT     H279440   1.742   6.434   4.217
26400WAT      O79441   6.438   8.679   8.551
26400WAT     H179442   6.477   8.739   8.481
26400WAT     H279443   6.354   8.636   8.516
26401WAT      O79444   2.747   0.281   6.576
26401WAT     H179445   2.794   0.298   6.662
26401WAT     H279446   2.702   0.364   6.544
26402WAT      O79447   9.640   1.138   5.764
26402WAT     H179448   9.578   1.063   5.788
26402WAT     H279449   9.706   1.107   5.696
26403WAT      O79450   1.454   1.421   0.876
26403WAT     H179451   1.447   1.357   0.953
26403WAT     H279452   1.481   1.371   0.794
26404WAT      O79453   0.775   6.834   7.171
26404WAT     H179454   0.865   6.793   7.185
26404WAT     H279455   0.724   6.780   7.105
26405WAT      O79456   0.737   3.776   5.607
26405WAT     H179457   0.669   3.819   5.665
26405WAT     H279458   0.750   3.829   5.524
26406WAT      O79459   6.453   9.121   3.153
26406WAT     H179460   6.439   9.216   3.124
26406WAT     H279461   6.551   9.103   3.164
26407WAT      O79462   5.396   7.048   3.670
26407WAT     H179463   5.413   7.137   3.712
26407WAT     H279464   5.334   7.059   3.592
26408WAT      O79465   5.555   7.171   3.945
26408WAT     H179466   5.481   7.118   3.987
26408WAT     H279467   5.516   7.236   3.880
26409WAT      O79468   1.463   4.508   3.723
26409WAT     H179469   1.529   4.433   3.728
26409WAT     H279470   1.451   4.535   3.628
26410WAT      O79471   2.415   7.738   2.853
26410WAT     H179472   2.397   7.708   2.759
26410WAT     H279473   2.347   7.699   2.914
26411WAT      O79474   6.165   3.086   7.421
26411WAT     H179475   6.111   3.139   7.356
26411WAT     H279476   6.116   3.002   7.445
26412WAT      O79477   5.280   1.179   4.600
26412WAT     H179478   5.313   1.097   4.648
26412WAT     H279479   5.323   1.185   4.510
26413WAT      O79480   4.482   9.755   6.635
26413WAT     H179481   4.507   9.748   6.538
26413WAT     H279482   4.556   9.717   6.691
26414WAT      O79483   8.355   7.091   7.590
26414WAT     H179484   8.317   6.999   7.574
26414WAT     H279485   8.336   7.148   7.510
26415WAT      O79486   8.565   8.644   4.803
26415WAT     H179487   8.495   8.693   4.751
26415WAT     H279488   8.602   8.703   4.874
26416WAT      O79489   7.468   8.681   9.220
26416WAT     H179490   7.464   8.581   9.226
26416WAT     H279491   7.407   8.711   9.146
26417WAT      O79492   7.636   4.589   4.717
26417WAT     H179493   7.668   4.680   4.743
26417WAT     H279494   7.664   4.571   4.622
26418WAT      O79495   0.423   4.822   8.179
26418WAT     H179496   0.433   4.864   8.089
26418WAT     H279497   0.459   4.728   8.175
26419WAT      O79498   6.374   7.978   3.258
26419WAT     H179499   6.466   7.952   3.227
26419WAT     H279500   6.331   8.037   3.190
26420WAT      O79501   3.214   7.331   5.136
26420WAT     H179502   3.254   7.239   5.131
26420WAT     H279503   3.114   7.322   5.145
26421WAT      O79504   5.374   0.992   6.416
26421WAT     H179505   5.435   1.072   6.419
26421WAT     H279506   5.305   1.006   6.345
26422WAT      O79507   4.460   4.822   3.240
26422WAT     H179508   4.435   4.725   3.241
26422WAT     H279509   4.552   4.833   3.277
26423WAT      O79510   2.360   0.985   6.771
26423WAT     H179511   2.451   0.951   6.796
26423WAT     H279512   2.329   1.050   6.841
26424WAT      O79513   0.458   7.071   7.327
26424WAT     H179514   0.461   7.135   7.251
26424WAT     H279515   0.468   6.977   7.292
26425WAT      O79516   1.599   5.250   2.620
26425WAT     H179517   1.685   5.220   2.662
26425WAT     H279518   1.531   5.178   2.631
26426WAT      O79519   8.351   1.531   5.346
26426WAT     H179520   8.391   1.543   5.436
26426WAT     H279521   8.320   1.620   5.310
26427WAT      O79522   6.939   4.234   2.930
26427WAT     H179523   6.964   4.230   2.833
26427WAT     H279524   6.914   4.143   2.962
26428WAT      O79525   8.965   5.857   5.078
26428WAT     H179526   8.906   5.783   5.046
26428WAT     H279527   9.045   5.819   5.124
26429WAT      O79528   4.446   2.430   1.652
26429WAT     H179529   4.540   2.446   1.624
26429WAT     H279530   4.399   2.376   1.582
26430WAT      O79531   2.807   1.633   9.602
26430WAT     H179532   2.877   1.690   9.644
26430WAT     H279533   2.768   1.681   9.523
26431WAT      O79534   3.561   5.738   2.073
26431WAT     H179535   3.623   5.802   2.029
26431WAT     H279536   3.470   5.780   2.082
26432WAT      O79537   2.095   6.423   3.622
26432WAT     H179538   2.090   6.515   3.583
26432WAT     H279539   2.041   6.419   3.706
26433WAT      O79540   7.304   9.344   6.640
26433WAT     H179541   7.301   9.370   6.737
26433WAT     H279542   7.250   9.409   6.586
26434WAT      O79543   1.711   4.987   3.400
26434WAT     H179544   1.772   4.908   3.399
26434WAT     H279545   1.706   5.027   3.308
26435WAT      O79546   2.771   2.112   9.430
26435WAT     H179547   2.769   2.107   9.330
26435WAT     H279548   2.699   2.174   9.461
26436WAT      O79549   6.196   6.949   1.380
26436WAT     H179550   6.262   6.918   1.449
26436WAT     H279551   6.110   6.972   1.426
26437WAT      O79552   2.042   1.793   9.559
26437WAT     H179553   2.042   1.822   9.463
26437WAT     H279554   2.065   1.696   9.565
26438WAT      O79555   6.281   3.100   1.732
26438WAT     H179556   6.225   3.017   1.739
26438WAT     H279557   6.285   3.128   1.636
26439WAT      O79558   1.996   4.592   0.480
26439WAT     H179559   2.027   4.679   0.518
26439WAT     H279560   1.902   4.575   0.508
26440WAT      O79561   3.312   6.119   4.279
26440WAT     H179562   3.311   6.027   4.239
26440WAT     H279563   3.285   6.186   4.210
26441WAT      O79564   4.861   5.448   7.145
26441WAT     H179565   4.836   5.454   7.241
26441WAT     H279566   4.929   5.517   7.123
26442WAT      O79567   1.317   1.724   3.921
26442WAT     H179568   1.259   1.655   3.878
26442WAT     H279569   1.319   1.806   3.863
26443WAT      O79570   0.390   0.155   5.238
26443WAT     H179571   0.369   0.058   5.245
26443WAT     H279572   0.308   0.206   5.214
26444WAT      O79573   0.119   3.838   9.637
26444WAT     H179574   0.190   3.799   9.579
26444WAT     H279575   0.131   3.938   9.641
26445WAT      O79576   9.182   1.218   6.628
26445WAT     H179577   9.205   1.138   6.683
26445WAT     H279578   9.185   1.194   6.531
26446WAT      O79579   6.739   4.907   1.001
26446WAT     H179580   6.763   4.913   1.098
26446WAT     H279581   6.661   4.967   0.982
26447WAT      O79582   4.718   4.326   2.010
26447WAT     H179583   4.766   4.397   2.063
26447WAT     H279584   4.710   4.243   2.065
26448WAT      O79585   3.587   7.576   8.405
26448WAT     H179586   3.594   7.501   8.339
26448WAT     H279587   3.544   7.543   8.489
26449WAT      O79588   5.698   1.995   6.552
26449WAT     H179589   5.706   2.062   6.479
26449WAT     H279590   5.601   1.979   6.572
26450WAT      O79591   1.114   8.123   0.355
26450WAT     H179592   1.195   8.152   0.406
26450WAT     H279593   1.040   8.189   0.369
26451WAT      O79594   9.447   0.114   1.318
26451WAT     H179595   9.402   0.057   1.250
26451WAT     H279596   9.379   0.151   1.381
26452WAT      O79597   6.299   3.916   5.588
26452WAT     H179598   6.337   4.007   5.576
26452WAT     H279599   6.365   3.847   5.557
26453WAT      O79600   8.022   5.630   8.544
26453WAT     H179601   8.039   5.598   8.451
26453WAT     H279602   8.108   5.636   8.594
26454WAT      O79603   1.177   3.639   0.425
26454WAT     H179604   1.224   3.568   0.373
26454WAT     H279605   1.173   3.613   0.521
26455WAT      O79606   1.648   3.419   1.847
26455WAT     H179607   1.570   3.357   1.846
26455WAT     H279608   1.733   3.366   1.839
26456WAT      O79609   5.053   4.735   2.614
26456WAT     H179610   5.057   4.650   2.561
26456WAT     H279611   5.144   4.775   2.620
26457WAT      O79612   3.577   3.933   5.549
26457WAT     H179613   3.601   3.862   5.614
26457WAT     H279614   3.566   4.020   5.597
26458WAT      O79615   3.708   2.353   0.282
26458WAT     H179616   3.737   2.260   0.260
26458WAT     H279617   3.687   2.360   0.379
26459WAT      O79618   5.711   3.762   4.938
26459WAT     H179619   5.779   3.691   4.919
26459WAT     H279620   5.621   3.730   4.910
26460WAT      O79621   2.645   7.876   1.814
26460WAT     H179622   2.670   7.941   1.742
26460WAT     H279623   2.548   7.888   1.837
26461WAT      O79624   6.466   2.274   5.966
26461WAT     H179625   6.517   2.188   5.967
26461WAT     H279626   6.521   2.346   6.008
26462WAT      O79627   0.833   8.785   6.419
26462WAT     H179628   0.763   8.718   6.393
26462WAT     H279629   0.861   8.837   6.338
26463WAT      O79630   9.212   0.145   3.138
26463WAT     H179631   9.311   0.134   3.130
26463WAT     H279632   9.181   0.110   3.226
26464WAT      O79633   0.972   6.065   0.720
26464WAT     H179634   0.889   6.114   0.747
26464WAT     H279635   0.997   6.092   0.627
26465WAT      O79636   6.378   0.886   2.353
26465WAT     H179637   6.285   0.915   2.329
26465WAT     H279638   6.383   0.869   2.451
26466WAT      O79639   0.770   2.541   4.802
26466WAT     H179640   0.771   2.441   4.792
26466WAT     H279641   0.837   2.568   4.871
26467WAT      O79642   3.117   3.625   3.611
26467WAT     H179643   3.188   3.695   3.608
26467WAT     H279644   3.040   3.656   3.667
26468WAT      O79645   2.686   8.318   6.554
26468WAT     H179646   2.692   8.238   6.614
26468WAT     H279647   2.778   8.349   6.531
26469WAT      O79648   8.386   8.939   9.597
26469WAT     H179649   8.417   9.026   9.556
26469WAT     H279650   8.449   8.912   9.669
26470WAT      O79651   0.891   1.336   7.806
26470WAT     H179652   0.974   1.362   7.854
26470WAT     H279653   0.903   1.351   7.708
26471WAT      O79654   0.095   3.853   6.886
26471WAT     H179655   0.008   3.893   6.914
26471WAT     H279656   0.124   3.786   6.954
26472WAT      O79657   0.648   3.075   7.147
26472WAT     H179658   0.670   3.172   7.137
26472WAT     H279659   0.722   3.020   7.107
26473WAT      O79660   8.407   2.347   7.128
26473WAT     H179661   8.500   2.375   7.153
26473WAT     H279662   8.344   2.423   7.143
26474WAT      O79663   1.745   6.355   6.767
26474WAT     H179664   1.813   6.330   6.697
26474WAT     H279665   1.739   6.454   6.773
26475WAT      O79666   3.414   5.658   7.676
26475WAT     H179667   3.463   5.742   7.700
26475WAT     H279668   3.442   5.628   7.584
26476WAT      O79669   6.194   8.876   4.621
26476WAT     H179670   6.140   8.936   4.563
26476WAT     H279671   6.133   8.813   4.669
26477WAT      O79672   9.869   0.403   6.691
26477WAT     H179673   9.876   0.475   6.759
26477WAT     H279674   9.874   0.443   6.599
26478WAT      O79675   9.078   3.351   6.171
26478WAT     H179676   8.991   3.394   6.192
26478WAT     H279677   9.073   3.253   6.193
26479WAT      O79678   7.077   3.982   9.184
26479WAT     H179679   7.005   4.030   9.133
26479WAT     H279680   7.036   3.908   9.238
26480WAT      O79681   7.593   7.868   7.531
26480WAT     H179682   7.602   7.877   7.630
26480WAT     H279683   7.515   7.923   7.500
26481WAT      O79684   2.893   2.316   3.697
26481WAT     H179685   2.874   2.248   3.767
26481WAT     H279686   2.822   2.386   3.699
26482WAT      O79687   9.418   5.520   9.589
26482WAT     H179688   9.486   5.526   9.516
26482WAT     H279689   9.433   5.593   9.655
26483WAT      O79690   0.112   5.360   2.627
26483WAT     H179691   0.180   5.358   2.700
26483WAT     H279692   0.146   5.416   2.552
26484WAT      O79693   2.344   4.121   0.349
26484WAT     H179694   2.348   4.220   0.356
26484WAT     H279695   2.323   4.082   0.439
26485WAT      O79696   5.654   8.286   7.243
26485WAT     H179697   5.595   8.232   7.183
26485WAT     H279698   5.606   8.304   7.329
26486WAT      O79699   0.023   9.301   1.113
26486WAT     H179700  -0.070   9.317   1.146
26486WAT     H279701   0.047   9.205   1.124
26487WAT      O79702   8.353   2.679   0.415
26487WAT     H179703   8.283   2.726   0.469
26487WAT     H279704   8.326   2.583   0.402
26488WAT      O79705   5.270   8.968   8.977
26488WAT     H179706   5.173   8.947   8.993
26488WAT     H279707   5.307   9.016   9.057
26489WAT      O79708   1.561   5.736   0.796
26489WAT     H179709   1.526   5.659   0.849
26489WAT     H279710   1.529   5.728   0.702
26490WAT      O79711   4.243   6.562   3.127
26490WAT     H179712   4.268   6.630   3.197
26490WAT     H279713   4.144   6.554   3.122
26491WAT      O79714   5.063   3.902   5.457
26491WAT     H179715   4.993   3.956   5.504
26491WAT     H279716   5.043   3.805   5.470
26492WAT      O79717   9.405   4.110   7.560
26492WAT     H179718   9.355   4.161   7.630
26492WAT     H279719   9.360   4.122   7.471
26493WAT      O79720   7.897   7.333   4.394
26493WAT     H179721   7.865   7.408   4.335
26493WAT     H279722   7.842   7.331   4.478
26494WAT      O79723   5.050   6.325   6.925
26494WAT     H179724   5.024   6.323   6.828
26494WAT     H279725   5.081   6.234   6.953
26495WAT      O79726   6.051   4.580   3.493
26495WAT     H179727   5.987   4.631   3.435
26495WAT     H279728   6.106   4.643   3.547
26496WAT      O79729   6.258   5.412   6.491
26496WAT     H179730   6.217   5.336   6.441
26496WAT     H279731   6.187   5.470   6.529
26497WAT      O79732   2.263   2.943   0.312
26497WAT     H179733   2.243   3.034   0.349
26497WAT     H279734   2.306   2.887   0.384
26498WAT      O79735   9.566   1.023   5.415
26498WAT     H179736   9.562   0.927   5.444
26498WAT     H279737   9.641   1.036   5.351
26499WAT      O79738   8.710   6.483   1.210
26499WAT     H179739   8.639   6.539   1.254
26499WAT     H279740   8.798   6.530   1.217
26500WAT      O79741   3.675   0.660   0.848
26500WAT     H179742   3.694   0.567   0.816
26500WAT     H279743   3.762   0.705   0.869
26501WAT      O79744   9.062   8.787   9.559
26501WAT     H179745   9.150   8.742   9.579
26501WAT     H279746   8.993   8.717   9.539
26502WAT      O79747   8.726   7.702   2.881
26502WAT     H179748   8.696   7.702   2.785
26502WAT     H279749   8.825   7.688   2.885
26503WAT      O79750   6.826   9.551   0.664
26503WAT     H179751   6.757   9.534   0.734
26503WAT     H279752   6.903   9.601   0.704
26504WAT      O79753   1.987   4.752   8.372
26504WAT     H179754   2.056   4.722   8.438
26504WAT     H279755   2.013   4.841   8.334
26505WAT      O79756   8.395   4.428   2.568
26505WAT     H179757   8.437   4.396   2.653
26505WAT     H279758   8.327   4.498   2.589
26506WAT      O79759   5.382   8.338   4.210
26506WAT     H179760   5.467   8.380   4.241
26506WAT     H279761   5.401   8.247   4.173
26507WAT      O79762   6.398   3.101   7.060
26507WAT     H179763   6.374   3.181   7.005
26507WAT     H279764   6.461   3.044   7.008
26508WAT      O79765   4.355   6.325   6.787
26508WAT     H179766   4.339   6.257   6.858
26508WAT     H279767   4.296   6.307   6.708
26509WAT      O79768   2.279   8.326   9.892
26509WAT     H179769   2.368   8.334   9.937
26509WAT     H279770   2.264   8.405   9.833
26510WAT      O79771   1.926   6.654   9.669
26510WAT     H179772   2.005   6.660   9.729
26510WAT     H279773   1.945   6.590   9.594
26511WAT      O79774   2.981   3.844   5.648
26511WAT     H179775   2.918   3.811   5.577
26511WAT     H279776   3.053   3.899   5.605
26512WAT      O79777   1.888   3.618   5.023
26512WAT     H179778   1.971   3.668   4.998
26512WAT     H279779   1.890   3.527   4.982
26513WAT      O79780   1.502   3.331   0.562
26513WAT     H179781   1.536   3.307   0.471
26513WAT     H279782   1.509   3.251   0.622
26514WAT      O79783   0.122   9.377   7.637
26514WAT     H179784   0.043   9.389   7.697
26514WAT     H279785   0.114   9.438   7.559
26515WAT      O79786   4.465   3.271   5.447
26515WAT     H179787   4.426   3.270   5.355
26515WAT     H279788   4.536   3.200   5.454
26516WAT      O79789   8.603   3.825   0.337
26516WAT     H179790   8.636   3.831   0.431
26516WAT     H279791   8.504   3.839   0.335
26517WAT      O79792   0.974   3.866   9.013
26517WAT     H179793   0.948   3.809   9.091
26517WAT     H279794   1.017   3.950   9.045
26518WAT      O79795   3.164   1.656   1.248
26518WAT     H179796   3.149   1.577   1.307
26518WAT     H279797   3.158   1.740   1.302
26519WAT      O79798   1.219   4.844   2.646
26519WAT     H179799   1.167   4.763   2.621
26519WAT     H279800   1.171   4.894   2.718
26520WAT      O79801   5.786   9.655   3.165
26520WAT     H179802   5.793   9.667   3.066
26520WAT     H279803   5.707   9.707   3.198
26521WAT      O79804   6.040   5.942   8.329
26521WAT     H179805   6.054   5.872   8.399
26521WAT     H279806   6.107   5.931   8.256
26522WAT      O79807   0.297   1.243   8.434
26522WAT     H179808   0.219   1.286   8.389
26522WAT     H279809   0.382   1.276   8.392
26523WAT      O79810   7.674   8.687   1.321
26523WAT     H179811   7.701   8.661   1.228
26523WAT     H279812   7.614   8.766   1.317
26524WAT      O79813   5.983   8.695   3.713
26524WAT     H179814   5.931   8.611   3.728
26524WAT     H279815   6.027   8.691   3.623
26525WAT      O79816   5.604   9.815   6.118
26525WAT     H179817   5.586   9.855   6.028
26525WAT     H279818   5.694   9.843   6.149
26526WAT      O79819   0.613   3.528   8.468
26526WAT     H179820   0.701   3.563   8.435
26526WAT     H279821   0.555   3.604   8.496
26527WAT      O79822   3.683   0.712   5.780
26527WAT     H179823   3.764   0.772   5.785
26527WAT     H279824   3.660   0.680   5.872
26528WAT      O79825   9.788   8.307   3.328
26528WAT     H179826   9.794   8.346   3.237
26528WAT     H279827   9.794   8.380   3.397
26529WAT      O79828   4.459   2.958   2.626
26529WAT     H179829   4.390   2.914   2.684
26529WAT     H279830   4.489   2.894   2.555
26530WAT      O79831   9.199   5.653   3.447
26530WAT     H179832   9.293   5.666   3.415
26530WAT     H279833   9.142   5.619   3.372
26531WAT      O79834   4.089   5.298   7.292
26531WAT     H179835   4.069   5.216   7.238
26531WAT     H279836   4.188   5.314   7.293
26532WAT      O79837   1.006   1.439   4.930
26532WAT     H179838   0.939   1.513   4.934
26532WAT     H279839   1.038   1.428   4.836
26533WAT      O79840   9.287   8.192   3.249
26533WAT     H179841   9.311   8.154   3.339
26533WAT     H279842   9.240   8.279   3.261
26534WAT      O79843   3.317   9.314   8.369
26534WAT     H179844   3.377   9.236   8.355
26534WAT     H279845   3.274   9.307   8.460
26535WAT      O79846   7.397   2.700   9.739
26535WAT     H179847   7.359   2.793   9.744
26535WAT     H279848   7.326   2.638   9.704
26536WAT      O79849   6.522   6.358   0.890
26536WAT     H179850   6.572   6.440   0.864
26536WAT     H279851   6.512   6.356   0.990
26537WAT      O79852   5.804   8.335   1.139
26537WAT     H179853   5.834   8.429   1.125
26537WAT     H279854   5.861   8.292   1.209
26538WAT      O79855   9.386   7.476   1.700
26538WAT     H179856   9.393   7.575   1.708
26538WAT     H279857   9.320   7.453   1.628
26539WAT      O79858   4.410   1.481   7.836
26539WAT     H179859   4.428   1.563   7.782
26539WAT     H279860   4.497   1.446   7.872
26540WAT      O79861   3.528   9.796   6.711
26540WAT     H179862   3.483   9.847   6.784
26540WAT     H279863   3.490   9.823   6.623
26541WAT      O79864   8.779   2.838   7.234
26541WAT     H179865   8.769   2.915   7.172
26541WAT     H279866   8.876   2.816   7.245
26542WAT      O79867   4.127   3.276   7.429
26542WAT     H179868   4.207   3.326   7.461
26542WAT     H279869   4.062   3.339   7.388
26543WAT      O79870   2.156   0.467   2.769
26543WAT     H179871   2.211   0.497   2.847
26543WAT     H279872   2.214   0.418   2.703
26544WAT      O79873   4.201   5.131   9.679
26544WAT     H179874   4.191   5.131   9.580
26544WAT     H279875   4.113   5.153   9.721
26545WAT      O79876   6.387   0.837   2.609
26545WAT     H179877   6.472   0.809   2.653
26545WAT     H279878   6.313   0.776   2.639
26546WAT      O79879   3.764   7.280   2.535
26546WAT     H179880   3.784   7.185   2.556
26546WAT     H279881   3.838   7.338   2.569
26547WAT      O79882   4.337   6.356   4.611
26547WAT     H179883   4.338   6.321   4.518
26547WAT     H279884   4.427   6.393   4.634
26548WAT      O79885   6.215   6.887   0.221
26548WAT     H179886   6.287   6.881   0.152
26548WAT     H279887   6.177   6.979   0.222
26549WAT      O79888   0.537   4.732   6.071
26549WAT     H179889   0.544   4.651   6.130
26549WAT     H279890   0.576   4.712   5.981
26550WAT      O79891   7.971   8.589   1.625
26550WAT     H179892   8.033   8.604   1.548
26550WAT     H279893   7.880   8.564   1.591
26551WAT      O79894   1.800   5.475   3.626
26551WAT     H179895   1.718   5.420   3.610
26551WAT     H279896   1.876   5.440   3.571
26552WAT      O79897   3.587   2.138   6.945
26552WAT     H179898   3.585   2.231   6.982
26552WAT     H279899   3.545   2.137   6.854
26553WAT      O79900   6.249   6.088   8.561
26553WAT     H179901   6.257   5.998   8.519
26553WAT     H279902   6.267   6.158   8.493
26554WAT      O79903   5.613   2.889   9.063
26554WAT     H179904   5.564   2.805   9.087
26554WAT     H279905   5.711   2.870   9.056
26555WAT      O79906   4.933   2.498   1.341
26555WAT     H179907   4.846   2.540   1.316
26555WAT     H279908   4.925   2.398   1.333
26556WAT      O79909   8.057   4.699   8.788
26556WAT     H179910   8.064   4.658   8.879
26556WAT     H279911   7.991   4.774   8.790
26557WAT      O79912   4.955   5.847   4.994
26557WAT     H179913   5.029   5.830   5.059
26557WAT     H279914   4.992   5.891   4.912
26558WAT      O79915   5.436   1.649   4.915
26558WAT     H179916   5.384   1.689   4.839
26558WAT     H279917   5.398   1.560   4.938
26559WAT      O79918   1.441   1.267   5.722
26559WAT     H179919   1.499   1.190   5.749
26559WAT     H279920   1.465   1.297   5.630
26560WAT      O79921   3.155   2.732   1.479
26560WAT     H179922   3.075   2.695   1.527
26560WAT     H279923   3.125   2.777   1.395
26561WAT      O79924   8.836   5.822   5.685
26561WAT     H179925   8.785   5.905   5.662
26561WAT     H279926   8.776   5.758   5.733
26562WAT      O79927   8.802   3.808   5.255
26562WAT     H179928   8.833   3.896   5.291
26562WAT     H279929   8.702   3.807   5.252
26563WAT      O79930   6.022   2.102   1.135
26563WAT     H179931   6.040   2.154   1.051
26563WAT     H279932   5.932   2.060   1.129
26564WAT      O79933   8.682   5.488   8.266
26564WAT     H179934   8.751   5.553   8.235
26564WAT     H279935   8.591   5.523   8.245
26565WAT      O79936   8.113   3.573   0.814
26565WAT     H179937   8.098   3.489   0.763
26565WAT     H279938   8.092   3.558   0.911
26566WAT      O79939   4.254   6.773   5.825
26566WAT     H179940   4.182   6.703   5.834
26566WAT     H279941   4.250   6.813   5.733
26567WAT      O79942   5.750   2.727   7.207
26567WAT     H179943   5.821   2.665   7.240
26567WAT     H279944   5.721   2.698   7.115
26568WAT      O79945   1.898   9.166   8.342
26568WAT     H179946   1.957   9.189   8.265
26568WAT     H279947   1.889   9.067   8.349
26569WAT      O79948   1.831   7.600   7.447
26569WAT     H179949   1.875   7.609   7.358
26569WAT     H279950   1.901   7.591   7.518
26570WAT      O79951   6.769   9.230   3.353
26570WAT     H179952   6.672   9.241   3.372
26570WAT     H279953   6.785   9.239   3.254
26571WAT      O79954   2.870   0.214   8.941
26571WAT     H179955   2.777   0.250   8.939
26571WAT     H279956   2.872   0.125   8.895
26572WAT      O79957   6.813   8.218   1.022
26572WAT     H179958   6.826   8.127   1.060
26572WAT     H279959   6.901   8.266   1.019
26573WAT      O79960   9.837   1.990   5.801
26573WAT     H179961   9.758   1.935   5.830
26573WAT     H279962   9.897   2.006   5.880
26574WAT      O79963   3.528   9.492   0.375
26574WAT     H179964   3.588   9.550   0.322
26574WAT     H279965   3.444   9.475   0.324
26575WAT      O79966   7.440   0.217   4.511
26575WAT     H179967   7.503   0.184   4.441
26575WAT     H279968   7.414   0.141   4.570
26576WAT      O79969   7.593   3.606   7.874
26576WAT     H179970   7.640   3.677   7.821
26576WAT     H279971   7.658   3.565   7.939
26577WAT      O79972   8.837   8.993   4.274
26577WAT     H179973   8.744   8.955   4.275
26577WAT     H279974   8.872   8.996   4.367
26578WAT      O79975   0.495   6.836   2.145
26578WAT     H179976   0.509   6.806   2.051
26578WAT     H279977   0.541   6.923   2.159
26579WAT      O79978   8.627   4.509   8.229
26579WAT     H179979   8.679   4.592   8.210
26579WAT     H279980   8.648   4.440   8.160
26580WAT      O79981   2.349   2.219   0.482
26580WAT     H179982   2.372   2.294   0.544
26580WAT     H279983   2.427   2.158   0.472
26581WAT      O79984   7.515   1.831   1.103
26581WAT     H179985   7.466   1.758   1.055
26581WAT     H279986   7.465   1.917   1.093
26582WAT      O79987   0.491   2.640   2.727
26582WAT     H179988   0.488   2.735   2.696
26582WAT     H279989   0.463   2.635   2.823
26583WAT      O79990   6.996   3.003   9.039
26583WAT     H179991   6.931   2.948   8.986
26583WAT     H279992   7.084   2.958   9.042
26584WAT      O79993   4.291   1.521   6.455
26584WAT     H179994   4.213   1.569   6.416
26584WAT     H279995   4.318   1.567   6.540
26585WAT      O79996   5.205   4.252   8.009
26585WAT     H179997   5.157   4.186   7.951
26585WAT     H279998   5.139   4.298   8.069
26586WAT      O79999   0.408   4.732   6.421
26586WAT     H180000   0.456   4.819   6.430
26586WAT     H280001   0.439   4.685   6.338
26587WAT      O80002   8.543   5.780   3.908
26587WAT     H180003   8.524   5.772   4.005
26587WAT     H280004   8.493   5.858   3.870
26588WAT      O80005   2.684   9.832   8.039
26588WAT     H180006   2.628   9.857   7.961
26588WAT     H280007   2.780   9.830   8.013
26589WAT      O80008   4.456   3.156   3.387
26589WAT     H180009   4.481   3.220   3.314
26589WAT     H280010   4.529   3.152   3.454
26590WAT      O80011   6.963   3.016   4.909
26590WAT     H180012   6.941   3.107   4.874
26590WAT     H280013   6.916   3.001   4.996
26591WAT      O80014   6.988   0.296   4.182
26591WAT     H180015   7.010   0.352   4.261
26591WAT     H280016   6.926   0.345   4.121
26592WAT      O80017   8.182   6.721   2.286
26592WAT     H180018   8.281   6.724   2.300
26592WAT     H280019   8.148   6.814   2.272
26593WAT      O80020   8.687   0.126   0.154
26593WAT     H180021   8.750   0.049   0.159
26593WAT     H280022   8.596   0.096   0.183
26594WAT      O80023   0.574   5.975   2.680
26594WAT     H180024   0.662   5.933   2.701
26594WAT     H280025   0.585   6.040   2.605
26595WAT      O80026   7.958   1.553   6.843
26595WAT     H180027   8.021   1.556   6.920
26595WAT     H280028   8.005   1.517   6.762
26596WAT      O80029   1.097   9.215   2.987
26596WAT     H180030   1.008   9.226   3.031
26596WAT     H280031   1.169   9.252   3.047
26597WAT      O80032   8.064   5.471   0.173
26597WAT     H180033   8.099   5.531   0.246
26597WAT     H280034   8.063   5.377   0.206
26598WAT      O80035   6.748   7.446   5.488
26598WAT     H180036   6.688   7.370   5.514
26598WAT     H280037   6.693   7.523   5.457
26599WAT      O80038   3.929   7.717   8.618
26599WAT     H180039   3.898   7.729   8.524
26599WAT     H280040   3.965   7.625   8.630
26600WAT      O80041   9.576   3.626   3.533
26600WAT     H180042   9.488   3.671   3.526
26600WAT     H280043   9.645   3.691   3.565
26601WAT      O80044   0.915   6.786   9.502
26601WAT     H180045   0.887   6.833   9.418
26601WAT     H280046   0.837   6.735   9.539
26602WAT      O80047   1.627   8.832   7.516
26602WAT     H180048   1.685   8.911   7.495
26602WAT     H280049   1.534   8.848   7.482
26603WAT      O80050   1.010   7.515   6.634
26603WAT     H180051   1.082   7.550   6.695
26603WAT     H280052   1.053   7.466   6.558
26604WAT      O80053   1.205   2.210   1.587
26604WAT     H180054   1.119   2.176   1.625
26604WAT     H280055   1.255   2.260   1.657
26605WAT      O80056   4.606   6.320   7.377
26605WAT     H180057   4.553   6.376   7.314
26605WAT     H280058   4.692   6.366   7.398
26606WAT      O80059   7.949   2.311   2.156
26606WAT     H180060   8.011   2.299   2.234
26606WAT     H280061   7.977   2.250   2.082
26607WAT      O80062   0.173   8.496   1.394
26607WAT     H180063   0.090   8.464   1.350
26607WAT     H280064   0.184   8.594   1.378
26608WAT      O80065   2.145   3.146   7.849
26608WAT     H180066   2.188   3.237   7.859
26608WAT     H280067   2.053   3.157   7.811
26609WAT      O80068   6.496   8.994   4.988
26609WAT     H180069   6.460   9.080   5.024
26609WAT     H280070   6.562   8.956   5.053
26610WAT      O80071   6.764   4.807   8.305
26610WAT     H180072   6.675   4.763   8.302
26610WAT     H280073   6.806   4.804   8.214
26611WAT      O80074   3.485   7.561   5.687
26611WAT     H180075   3.582   7.585   5.690
26611WAT     H280076   3.435   7.615   5.755
26612WAT      O80077   5.113   6.563   6.038
26612WAT     H180078   5.123   6.489   6.105
26612WAT     H280079   5.038   6.541   5.976
26613WAT      O80080   8.645   6.849   7.426
26613WAT     H180081   8.658   6.926   7.489
26613WAT     H280082   8.724   6.788   7.432
26614WAT      O80083   0.366   0.519   4.382
26614WAT     H180084   0.273   0.482   4.377
26614WAT     H280085   0.426   0.451   4.423
26615WAT      O80086   4.650   2.437   8.975
26615WAT     H180087   4.707   2.377   8.918
26615WAT     H280088   4.695   2.454   9.062
26616WAT      O80089   2.830   7.502   5.181
26616WAT     H180090   2.903   7.563   5.151
26616WAT     H280091   2.868   7.412   5.201
26617WAT      O80092   4.493   7.729   1.142
26617WAT     H180093   4.551   7.667   1.089
26617WAT     H280094   4.404   7.736   1.098
26618WAT      O80095   9.012   7.392   0.953
26618WAT     H180096   9.100   7.404   0.907
26618WAT     H280097   8.946   7.353   0.889
26619WAT      O80098   8.113   5.160   4.190
26619WAT     H180099   8.171   5.094   4.238
26619WAT     H280100   8.021   5.158   4.229
26620WAT      O80101   5.451   4.745   1.250
26620WAT     H180102   5.369   4.728   1.195
26620WAT     H280103   5.531   4.706   1.204
26621WAT      O80104   0.933   2.309   0.061
26621WAT     H180105   1.007   2.322  -0.005
26621WAT     H280106   0.972   2.309   0.154
26622WAT      O80107   7.013   6.808   8.056
26622WAT     H180108   6.946   6.742   8.089
26622WAT     H280109   6.965   6.889   8.022
26623WAT      O80110   1.311   3.196   4.825
26623WAT     H180111   1.248   3.262   4.865
26623WAT     H280112   1.404   3.217   4.852
26624WAT      O80113   9.578   3.491   8.007
26624WAT     H180114   9.618   3.505   7.916
26624WAT     H280115   9.485   3.457   7.997
26625WAT      O80116   3.214   8.242   6.552
26625WAT     H180117   3.142   8.173   6.552
26625WAT     H280118   3.268   8.235   6.636
26626WAT      O80119   4.217   0.917   1.237
26626WAT     H180120   4.168   0.967   1.308
26626WAT     H280121   4.293   0.973   1.204
26627WAT      O80122   0.771   5.112   0.274
26627WAT     H180123   0.765   5.158   0.363
26627WAT     H280124   0.679   5.092   0.241
26628WAT      O80125   2.881   0.084   4.075
26628WAT     H180126   2.938   0.033   4.011
26628WAT     H280127   2.798   0.032   4.093
26629WAT      O80128   1.217   3.596   3.440
26629WAT     H180129   1.260   3.603   3.350
26629WAT     H280130   1.196   3.688   3.474
26630WAT      O80131   4.538   7.982   8.337
26630WAT     H180132   4.467   7.916   8.315
26630WAT     H280133   4.628   7.941   8.323
26631WAT      O80134   1.188   7.444   0.641
26631WAT     H180135   1.233   7.398   0.564
26631WAT     H280136   1.170   7.539   0.617
26632WAT      O80137   0.929   9.516   8.659
26632WAT     H180138   0.878   9.449   8.714
26632WAT     H280139   0.871   9.546   8.583
26633WAT      O80140   9.009   3.549   6.760
26633WAT     H180141   8.917   3.544   6.721
26633WAT     H280142   9.031   3.462   6.805
26634WAT      O80143   2.490   7.515   3.207
26634WAT     H180144   2.531   7.545   3.121
26634WAT     H280145   2.404   7.468   3.189
26635WAT      O80146   0.839   6.818   3.972
26635WAT     H180147   0.805   6.792   3.881
26635WAT     H280148   0.863   6.915   3.971
26636WAT      O80149   5.357   5.197   7.645
26636WAT     H180150   5.440   5.209   7.590
26636WAT     H280151   5.292   5.140   7.595
26637WAT      O80152   8.429   8.483   9.269
26637WAT     H180153   8.442   8.439   9.180
26637WAT     H280154   8.432   8.414   9.342
26638WAT      O80155   7.826   7.278   0.068
26638WAT     H180156   7.833   7.196   0.012
26638WAT     H280157   7.907   7.286   0.126
26639WAT      O80158   7.946   2.480   7.852
26639WAT     H180159   8.012   2.552   7.872
26639WAT     H280160   7.968   2.399   7.907
26640WAT      O80161   4.744   5.147   2.108
26640WAT     H180162   4.696   5.083   2.168
26640WAT     H280163   4.762   5.232   2.157
26641WAT      O80164   5.806   7.915   3.436
26641WAT     H180165   5.747   7.850   3.485
26641WAT     H280166   5.900   7.881   3.437
26642WAT      O80167   7.993   7.526   2.934
26642WAT     H180168   8.058   7.589   2.891
26642WAT     H280169   8.002   7.435   2.893
26643WAT      O80170   3.769   9.267   7.176
26643WAT     H180171   3.813   9.336   7.119
26643WAT     H280172   3.811   9.266   7.267
26644WAT      O80173   7.379   9.199   0.936
26644WAT     H180174   7.341   9.187   0.844
26644WAT     H280175   7.422   9.289   0.944
26645WAT      O80176   0.952   8.101   2.951
26645WAT     H180177   1.007   8.185   2.946
26645WAT     H280178   0.961   8.061   3.042
26646WAT      O80179   3.732   4.109   8.569
26646WAT     H180180   3.796   4.049   8.521
26646WAT     H280181   3.744   4.098   8.668
26647WAT      O80182   6.842   0.554   9.334
26647WAT     H180183   6.875   0.648   9.349
26647WAT     H280184   6.882   0.494   9.403
26648WAT      O80185   6.758   2.362   6.359
26648WAT     H180186   6.774   2.264   6.375
26648WAT     H280187   6.797   2.415   6.434
26649WAT      O80188   6.490   8.941   4.285
26649WAT     H180189   6.482   8.947   4.186
26649WAT     H280190   6.504   9.033   4.323
26650WAT      O80191   3.848   6.149   7.214
26650WAT     H180192   3.827   6.055   7.241
26650WAT     H280193   3.944   6.169   7.235
26651WAT      O80194   0.014   3.944   5.308
26651WAT     H180195  -0.039   3.899   5.380
26651WAT     H280196  -0.047   4.000   5.251
26652WAT      O80197   9.713   6.879   0.634
26652WAT     H180198   9.615   6.901   0.640
26652WAT     H280199   9.726   6.808   0.564
26653WAT      O80200   7.326   8.533   1.412
26653WAT     H180201   7.364   8.481   1.334
26653WAT     H280202   7.348   8.485   1.497
26654WAT      O80203   9.282   3.539   2.543
26654WAT     H180204   9.309   3.444   2.527
26654WAT     H280205   9.276   3.556   2.641
26655WAT      O80206   1.426   2.533   3.177
26655WAT     H180207   1.510   2.495   3.138
26655WAT     H280208   1.449   2.608   3.239
26656WAT      O80209   2.943   3.587   3.148
26656WAT     H180210   2.946   3.553   3.242
26656WAT     H280211   2.998   3.529   3.089
26657WAT      O80212   5.484   1.023   3.077
26657WAT     H180213   5.543   0.986   3.150
26657WAT     H280214   5.539   1.075   3.013
26658WAT      O80215   0.083   8.881   4.642
26658WAT     H180216   0.165   8.938   4.632
26658WAT     H280217   0.110   8.785   4.644
26659WAT      O80218   4.332   9.567   1.548
26659WAT     H180219   4.278   9.543   1.629
26659WAT     H280220   4.402   9.497   1.533
26660WAT      O80221   6.274   1.549   7.687
26660WAT     H180222   6.287   1.604   7.604
26660WAT     H280223   6.189   1.497   7.679
26661WAT      O80224   2.849   7.778   4.930
26661WAT     H180225   2.882   7.843   4.861
26661WAT     H280226   2.818   7.829   5.011
26662WAT      O80227   5.048   5.432   3.299
26662WAT     H180228   5.131   5.434   3.355
26662WAT     H280229   4.976   5.383   3.348
26663WAT      O80230   5.869   2.804   4.067
26663WAT     H180231   5.835   2.775   4.157
26663WAT     H280232   5.885   2.902   4.068
26664WAT      O80233   8.285   0.863   5.078
26664WAT     H180234   8.263   0.840   5.173
26664WAT     H280235   8.381   0.843   5.061
26665WAT      O80236   8.952   0.340   0.859
26665WAT     H180237   8.938   0.439   0.851
26665WAT     H280238   9.004   0.320   0.942
26666WAT      O80239   6.970   3.536   9.039
26666WAT     H180240   6.959   3.444   9.003
26666WAT     H280241   7.002   3.532   9.133
26667WAT      O80242   2.211   1.392   0.318
26667WAT     H180243   2.311   1.398   0.324
26667WAT     H280244   2.183   1.387   0.222
26668WAT      O80245   4.350   7.120   8.960
26668WAT     H180246   4.367   7.085   9.053
26668WAT     H280247   4.398   7.207   8.948
26669WAT      O80248   6.728   8.606   7.872
26669WAT     H180249   6.746   8.701   7.845
26669WAT     H280250   6.695   8.604   7.966
26670WAT      O80251   9.534   7.159   8.022
26670WAT     H180252   9.497   7.211   7.945
26670WAT     H280253   9.524   7.061   8.004
26671WAT      O80254   2.754   6.033   7.433
26671WAT     H180255   2.725   5.998   7.522
26671WAT     H280256   2.805   6.118   7.446
26672WAT      O80257   7.137   2.350   9.303
26672WAT     H180258   7.186   2.286   9.362
26672WAT     H280259   7.197   2.428   9.281
26673WAT      O80260   9.132   7.418   1.521
26673WAT     H180261   9.143   7.336   1.578
26673WAT     H280262   9.046   7.413   1.472
26674WAT      O80263   4.024   1.645   8.770
26674WAT     H180264   3.965   1.725   8.780
26674WAT     H280265   4.088   1.661   8.695
26675WAT      O80266   5.907   6.898   4.755
26675WAT     H180267   5.839   6.951   4.806
26675WAT     H280268   5.876   6.803   4.747
26676WAT      O80269   2.950   6.120   8.463
26676WAT     H180270   2.871   6.092   8.410
26676WAT     H280271   3.008   6.041   8.482
26677WAT      O80272   1.466   5.443   0.167
26677WAT     H180273   1.450   5.458   0.265
26677WAT     H280274   1.563   5.423   0.152
26678WAT      O80275   0.410   0.559   1.096
26678WAT     H180276   0.375   0.632   1.155
26678WAT     H280277   0.424   0.476   1.151
26679WAT      O80278   4.534   0.244   8.271
26679WAT     H180279   4.547   0.342   8.283
26679WAT     H280280   4.619   0.196   8.294
26680WAT      O80281   4.525   8.835   2.992
26680WAT     H180282   4.431   8.808   3.013
26680WAT     H280283   4.584   8.814   3.070
26681WAT      O80284   5.739   8.220   7.869
26681WAT     H180285   5.687   8.299   7.903
26681WAT     H280286   5.836   8.243   7.865
26682WAT      O80287   2.747   7.891   5.146
26682WAT     H180288   2.677   7.941   5.095
26682WAT     H280289   2.702   7.832   5.214
26683WAT      O80290   1.184   9.174   4.673
26683WAT     H180291   1.284   9.172   4.685
26683WAT     H280292   1.142   9.213   4.755
26684WAT      O80293   4.944   9.331   2.889
26684WAT     H180294   4.965   9.428   2.874
26684WAT     H280295   4.935   9.313   2.987
26685WAT      O80296   5.253   6.546   8.151
26685WAT     H180297   5.202   6.496   8.082
26685WAT     H280298   5.347   6.511   8.155
26686WAT      O80299   1.784   3.016   1.099
26686WAT     H180300   1.834   3.092   1.056
26686WAT     H280301   1.796   2.934   1.044
26687WAT      O80302   8.794   3.467   8.719
26687WAT     H180303   8.765   3.415   8.639
26687WAT     H280304   8.783   3.565   8.701
26688WAT      O80305   3.285   2.905   7.675
26688WAT     H180306   3.211   2.929   7.611
26688WAT     H280307   3.270   2.953   7.762
26689WAT      O80308   2.572   4.968   9.113
26689WAT     H180309   2.528   5.016   9.189
26689WAT     H280310   2.557   5.020   9.028
26690WAT      O80311   1.763   1.267   5.604
26690WAT     H180312   1.700   1.344   5.614
26690WAT     H280313   1.780   1.250   5.507
26691WAT      O80314   3.876   4.695   8.955
26691WAT     H180315   3.783   4.692   8.919
26691WAT     H280316   3.936   4.641   8.896
26692WAT      O80317   1.728   4.522   2.016
26692WAT     H180318   1.815   4.530   2.066
26692WAT     H280319   1.655   4.563   2.070
26693WAT      O80320   1.053   5.438   7.067
26693WAT     H180321   1.081   5.515   7.011
26693WAT     H280322   1.126   5.369   7.067
26694WAT      O80323   4.111   0.865   0.715
26694WAT     H180324   4.150   0.781   0.676
26694WAT     H280325   4.102   0.854   0.814
26695WAT      O80326   2.213   1.425   4.603
26695WAT     H180327   2.160   1.443   4.520
26695WAT     H280328   2.295   1.482   4.603
26696WAT      O80329   2.518   7.368   5.783
26696WAT     H180330   2.615   7.391   5.777
26696WAT     H280331   2.467   7.446   5.818
26697WAT      O80332   6.170   7.084   2.743
26697WAT     H180333   6.076   7.073   2.777
26697WAT     H280334   6.234   7.052   2.814
26698WAT      O80335   6.784   1.119   4.057
26698WAT     H180336   6.866   1.149   4.009
26698WAT     H280337   6.771   1.175   4.139
26699WAT      O80338   6.648   8.883   2.062
26699WAT     H180339   6.598   8.797   2.069
26699WAT     H280340   6.731   8.870   2.009
26700WAT      O80341   1.547   1.580   6.658
26700WAT     H180342   1.546   1.514   6.733
26700WAT     H280343   1.465   1.569   6.603
26701WAT      O80344   3.330   3.249   2.868
26701WAT     H180345   3.268   3.213   2.798
26701WAT     H280346   3.424   3.243   2.835
26702WAT      O80347   4.001   9.273   0.972
26702WAT     H180348   4.007   9.175   0.950
26702WAT     H280349   3.932   9.316   0.914
26703WAT      O80350   4.502   7.576   0.026
26703WAT     H180351   4.598   7.555   0.041
26703WAT     H280352   4.446   7.521   0.087
26704WAT      O80353   0.968   7.618   8.710
26704WAT     H180354   0.907   7.550   8.751
26704WAT     H280355   1.059   7.609   8.750
26705WAT      O80356   1.654   8.569   0.310
26705WAT     H180357   1.717   8.598   0.238
26705WAT     H280358   1.601   8.490   0.278
26706WAT      O80359   8.841   7.328   8.579
26706WAT     H180360   8.833   7.253   8.512
26706WAT     H280361   8.909   7.394   8.547
26707WAT      O80362   3.368   0.540   3.828
26707WAT     H180363   3.321   0.466   3.876
26707WAT     H280364   3.316   0.566   3.747
26708WAT      O80365   5.161   1.805   9.231
26708WAT     H180366   5.220   1.826   9.309
26708WAT     H280367   5.213   1.813   9.146
26709WAT      O80368   1.183   2.204   9.277
26709WAT     H180369   1.229   2.241   9.357
26709WAT     H280370   1.085   2.224   9.282
26710WAT      O80371   3.831   9.440   5.854
26710WAT     H180372   3.814   9.342   5.862
26710WAT     H280373   3.803   9.486   5.939
26711WAT      O80374   2.358   2.826   8.672
26711WAT     H180375   2.457   2.829   8.656
26711WAT     H280376   2.312   2.807   8.585
26712WAT      O80377   3.896   7.988   1.677
26712WAT     H180378   3.843   7.935   1.612
26712WAT     H280379   3.946   7.926   1.738
26713WAT      O80380   5.410   8.377   0.871
26713WAT     H180381   5.482   8.445   0.884
26713WAT     H280382   5.356   8.369   0.955
26714WAT      O80383   3.324   1.890   2.929
26714WAT     H180384   3.391   1.874   2.856
26714WAT     H280385   3.350   1.971   2.982
26715WAT      O80386   7.098   8.459   0.857
26715WAT     H180387   7.114   8.405   0.775
26715WAT     H280388   7.114   8.403   0.939
26716WAT      O80389   7.018   8.979   0.502
26716WAT     H180390   6.920   8.999   0.492
26716WAT     H280391   7.063   9.057   0.544
26717WAT      O80392   5.915   5.910   0.859
26717WAT     H180393   5.946   5.861   0.777
26717WAT     H280394   5.856   5.986   0.832
26718WAT      O80395   2.760   0.797   7.067
26718WAT     H180396   2.694   0.761   7.001
26718WAT     H280397   2.771   0.732   7.142
26719WAT      O80398   8.426   3.296   5.268
26719WAT     H180399   8.514   3.262   5.303
26719WAT     H280400   8.352   3.245   5.310
26720WAT      O80401   3.252   0.994   5.032
26720WAT     H180402   3.241   1.071   4.969
26720WAT     H280403   3.225   0.909   4.986
26721WAT      O80404   1.833   5.994   1.051
26721WAT     H180405   1.843   6.057   0.974
26721WAT     H280406   1.915   5.937   1.058
26722WAT      O80407   8.202   1.248   2.516
26722WAT     H180408   8.247   1.215   2.433
26722WAT     H280409   8.116   1.199   2.528
26723WAT      O80410   8.612   5.990   2.898
26723WAT     H180411   8.698   6.021   2.937
26723WAT     H280412   8.536   6.042   2.938
26724WAT      O80413   8.515   8.386   0.223
26724WAT     H180414   8.535   8.418   0.316
26724WAT     H280415   8.550   8.293   0.211
26725WAT      O80416   6.797   3.425   2.545
26725WAT     H180417   6.818   3.495   2.613
26725WAT     H280418   6.854   3.344   2.562
26726WAT      O80419   6.855   8.067   6.479
26726WAT     H180420   6.812   7.998   6.537
26726WAT     H280421   6.954   8.065   6.492
26727WAT      O80422   8.844   6.497   5.253
26727WAT     H180423   8.926   6.528   5.205
26727WAT     H280424   8.823   6.561   5.327
26728WAT      O80425   7.415   8.165   4.801
26728WAT     H180426   7.474   8.150   4.881
26728WAT     H280427   7.472   8.172   4.719
26729WAT      O80428   7.498   7.174   5.512
26729WAT     H180429   7.544   7.263   5.507
26729WAT     H280430   7.408   7.185   5.554
26730WAT      O80431   5.291   8.145   9.151
26730WAT     H180432   5.359   8.104   9.212
26730WAT     H280433   5.259   8.231   9.191
26731WAT      O80434   0.034   8.636   8.573
26731WAT     H180435   0.008   8.733   8.571
26731WAT     H280436  -0.032   8.583   8.520
26732WAT      O80437   3.806   7.608   4.974
26732WAT     H180438   3.879   7.558   5.020
26732WAT     H280439   3.744   7.646   5.043
26733WAT      O80440   5.764   8.627   3.054
26733WAT     H180441   5.679   8.578   3.074
26733WAT     H280442   5.827   8.565   3.008
26734WAT      O80443   3.664   0.900   7.971
26734WAT     H180444   3.629   0.955   7.895
26734WAT     H280445   3.673   0.804   7.941
26735WAT      O80446   6.952   0.296   8.473
26735WAT     H180447   6.928   0.232   8.547
26735WAT     H280448   7.016   0.364   8.508
26736WAT      O80449   7.298   5.764   5.539
26736WAT     H180450   7.265   5.822   5.613
26736WAT     H280451   7.259   5.673   5.547
26737WAT      O80452   6.164   6.657   6.122
26737WAT     H180453   6.251   6.642   6.169
26737WAT     H280454   6.116   6.570   6.112
26738WAT      O80455   4.888   7.911   2.385
26738WAT     H180456   4.903   8.001   2.427
26738WAT     H280457   4.792   7.886   2.394
26739WAT      O80458   3.569   6.785   5.495
26739WAT     H180459   3.611   6.746   5.577
26739WAT     H280460   3.615   6.749   5.414
26740WAT      O80461   8.107   3.478   3.382
26740WAT     H180462   8.126   3.530   3.299
26740WAT     H280463   8.035   3.523   3.434
26741WAT      O80464   1.294   7.461   0.898
26741WAT     H180465   1.242   7.451   0.813
26741WAT     H280466   1.382   7.505   0.878
26742WAT      O80467   4.050   8.484   3.267
26742WAT     H180468   4.066   8.456   3.172
26742WAT     H280469   4.009   8.575   3.269
26743WAT      O80470   0.283   3.456   3.957
26743WAT     H180471   0.222   3.461   3.878
26743WAT     H280472   0.228   3.439   4.040
26744WAT      O80473   0.370   9.675   8.376
26744WAT     H180474   0.466   9.700   8.364
26744WAT     H280475   0.312   9.755   8.362
26745WAT      O80476   4.380   9.057   0.345
26745WAT     H180477   4.473   9.064   0.381
26745WAT     H280478   4.342   9.148   0.331
26746WAT      O80479   2.813   7.714   8.175
26746WAT     H180480   2.733   7.720   8.235
26746WAT     H280481   2.851   7.621   8.180
26747WAT      O80482   0.946   4.340   6.614
26747WAT     H180483   0.871   4.317   6.552
26747WAT     H280484   0.935   4.433   6.648
26748WAT      O80485   7.391   8.056   3.995
26748WAT     H180486   7.419   8.149   4.018
26748WAT     H280487   7.377   8.048   3.896
26749WAT      O80488   8.294   0.203   2.654
26749WAT     H180489   8.290   0.130   2.722
26749WAT     H280490   8.341   0.282   2.693
26750WAT      O80491   7.447   2.957   8.081
26750WAT     H180492   7.475   2.865   8.109
26750WAT     H280493   7.349   2.957   8.062
26751WAT      O80494   9.554   7.865   4.194
26751WAT     H180495   9.474   7.868   4.254
26751WAT     H280496   9.582   7.959   4.172
26752WAT      O80497   4.564   4.809   1.483
26752WAT     H180498   4.573   4.733   1.419
26752WAT     H280499   4.653   4.830   1.523
26753WAT      O80500   7.141   7.909   1.006
26753WAT     H180501   7.127   7.973   1.081
26753WAT     H280502   7.115   7.953   0.920
26754WAT      O80503   5.130   0.108   2.934
26754WAT     H180504   5.131   0.167   3.014
26754WAT     H280505   5.198   0.035   2.946
26755WAT      O80506   9.116   7.029   5.368
26755WAT     H180507   9.213   7.006   5.369
26755WAT     H280508   9.105   7.127   5.387
26756WAT      O80509   4.707   8.333   2.408
26756WAT     H180510   4.713   8.394   2.330
26756WAT     H280511   4.651   8.254   2.385
26757WAT      O80512   6.576   1.147   8.646
26757WAT     H180513   6.638   1.225   8.635
26757WAT     H280514   6.611   1.070   8.592
26758WAT      O80515   9.830   9.729   7.508
26758WAT     H180516   9.780   9.720   7.593
26758WAT     H280517   9.815   9.821   7.470
26759WAT      O80518   4.310   6.326   8.926
26759WAT     H180519   4.334   6.233   8.954
26759WAT     H280520   4.303   6.330   8.826
26760WAT      O80521   5.068   2.221   6.753
26760WAT     H180522   5.031   2.131   6.733
26760WAT     H280523   5.098   2.265   6.669
26761WAT      O80524   2.423   0.809   8.801
26761WAT     H180525   2.416   0.853   8.891
26761WAT     H280526   2.485   0.731   8.808
26762WAT      O80527   9.751   8.499   3.513
26762WAT     H180528   9.809   8.537   3.584
26762WAT     H280529   9.685   8.568   3.483
26763WAT      O80530   0.355   4.827   6.965
26763WAT     H180531   0.327   4.913   7.007
26763WAT     H280532   0.439   4.841   6.913
26764WAT      O80533   5.381   1.074   4.019
26764WAT     H180534   5.457   1.114   3.968
26764WAT     H280535   5.415   0.999   4.076
26765WAT      O80536   6.079   3.197   5.952
26765WAT     H180537   6.057   3.119   5.894
26765WAT     H280538   6.047   3.179   6.045
26766WAT      O80539   8.036   6.953   5.855
26766WAT     H180540   7.985   6.973   5.771
26766WAT     H280541   8.027   7.030   5.918
26767WAT      O80542   9.591   9.746   6.860
26767WAT     H180543   9.547   9.694   6.934
26767WAT     H280544   9.544   9.833   6.848
26768WAT      O80545   2.282   9.159   2.676
26768WAT     H180546   2.364   9.198   2.634
26768WAT     H280547   2.288   9.059   2.676
26769WAT      O80548   0.537   2.704   5.565
26769WAT     H180549   0.458   2.655   5.602
26769WAT     H280550   0.531   2.801   5.591
26770WAT      O80551   2.219   7.865   8.064
26770WAT     H180552   2.156   7.788   8.056
26770WAT     H280553   2.267   7.859   8.151
26771WAT      O80554   2.366   7.237   1.079
26771WAT     H180555   2.365   7.248   0.980
26771WAT     H280556   2.386   7.326   1.121
26772WAT      O80557   7.736   6.092   7.791
26772WAT     H180558   7.674   6.052   7.723
26772WAT     H280559   7.764   6.021   7.856
26773WAT      O80560   2.675   5.442   2.601
26773WAT     H180561   2.746   5.410   2.665
26773WAT     H280562   2.675   5.542   2.600
26774WAT      O80563   6.556   9.733   4.305
26774WAT     H180564   6.636   9.679   4.331
26774WAT     H280565   6.523   9.784   4.384
26775WAT      O80566   1.140   8.135   5.873
26775WAT     H180567   1.167   8.126   5.777
26775WAT     H280568   1.211   8.096   5.932
26776WAT      O80569   4.407   7.403   2.514
26776WAT     H180570   4.494   7.393   2.467
26776WAT     H280571   4.412   7.360   2.604
26777WAT      O80572   2.612   9.842   4.589
26777WAT     H180573   2.547   9.893   4.532
26777WAT     H280574   2.566   9.813   4.673
26778WAT      O80575   8.292   2.870   1.206
26778WAT     H180576   8.304   2.946   1.270
26778WAT     H280577   8.207   2.884   1.155
26779WAT      O80578   1.832   5.448   2.900
26779WAT     H180579   1.850   5.508   2.822
26779WAT     H280580   1.860   5.494   2.984
26780WAT      O80581   4.043   0.504   6.277
26780WAT     H180582   4.039   0.558   6.193
26780WAT     H280583   3.950   0.479   6.305
26781WAT      O80584   1.767   7.344   4.877
26781WAT     H180585   1.832   7.407   4.918
26781WAT     H280586   1.817   7.268   4.834
26782WAT      O80587   3.963   5.015   4.791
26782WAT     H180588   3.886   4.981   4.846
26782WAT     H280589   3.933   5.028   4.697
26783WAT      O80590   4.928   0.287   5.552
26783WAT     H180591   4.978   0.243   5.477
26783WAT     H280592   4.830   0.286   5.533
26784WAT      O80593   4.967   7.103   1.024
26784WAT     H180594   5.031   7.150   1.085
26784WAT     H280595   4.957   7.155   0.939
26785WAT      O80596   6.955   4.315   9.182
26785WAT     H180597   6.890   4.385   9.213
26785WAT     H280598   6.913   4.261   9.109
26786WAT      O80599   5.855   4.032   7.577
26786WAT     H180600   5.862   4.003   7.673
26786WAT     H280601   5.877   4.129   7.570
26787WAT      O80602   3.882   9.400   2.121
26787WAT     H180603   3.909   9.437   2.210
26787WAT     H280604   3.795   9.440   2.093
26788WAT      O80605   5.547   3.377   9.745
26788WAT     H180606   5.612   3.390   9.670
26788WAT     H280607   5.537   3.463   9.795
26789WAT      O80608   8.212   0.203   2.331
26789WAT     H180609   8.238   0.188   2.427
26789WAT     H280610   8.138   0.270   2.326
26790WAT      O80611   4.063   2.197   5.113
26790WAT     H180612   4.033   2.268   5.177
26790WAT     H280613   4.155   2.168   5.137
26791WAT      O80614   0.397   9.612   7.378
26791WAT     H180615   0.417   9.517   7.355
26791WAT     H280616   0.461   9.644   7.447
26792WAT      O80617   0.291   8.314   3.286
26792WAT     H180618   0.286   8.410   3.312
26792WAT     H280619   0.324   8.260   3.363
26793WAT      O80620   8.057   2.815   7.340
26793WAT     H180621   8.120   2.747   7.304
26793WAT     H280622   8.101   2.865   7.415
26794WAT      O80623   1.479   4.704   1.734
26794WAT     H180624   1.407   4.771   1.713
26794WAT     H280625   1.503   4.654   1.650
26795WAT      O80626   4.200   0.334   4.147
26795WAT     H180627   4.219   0.414   4.090
26795WAT     H280628   4.237   0.350   4.239
26796WAT      O80629   5.489   0.864   7.134
26796WAT     H180630   5.429   0.944   7.135
26796WAT     H280631   5.523   0.846   7.227
26797WAT      O80632   4.884   9.308   4.055
26797WAT     H180633   4.957   9.372   4.078
26797WAT     H280634   4.845   9.333   3.967
26798WAT      O80635   9.407   1.343   5.882
26798WAT     H180636   9.400   1.282   5.961
26798WAT     H280637   9.471   1.304   5.815
26799WAT      O80638   6.928   0.802   9.408
26799WAT     H180639   7.015   0.843   9.380
26799WAT     H280640   6.853   0.847   9.360
26800WAT      O80641   2.287   6.786   6.900
26800WAT     H180642   2.234   6.703   6.916
26800WAT     H280643   2.259   6.856   6.966
26801WAT      O80644   1.528   8.818   0.411
26801WAT     H180645   1.435   8.847   0.391
26801WAT     H280646   1.539   8.722   0.386
26802WAT      O80647   6.045   5.641   9.516
26802WAT     H180648   5.977   5.573   9.545
26802WAT     H280649   6.008   5.733   9.530
26803WAT      O80650   3.130   1.302   5.487
26803WAT     H180651   3.110   1.210   5.520
26803WAT     H280652   3.172   1.356   5.560
26804WAT      O80653   7.067   7.454   2.084
26804WAT     H180654   6.992   7.520   2.074
26804WAT     H280655   7.135   7.471   2.013
26805WAT      O80656   8.377   3.038   1.693
26805WAT     H180657   8.324   3.116   1.726
26805WAT     H280658   8.474   3.052   1.713
26806WAT      O80659   8.099   3.465   3.987
26806WAT     H180660   8.171   3.532   3.967
26806WAT     H280661   8.013   3.495   3.946
26807WAT      O80662   7.912   0.428   9.105
26807WAT     H180663   7.984   0.364   9.130
26807WAT     H280664   7.829   0.407   9.155
26808WAT      O80665   2.791   4.711   0.195
26808WAT     H180666   2.781   4.810   0.187
26808WAT     H280667   2.877   4.683   0.151
26809WAT      O80668   3.659   7.718   8.902
26809WAT     H180669   3.752   7.753   8.903
26809WAT     H280670   3.618   7.735   8.811
26810WAT      O80671   1.773   3.664   8.084
26810WAT     H180672   1.757   3.760   8.064
26810WAT     H280673   1.862   3.636   8.046
26811WAT      O80674   5.488   3.397   2.114
26811WAT     H180675   5.461   3.443   2.199
26811WAT     H280676   5.541   3.315   2.137
26812WAT      O80677   0.599   5.558   2.006
26812WAT     H180678   0.688   5.513   2.002
26812WAT     H280679   0.610   5.656   1.993
26813WAT      O80680   6.240   5.242   0.495
26813WAT     H180681   6.230   5.197   0.584
26813WAT     H280682   6.231   5.174   0.422
26814WAT      O80683   3.570   0.159   3.842
26814WAT     H180684   3.592   0.236   3.782
26814WAT     H280685   3.616   0.170   3.930
26815WAT      O80686   0.756   1.840   6.947
26815WAT     H180687   0.748   1.777   7.024
26815WAT     H280688   0.678   1.827   6.885
26816WAT      O80689   7.692   0.765   1.090
26816WAT     H180690   7.632   0.838   1.058
26816WAT     H280691   7.719   0.708   1.013
26817WAT      O80692   4.240   9.116   4.568
26817WAT     H180693   4.244   9.055   4.489
26817WAT     H280694   4.193   9.070   4.644
26818WAT      O80695   2.798   3.300   8.083
26818WAT     H180696   2.816   3.288   8.180
26818WAT     H280697   2.819   3.215   8.034
26819WAT      O80698   7.292   8.797   5.823
26819WAT     H180699   7.219   8.810   5.755
26819WAT     H280700   7.285   8.705   5.862
26820WAT      O80701   2.612   6.048   4.437
26820WAT     H180702   2.616   6.095   4.525
26820WAT     H280703   2.658   6.104   4.368
26821WAT      O80704   4.036   5.613   7.665
26821WAT     H180705   4.106   5.547   7.640
26821WAT     H280706   3.946   5.577   7.640
26822WAT      O80707   9.817   3.698   7.361
26822WAT     H180708   9.728   3.714   7.404
26822WAT     H280709   9.814   3.610   7.312
26823WAT      O80710   5.648   2.691   9.625
26823WAT     H180711   5.575   2.704   9.558
26823WAT     H280712   5.653   2.772   9.685
26824WAT      O80713   5.623   3.717   2.602
26824WAT     H180714   5.595   3.622   2.587
26824WAT     H280715   5.693   3.743   2.536
26825WAT      O80716   9.306   4.198   0.499
26825WAT     H180717   9.337   4.142   0.576
26825WAT     H280718   9.352   4.168   0.415
26826WAT      O80719   5.164   9.257   0.956
26826WAT     H180720   5.233   9.210   1.010
26826WAT     H280721   5.073   9.220   0.977
26827WAT      O80722   9.848   1.976   3.221
26827WAT     H180723   9.857   1.982   3.121
26827WAT     H280724   9.774   2.037   3.251
26828WAT      O80725   0.235   3.889   3.823
26828WAT     H180726   0.280   3.830   3.889
26828WAT     H280727   0.297   3.962   3.794
26829WAT      O80728   5.878   0.976   3.032
26829WAT     H180729   5.959   0.920   3.017
26829WAT     H280730   5.894   1.068   2.996
26830WAT      O80731   9.709   4.921   6.032
26830WAT     H180732   9.636   4.923   5.963
26830WAT     H280733   9.711   5.010   6.080
26831WAT      O80734   2.201   9.752   7.487
26831WAT     H180735   2.223   9.693   7.409
26831WAT     H280736   2.102   9.754   7.501
26832WAT      O80737   5.358   9.833   5.945
26832WAT     H180738   5.313   9.849   5.857
26832WAT     H280739   5.368   9.920   5.994
26833WAT      O80740   3.737   4.571   1.630
26833WAT     H180741   3.752   4.484   1.583
26833WAT     H280742   3.759   4.561   1.727
26834WAT      O80743   8.716   7.925   9.353
26834WAT     H180744   8.814   7.946   9.358
26834WAT     H280745   8.702   7.841   9.301
26835WAT      O80746   6.275   8.392   7.157
26835WAT     H180747   6.219   8.380   7.074
26835WAT     H280748   6.340   8.317   7.164
26836WAT      O80749   4.059   0.639   7.584
26836WAT     H180750   4.092   0.547   7.606
26836WAT     H280751   3.997   0.634   7.506
26837WAT      O80752   6.165   8.587   2.003
26837WAT     H180753   6.228   8.517   1.969
26837WAT     H280754   6.163   8.584   2.103
26838WAT      O80755   6.046   8.398   6.678
26838WAT     H180756   6.115   8.415   6.607
26838WAT     H280757   5.970   8.346   6.638
26839WAT      O80758   7.567   5.504   8.019
26839WAT     H180759   7.587   5.556   7.936
26839WAT     H280760   7.474   5.469   8.015
26840WAT      O80761   6.745   7.248   5.168
26840WAT     H180762   6.799   7.232   5.251
26840WAT     H280763   6.772   7.181   5.099
26841WAT      O80764   9.755   9.364   5.007
26841WAT     H180765   9.729   9.369   5.103
26841WAT     H280766   9.742   9.454   4.964
26842WAT      O80767   4.114   8.028   3.767
26842WAT     H180768   4.145   8.079   3.848
26842WAT     H280769   4.043   7.963   3.793
26843WAT      O80770   2.589   3.080   5.400
26843WAT     H180771   2.534   3.109   5.479
26843WAT     H280772   2.534   3.020   5.342
26844WAT      O80773   7.136   1.717   6.786
26844WAT     H180774   7.059   1.780   6.778
26844WAT     H280775   7.173   1.698   6.695
26845WAT      O80776   6.278   6.496   6.861
26845WAT     H180777   6.351   6.516   6.927
26845WAT     H280778   6.195   6.544   6.887
26846WAT      O80779   4.399   8.792   0.705
26846WAT     H180780   4.373   8.887   0.724
26846WAT     H280781   4.323   8.732   0.729
26847WAT      O80782   5.504   3.045   6.592
26847WAT     H180783   5.507   2.946   6.607
26847WAT     H280784   5.497   3.092   6.680
26848WAT      O80785   7.480   1.492   6.530
26848WAT     H180786   7.414   1.424   6.560
26848WAT     H280787   7.564   1.446   6.502
26849WAT      O80788   9.521   4.755   4.866
26849WAT     H180789   9.450   4.728   4.801
26849WAT     H280790   9.530   4.855   4.866
26850WAT      O80791   6.344   1.424   6.067
26850WAT     H180792   6.296   1.353   6.118
26850WAT     H280793   6.287   1.454   5.991
26851WAT      O80794   9.331   3.242   7.534
26851WAT     H180795   9.298   3.147   7.532
26851WAT     H280796   9.424   3.246   7.498
26852WAT      O80797   7.108   1.739   5.287
26852WAT     H180798   7.148   1.650   5.308
26852WAT     H280799   7.065   1.776   5.369
26853WAT      O80800   7.813   8.142   8.355
26853WAT     H180801   7.749   8.110   8.425
26853WAT     H280802   7.813   8.242   8.353
26854WAT      O80803   6.064   9.427   0.540
26854WAT     H180804   6.094   9.481   0.618
26854WAT     H280805   6.136   9.424   0.471
26855WAT      O80806   6.415   6.628   6.223
26855WAT     H180807   6.445   6.534   6.207
26855WAT     H280808   6.434   6.653   6.318
26856WAT      O80809   2.134   1.191   8.118
26856WAT     H180810   2.119   1.192   8.217
26856WAT     H280811   2.139   1.096   8.086
26857WAT      O80812   4.827   7.452   5.438
26857WAT     H180813   4.863   7.540   5.404
26857WAT     H280814   4.806   7.393   5.360
26858WAT      O80815   3.047   3.017   0.315
26858WAT     H180816   2.954   3.013   0.351
26858WAT     H280817   3.043   3.023   0.215
26859WAT      O80818   0.697   5.968   3.932
26859WAT     H180819   0.731   5.936   3.843
26859WAT     H280820   0.613   5.919   3.954
26860WAT      O80821   8.368   9.405   9.179
26860WAT     H180822   8.419   9.319   9.182
26860WAT     H280823   8.311   9.413   9.261
26861WAT      O80824   6.694   2.040   3.667
26861WAT     H180825   6.622   2.012   3.604
26861WAT     H280826   6.747   2.114   3.625
26862WAT      O80827   2.204   2.581   7.272
26862WAT     H180828   2.192   2.498   7.327
26862WAT     H280829   2.128   2.644   7.290
26863WAT      O80830   2.876   3.074   3.607
26863WAT     H180831   2.861   3.171   3.592
26863WAT     H280832   2.861   3.053   3.704
26864WAT      O80833   6.766   1.032   9.544
26864WAT     H180834   6.668   1.022   9.525
26864WAT     H280835   6.804   1.105   9.487
26865WAT      O80836   0.887   5.713   3.495
26865WAT     H180837   0.903   5.627   3.445
26865WAT     H280838   0.953   5.721   3.569
26866WAT      O80839   7.612   7.918   3.774
26866WAT     H180840   7.709   7.898   3.769
26866WAT     H280841   7.575   7.885   3.860
26867WAT      O80842   9.192   6.357   5.454
26867WAT     H180843   9.193   6.457   5.456
26867WAT     H280844   9.110   6.323   5.500
26868WAT      O80845   1.396   8.932   4.021
26868WAT     H180846   1.329   9.003   3.999
26868WAT     H280847   1.403   8.867   3.945
26869WAT      O80848   1.698   8.425   3.479
26869WAT     H180849   1.765   8.491   3.443
26869WAT     H280850   1.658   8.374   3.403
26870WAT      O80851   6.267   7.962   6.782
26870WAT     H180852   6.338   7.941   6.849
26870WAT     H280853   6.309   7.976   6.692
26871WAT      O80854   6.407   7.890   1.425
26871WAT     H180855   6.394   7.989   1.430
26871WAT     H280856   6.424   7.864   1.330
26872WAT      O80857   4.007   6.142   1.765
26872WAT     H180858   4.087   6.169   1.819
26872WAT     H280859   3.989   6.044   1.778
26873WAT      O80860   1.075   8.040   9.794
26873WAT     H180861   1.033   8.126   9.764
26873WAT     H280862   1.118   8.054   9.883
26874WAT      O80863   6.978   4.223   6.029
26874WAT     H180864   6.921   4.152   6.070
26874WAT     H280865   7.047   4.252   6.096
26875WAT      O80866   3.427   1.603   0.874
26875WAT     H180867   3.403   1.575   0.781
26875WAT     H280868   3.411   1.527   0.937
26876WAT      O80869   1.421   1.019   1.854
26876WAT     H180870   1.518   1.020   1.881
26876WAT     H280871   1.375   1.098   1.895
26877WAT      O80872   6.102   1.398   7.478
26877WAT     H180873   6.025   1.451   7.513
26877WAT     H280874   6.159   1.456   7.420
26878WAT      O80875   5.220   7.269   7.252
26878WAT     H180876   5.255   7.293   7.343
26878WAT     H280877   5.120   7.267   7.255
26879WAT      O80878   0.967   9.078   7.035
26879WAT     H180879   0.963   9.158   7.096
26879WAT     H280880   0.979   8.995   7.090
26880WAT      O80881   0.848   0.824   8.284
26880WAT     H180882   0.859   0.755   8.213
26880WAT     H280883   0.893   0.793   8.368
26881WAT      O80884   0.047   5.777   3.186
26881WAT     H180885   0.053   5.736   3.095
26881WAT     H280886  -0.034   5.742   3.234
26882WAT      O80887   1.209   2.027   4.242
26882WAT     H180888   1.248   2.026   4.335
26882WAT     H280889   1.283   2.034   4.175
26883WAT      O80890   3.879   6.113   0.922
26883WAT     H180891   3.944   6.114   0.998
26883WAT     H280892   3.810   6.043   0.938
26884WAT      O80893   5.940   2.645   7.448
26884WAT     H180894   5.847   2.645   7.483
26884WAT     H280895   5.961   2.556   7.406
26885WAT      O80896   9.379   3.688   0.777
26885WAT     H180897   9.464   3.646   0.747
26885WAT     H280898   9.395   3.741   0.860
26886WAT      O80899   7.146   7.926   5.759
26886WAT     H180900   7.204   7.995   5.803
26886WAT     H280901   7.127   7.954   5.665
26887WAT      O80902   8.155   0.925   1.592
26887WAT     H180903   8.236   0.895   1.641
26887WAT     H280904   8.130   1.018   1.622
26888WAT      O80905   4.921   2.701   3.393
26888WAT     H180906   4.991   2.772   3.388
26888WAT     H280907   4.860   2.708   3.315
26889WAT      O80908   2.764   4.752   0.897
26889WAT     H180909   2.844   4.693   0.909
26889WAT     H280910   2.781   4.841   0.938
26890WAT      O80911   0.538   9.329   1.572
26890WAT     H180912   0.550   9.291   1.480
26890WAT     H280913   0.446   9.309   1.605
26891WAT      O80914   0.022   3.588   3.083
26891WAT     H180915   0.051   3.644   3.161
26891WAT     H280916  -0.069   3.616   3.053
26892WAT      O80917   8.144   2.566   2.395
26892WAT     H180918   8.223   2.623   2.375
26892WAT     H280919   8.165   2.471   2.373
26893WAT      O80920   3.423   2.487   0.565
26893WAT     H180921   3.374   2.522   0.486
26893WAT     H280922   3.365   2.421   0.613
26894WAT      O80923   7.162   7.411   5.360
26894WAT     H180924   7.210   7.471   5.424
26894WAT     H280925   7.084   7.460   5.321
26895WAT      O80926   2.835   7.249   3.777
26895WAT     H180927   2.747   7.210   3.805
26895WAT     H280928   2.821   7.312   3.701
26896WAT      O80929   6.347   7.571   5.299
26896WAT     H180930   6.352   7.669   5.279
26896WAT     H280931   6.290   7.556   5.379
26897WAT      O80932   1.285   6.030   6.284
26897WAT     H180933   1.257   6.078   6.201
26897WAT     H280934   1.362   6.078   6.325
26898WAT      O80935   0.932   1.732   6.334
26898WAT     H180936   0.928   1.827   6.363
26898WAT     H280937   0.839   1.695   6.326
26899WAT      O80938   7.007   2.420   2.226
26899WAT     H180939   6.989   2.519   2.231
26899WAT     H280940   7.097   2.401   2.266
26900WAT      O80941   0.759   7.226   6.996
26900WAT     H180942   0.828   7.178   6.942
26900WAT     H280943   0.761   7.193   7.090
26901WAT      O80944   2.234   1.445   5.933
26901WAT     H180945   2.174   1.524   5.947
26901WAT     H280946   2.179   1.362   5.924
26902WAT      O80947   4.356   8.670   3.334
26902WAT     H180948   4.297   8.734   3.284
26902WAT     H280949   4.408   8.615   3.268
26903WAT      O80950   8.719   3.059   4.874
26903WAT     H180951   8.765   3.009   4.948
26903WAT     H280952   8.767   3.145   4.858
26904WAT      O80953   9.482   5.693   7.668
26904WAT     H180954   9.393   5.650   7.681
26904WAT     H280955   9.534   5.642   7.600
26905WAT      O80956   8.380   3.032   8.811
26905WAT     H180957   8.461   3.042   8.869
26905WAT     H280958   8.404   3.056   8.717
26906WAT      O80959   2.136   2.838   7.099
26906WAT     H180960   2.186   2.761   7.058
26906WAT     H280961   2.188   2.922   7.084
26907WAT      O80962   7.526   1.676   4.653
26907WAT     H180963   7.502   1.579   4.657
26907WAT     H280964   7.443   1.731   4.645
26908WAT      O80965   3.379   7.160   8.422
26908WAT     H180966   3.432   7.074   8.418
26908WAT     H280967   3.282   7.138   8.437
26909WAT      O80968   5.137   6.616   1.000
26909WAT     H180969   5.147   6.641   0.904
26909WAT     H280970   5.110   6.697   1.052
26910WAT      O80971   4.182   1.480   9.691
26910WAT     H180972   4.250   1.535   9.739
26910WAT     H280973   4.189   1.385   9.721
26911WAT      O80974   4.845   8.216   8.000
26911WAT     H180975   4.762   8.167   8.027
26911WAT     H280976   4.886   8.260   8.080
26912WAT      O80977   6.117   0.235   2.929
26912WAT     H180978   6.180   0.311   2.912
26912WAT     H280979   6.127   0.167   2.856
26913WAT      O80980   2.713   9.576   8.135
26913WAT     H180981   2.684   9.564   8.230
26913WAT     H280982   2.691   9.669   8.104
26914WAT      O80983   9.465   7.576   3.742
26914WAT     H180984   9.510   7.665   3.735
26914WAT     H280985   9.505   7.513   3.676
26915WAT      O80986   6.048   0.506   9.788
26915WAT     H180987   6.060   0.432   9.854
26915WAT     H280988   6.109   0.492   9.710
26916WAT      O80989   0.096   8.435   9.679
26916WAT     H180990   0.049   8.497   9.616
26916WAT     H280991   0.190   8.420   9.648
26917WAT      O80992   8.731   4.054   0.701
26917WAT     H180993   8.659   4.050   0.771
26917WAT     H280994   8.815   4.089   0.743
26918WAT      O80995   8.028   9.548   2.366
26918WAT     H180996   7.982   9.636   2.369
26918WAT     H280997   8.101   9.551   2.298
26919WAT      O80998   8.956   2.967   6.055
26919WAT     H180999   8.873   3.020   6.073
26919WAT     H281000   8.956   2.936   5.960
26920WAT      O81001   1.645   1.136   7.760
26920WAT     H181002   1.730   1.188   7.752
26920WAT     H281003   1.602   1.157   7.848
26921WAT      O81004   0.396   8.605   6.218
26921WAT     H181005   0.341   8.683   6.249
26921WAT     H281006   0.385   8.529   6.282
26922WAT      O81007   2.012   8.993   6.610
26922WAT     H181008   2.070   8.975   6.530
26922WAT     H281009   1.973   8.907   6.642
26923WAT      O81010   7.076   1.047   3.482
26923WAT     H181011   6.995   1.076   3.431
26923WAT     H281012   7.094   1.111   3.556
26924WAT      O81013   8.331   9.095   7.398
26924WAT     H181014   8.234   9.072   7.405
26924WAT     H281015   8.383   9.042   7.465
26925WAT      O81016   0.653   6.327   7.083
26925WAT     H181017   0.662   6.228   7.075
26925WAT     H281018   0.650   6.352   7.180
26926WAT      O81019   8.076   6.122   1.763
26926WAT     H181020   8.064   6.146   1.667
26926WAT     H281021   7.987   6.098   1.803
26927WAT      O81022   0.636   6.824   8.666
26927WAT     H181023   0.607   6.805   8.572
26927WAT     H281024   0.602   6.752   8.727
26928WAT      O81025   9.339   3.000   6.312
26928WAT     H181026   9.293   2.937   6.375
26928WAT     H281027   9.293   2.996   6.223
26929WAT      O81028   1.971   2.006   3.643
26929WAT     H181029   1.907   2.055   3.702
26929WAT     H281030   2.039   1.959   3.699
26930WAT      O81031   4.264   7.761   7.576
26930WAT     H181032   4.278   7.664   7.594
26930WAT     H281033   4.268   7.812   7.662
26931WAT      O81034   7.343   8.763   8.999
26931WAT     H181035   7.300   8.853   8.992
26931WAT     H281036   7.411   8.754   8.927
26932WAT      O81037   4.732   4.653   1.785
26932WAT     H181038   4.764   4.734   1.735
26932WAT     H281039   4.647   4.620   1.743
26933WAT      O81040   8.498   8.224   0.875
26933WAT     H181041   8.519   8.154   0.806
26933WAT     H281042   8.400   8.239   0.879
26934WAT      O81043   6.712   9.085   9.312
26934WAT     H181044   6.735   9.108   9.406
26934WAT     H281045   6.658   9.158   9.271
26935WAT      O81046   5.713   1.763   9.715
26935WAT     H181047   5.753   1.846   9.676
26935WAT     H281048   5.779   1.688   9.709
26936WAT      O81049   7.267   9.183   8.736
26936WAT     H181050   7.247   9.130   8.654
26936WAT     H281051   7.207   9.263   8.740
26937WAT      O81052   4.445   3.694   7.857
26937WAT     H181053   4.371   3.666   7.797
26937WAT     H281054   4.471   3.618   7.916
26938WAT      O81055   0.312   3.830   6.057
26938WAT     H181056   0.231   3.774   6.071
26938WAT     H281057   0.296   3.894   5.982
26939WAT      O81058   9.212   6.157   3.132
26939WAT     H181059   9.300   6.123   3.101
26939WAT     H281060   9.224   6.246   3.177
26940WAT      O81061   0.585   2.650   7.203
26940WAT     H181062   0.545   2.584   7.139
26940WAT     H281063   0.513   2.690   7.259
26941WAT      O81064   6.667   6.515   1.201
26941WAT     H181065   6.687   6.496   1.297
26941WAT     H281066   6.657   6.428   1.152
26942WAT      O81067   1.321   1.701   2.378
26942WAT     H181068   1.247   1.740   2.433
26942WAT     H281069   1.300   1.605   2.358
26943WAT      O81070   2.123   4.813   1.128
26943WAT     H181071   2.203   4.757   1.153
26943WAT     H281072   2.110   4.808   1.029
26944WAT      O81073   4.269   3.049   0.933
26944WAT     H181074   4.260   3.017   0.838
26944WAT     H281075   4.182   3.087   0.963
26945WAT      O81076   0.872   8.308   8.768
26945WAT     H181077   0.870   8.403   8.737
26945WAT     H281078   0.963   8.288   8.806
26946WAT      O81079   6.130   0.075   2.693
26946WAT     H181080   6.150  -0.022   2.681
26946WAT     H281081   6.215   0.128   2.688
26947WAT      O81082   9.510   7.369   3.570
26947WAT     H181083   9.581   7.399   3.507
26947WAT     H281084   9.479   7.278   3.544
26948WAT      O81085   9.822   1.048   0.354
26948WAT     H181086   9.884   1.082   0.425
26948WAT     H281087   9.825   1.108   0.275
26949WAT      O81088   9.281   2.399   3.419
26949WAT     H181089   9.364   2.442   3.384
26949WAT     H281090   9.245   2.336   3.351
26950WAT      O81091   4.746   5.847   2.004
26950WAT     H181092   4.818   5.916   2.001
26950WAT     H281093   4.691   5.861   2.086
26951WAT      O81094   1.652   6.350   1.221
26951WAT     H181095   1.597   6.321   1.143
26951WAT     H281096   1.652   6.450   1.228
26952WAT      O81097   0.206   9.742   6.750
26952WAT     H181098   0.196   9.839   6.733
26952WAT     H281099   0.136   9.691   6.701
26953WAT      O81100   9.115   0.536   1.796
26953WAT     H181101   9.114   0.459   1.732
26953WAT     H281102   9.191   0.524   1.861
26954WAT      O81103   3.546   6.586   1.358
26954WAT     H181104   3.586   6.670   1.322
26954WAT     H281105   3.463   6.607   1.409
26955WAT      O81106   6.622   7.999   2.931
26955WAT     H181107   6.624   8.002   3.031
26955WAT     H281108   6.592   7.908   2.902
26956WAT      O81109   5.286   8.205   8.472
26956WAT     H181110   5.212   8.218   8.405
26956WAT     H281111   5.373   8.194   8.424
26957WAT      O81112   5.074   8.265   7.607
26957WAT     H181113   4.998   8.292   7.665
26957WAT     H281114   5.159   8.305   7.641
26958WAT      O81115   7.998   5.758   1.455
26958WAT     H181116   7.962   5.675   1.412
26958WAT     H281117   7.946   5.779   1.538
26959WAT      O81118   8.639   5.738   4.361
26959WAT     H181119   8.663   5.807   4.429
26959WAT     H281120   8.720   5.713   4.308
26960WAT      O81121   3.712   1.135   3.599
26960WAT     H181122   3.730   1.205   3.529
26960WAT     H281123   3.651   1.066   3.561
26961WAT      O81124   2.871   4.517   8.952
26961WAT     H181125   2.833   4.602   8.987
26961WAT     H281126   2.961   4.501   8.994
26962WAT      O81127   5.710   6.643   5.131
26962WAT     H181128   5.748   6.734   5.112
26962WAT     H281129   5.714   6.625   5.230
26963WAT      O81130   2.668   0.660   1.452
26963WAT     H181131   2.589   0.620   1.405
26963WAT     H281132   2.697   0.600   1.527
26964WAT      O81133   6.303   3.290   5.826
26964WAT     H181134   6.367   3.214   5.823
26964WAT     H281135   6.218   3.261   5.871
26965WAT      O81136   1.549   5.654   3.740
26965WAT     H181137   1.624   5.588   3.749
26965WAT     H281138   1.487   5.646   3.818
26966WAT      O81139   2.681   6.881   3.394
26966WAT     H181140   2.584   6.858   3.398
26966WAT     H281141   2.707   6.897   3.298
26967WAT      O81142   5.078   1.476   0.744
26967WAT     H181143   5.140   1.436   0.677
26967WAT     H281144   5.032   1.403   0.795
26968WAT      O81145   4.539   8.274   9.409
26968WAT     H181146   4.612   8.275   9.476
26968WAT     H281147   4.471   8.204   9.434
26969WAT      O81148   9.740   1.255   5.996
26969WAT     H181149   9.813   1.191   6.021
26969WAT     H281150   9.724   1.251   5.897
26970WAT      O81151   1.754   3.185   9.427
26970WAT     H181152   1.847   3.194   9.393
26970WAT     H281153   1.725   3.090   9.422
26971WAT      O81154   8.129   0.044   0.666
26971WAT     H181155   8.144   0.076   0.573
26971WAT     H281156   8.035   0.064   0.693
26972WAT      O81157   1.016   9.285   9.705
26972WAT     H181158   0.949   9.322   9.640
26972WAT     H281159   1.107   9.292   9.666
26973WAT      O81160   7.204   1.312   5.557
26973WAT     H181161   7.184   1.224   5.600
26973WAT     H281162   7.279   1.357   5.606
26974WAT      O81163   7.863   6.114   6.513
26974WAT     H181164   7.766   6.099   6.532
26974WAT     H281165   7.907   6.027   6.496
26975WAT      O81166   4.339   6.967   0.782
26975WAT     H181167   4.401   6.905   0.830
26975WAT     H281168   4.332   6.939   0.686
26976WAT      O81169   7.133   2.658   8.202
26976WAT     H181170   7.139   2.725   8.128
26976WAT     H281171   7.080   2.696   8.278
26977WAT      O81172   5.557   9.553   5.485
26977WAT     H181173   5.616   9.633   5.470
26977WAT     H281174   5.596   9.473   5.439
26978WAT      O81175   1.998   3.054   3.043
26978WAT     H181176   2.064   3.001   3.096
26978WAT     H281177   1.914   3.001   3.032
26979WAT      O81178   6.016   2.960   0.386
26979WAT     H181179   6.105   2.937   0.425
26979WAT     H281180   6.028   2.993   0.293
26980WAT      O81181   1.399   4.150   0.434
26980WAT     H181182   1.380   4.182   0.341
26980WAT     H281183   1.367   4.056   0.444
26981WAT      O81184   4.193   5.238   2.288
26981WAT     H181185   4.247   5.213   2.369
26981WAT     H281186   4.253   5.240   2.208
26982WAT      O81187   0.138   2.885   5.569
26982WAT     H181188   0.148   2.905   5.472
26982WAT     H281189   0.174   2.961   5.623
26983WAT      O81190   4.630   9.271   2.918
26983WAT     H181191   4.696   9.340   2.949
26983WAT     H281192   4.676   9.203   2.862
26984WAT      O81193   3.080   6.904   9.660
26984WAT     H181194   3.049   6.924   9.753
26984WAT     H281195   3.154   6.837   9.663
26985WAT      O81196   6.917   4.306   9.675
26985WAT     H181197   6.998   4.364   9.678
26985WAT     H281198   6.928   4.238   9.602
26986WAT      O81199   1.800   2.173   5.603
26986WAT     H181200   1.773   2.270   5.599
26986WAT     H281201   1.861   2.159   5.680
26987WAT      O81202   0.745   1.258   8.525
26987WAT     H181203   0.717   1.165   8.503
26987WAT     H281204   0.839   1.273   8.493
26988WAT      O81205   1.357   6.153   4.284
26988WAT     H181206   1.328   6.097   4.362
26988WAT     H281207   1.441   6.116   4.245
26989WAT      O81208   5.137   0.473   9.576
26989WAT     H181209   5.108   0.568   9.571
26989WAT     H281210   5.218   0.466   9.634
26990WAT      O81211   3.715   7.812   4.114
26990WAT     H181212   3.778   7.834   4.039
26990WAT     H281213   3.749   7.852   4.199
26991WAT      O81214   6.772   1.642   7.430
26991WAT     H181215   6.845   1.576   7.411
26991WAT     H281216   6.755   1.696   7.347
26992WAT      O81217   7.400   5.162   3.487
26992WAT     H181218   7.338   5.086   3.472
26992WAT     H281219   7.458   5.143   3.566
26993WAT      O81220   2.953   4.354   5.204
26993WAT     H181221   2.983   4.328   5.112
26993WAT     H281222   2.897   4.281   5.243
26994WAT      O81223   9.113   9.043   8.098
26994WAT     H181224   9.077   9.046   8.191
26994WAT     H281225   9.189   9.107   8.089
26995WAT      O81226   6.857   3.698   4.168
26995WAT     H181227   6.820   3.690   4.261
26995WAT     H281228   6.914   3.780   4.162
26996WAT      O81229   3.185   1.737   6.691
26996WAT     H181230   3.087   1.729   6.677
26996WAT     H281231   3.203   1.770   6.784
26997WAT      O81232   8.554   2.213   8.147
26997WAT     H181233   8.477   2.236   8.088
26997WAT     H281234   8.525   2.217   8.243
26998WAT      O81235   3.705   8.220   1.382
26998WAT     H181236   3.775   8.164   1.339
26998WAT     H281237   3.625   8.164   1.402
26999WAT      O81238   7.438   8.514   5.033
26999WAT     H181239   7.405   8.587   5.093
26999WAT     H281240   7.381   8.508   4.952
27000WAT      O81241   6.583   5.401   5.657
27000WAT     H181242   6.551   5.412   5.563
27000WAT     H281243   6.583   5.305   5.682
27001WAT      O81244   1.863   9.601   2.649
27001WAT     H181245   1.857   9.694   2.612
27001WAT     H281246   1.771   9.567   2.667
27002WAT      O81247   6.908   0.253   3.554
27002WAT     H181248   6.974   0.208   3.614
27002WAT     H281249   6.871   0.334   3.599
27003WAT      O81250   2.048   8.150   3.207
27003WAT     H181251   1.984   8.198   3.148
27003WAT     H281252   2.058   8.199   3.293
27004WAT      O81253   9.572   4.747   9.342
27004WAT     H181254   9.653   4.769   9.288
27004WAT     H281255   9.497   4.807   9.315
27005WAT      O81256   3.870   5.514   8.980
27005WAT     H181257   3.957   5.521   8.932
27005WAT     H281258   3.885   5.483   9.074
27006WAT      O81259   0.401   8.345   1.392
27006WAT     H181260   0.395   8.287   1.311
27006WAT     H281261   0.320   8.402   1.398
27007WAT      O81262   8.452   6.738   2.316
27007WAT     H181263   8.532   6.678   2.311
27007WAT     H281264   8.455   6.789   2.402
27008WAT      O81265   3.639   5.721   4.785
27008WAT     H181266   3.551   5.738   4.829
27008WAT     H281267   3.657   5.622   4.785
27009WAT      O81268   8.286   6.175   2.667
27009WAT     H181269   8.202   6.203   2.621
27009WAT     H281270   8.330   6.255   2.707
27010WAT      O81271   9.784   0.790   7.611
27010WAT     H181272   9.788   0.850   7.531
27010WAT     H281273   9.773   0.846   7.694
27011WAT      O81274   8.376   8.616   1.382
27011WAT     H181275   8.344   8.521   1.378
27011WAT     H281276   8.397   8.639   1.477
27012WAT      O81277   6.322   2.101   7.267
27012WAT     H181278   6.270   2.134   7.188
27012WAT     H281279   6.383   2.027   7.238
27013WAT      O81280   7.799   8.958   3.892
27013WAT     H181281   7.832   8.968   3.798
27013WAT     H281282   7.738   9.034   3.914
27014WAT      O81283   0.867   6.744   2.807
27014WAT     H181284   0.939   6.675   2.814
27014WAT     H281285   0.810   6.742   2.889
27015WAT      O81286   3.714   8.082   3.405
27015WAT     H181287   3.624   8.126   3.402
27015WAT     H281288   3.701   7.983   3.412
27016WAT      O81289   0.453   2.956   5.155
27016WAT     H181290   0.400   3.041   5.163
27016WAT     H281291   0.488   2.948   5.061
27017WAT      O81292   4.816   9.073   2.303
27017WAT     H181293   4.910   9.087   2.335
27017WAT     H281294   4.752   9.106   2.372
27018WAT      O81295   1.269   2.767   7.139
27018WAT     H181296   1.225   2.773   7.229
27018WAT     H281297   1.324   2.849   7.125
27019WAT      O81298   6.040   1.494   4.477
27019WAT     H181299   6.020   1.477   4.573
27019WAT     H281300   6.085   1.583   4.468
27020WAT      O81301   9.863   3.218   2.234
27020WAT     H181302   9.873   3.168   2.321
27020WAT     H281303   9.843   3.314   2.254
27021WAT      O81304   9.023   9.813   4.255
27021WAT     H181305   8.951   9.882   4.249
27021WAT     H281306   9.105   9.846   4.207
27022WAT      O81307   4.062   7.400   7.475
27022WAT     H181308   4.059   7.488   7.427
27022WAT     H281309   4.060   7.416   7.574
27023WAT      O81310   0.164   3.890   4.553
27023WAT     H181311   0.120   3.880   4.463
27023WAT     H281312   0.101   3.937   4.615
27024WAT      O81313   3.705   5.230   7.565
27024WAT     H181314   3.745   5.151   7.612
27024WAT     H281315   3.606   5.231   7.579
27025WAT      O81316   4.866   1.212   5.639
27025WAT     H181317   4.775   1.245   5.663
27025WAT     H281318   4.871   1.113   5.653
27026WAT      O81319   4.574   5.584   3.705
27026WAT     H181320   4.559   5.682   3.716
27026WAT     H281321   4.569   5.539   3.795
27027WAT      O81322   4.239   4.927   0.927
27027WAT     H181323   4.323   4.976   0.950
27027WAT     H281324   4.260   4.831   0.909
27028WAT      O81325   3.010   6.371   7.613
27028WAT     H181326   2.988   6.437   7.685
27028WAT     H281327   2.926   6.330   7.578
27029WAT      O81328   2.889   6.705   6.498
27029WAT     H181329   2.932   6.785   6.538
27029WAT     H281330   2.951   6.663   6.431
27030WAT      O81331   3.604   3.315   1.825
27030WAT     H181332   3.668   3.277   1.891
27030WAT     H281333   3.649   3.324   1.736
27031WAT      O81334   9.280   0.869   0.132
27031WAT     H181335   9.240   0.810   0.062
27031WAT     H281336   9.228   0.858   0.217
27032WAT      O81337   3.066   9.136   1.196
27032WAT     H181338   3.142   9.179   1.147
27032WAT     H281339   3.091   9.043   1.222
27033WAT      O81340   5.146   7.563   4.037
27033WAT     H181341   5.161   7.658   4.009
27033WAT     H281342   5.121   7.561   4.134
27034WAT      O81343   3.027   7.870   0.557
27034WAT     H181344   2.998   7.844   0.465
27034WAT     H281345   2.946   7.888   0.614
27035WAT      O81346   1.994   3.973   9.724
27035WAT     H181347   1.911   4.026   9.706
27035WAT     H281348   2.071   4.035   9.736
27036WAT      O81349   5.547   8.367   6.550
27036WAT     H181350   5.468   8.328   6.503
27036WAT     H281351   5.555   8.464   6.527
27037WAT      O81352   5.381   5.481   5.808
27037WAT     H181353   5.364   5.394   5.856
27037WAT     H281354   5.332   5.555   5.855
27038WAT      O81355   4.177   4.759   3.026
27038WAT     H181356   4.105   4.780   2.961
27038WAT     H281357   4.197   4.839   3.082
27039WAT      O81358   3.521   3.621   1.600
27039WAT     H181359   3.576   3.542   1.627
27039WAT     H281360   3.434   3.591   1.561
27040WAT      O81361   6.057   0.581   4.581
27040WAT     H181362   6.128   0.612   4.643
27040WAT     H281363   6.048   0.646   4.505
27041WAT      O81364   8.760   9.806   5.067
27041WAT     H181365   8.789   9.788   4.973
27041WAT     H281366   8.839   9.833   5.122
27042WAT      O81367   0.572   9.809   0.036
27042WAT     H181368   0.480   9.772   0.022
27042WAT     H281369   0.617   9.759   0.110
27043WAT      O81370   9.807   5.543   5.504
27043WAT     H181371   9.755   5.464   5.473
27043WAT     H281372   9.744   5.615   5.533
27044WAT      O81373   4.205   6.465   2.861
27044WAT     H181374   4.261   6.526   2.805
27044WAT     H281375   4.242   6.463   2.954
27045WAT      O81376   4.300   9.644   1.940
27045WAT     H181377   4.249   9.703   2.004
27045WAT     H281378   4.295   9.549   1.971
27046WAT      O81379   1.096   6.058   3.415
27046WAT     H181380   1.094   5.959   3.402
27046WAT     H281381   1.018   6.099   3.369
27047WAT      O81382   8.354   3.986   1.606
27047WAT     H181383   8.378   4.075   1.566
27047WAT     H281384   8.322   3.999   1.699
27048WAT      O81385   6.067   6.378   8.000
27048WAT     H181386   6.057   6.474   7.975
27048WAT     H281387   5.977   6.335   8.003
27049WAT      O81388   8.753   1.499   3.127
27049WAT     H181389   8.763   1.494   3.226
27049WAT     H281390   8.659   1.524   3.104
27050WAT      O81391   4.404   2.556   0.295
27050WAT     H181392   4.414   2.459   0.273
27050WAT     H281393   4.307   2.579   0.303
27051WAT      O81394   7.129   0.822   0.702
27051WAT     H181395   7.054   0.885   0.722
27051WAT     H281396   7.183   0.807   0.785
27052WAT      O81397   0.621   3.180   3.046
27052WAT     H181398   0.621   3.154   3.142
27052WAT     H281399   0.676   3.113   2.994
27053WAT      O81400   1.900   1.995   9.127
27053WAT     H181401   1.903   2.015   9.030
27053WAT     H281402   1.821   1.936   9.146
27054WAT      O81403   4.795   7.129   6.922
27054WAT     H181404   4.788   7.081   7.009
27054WAT     H281405   4.735   7.209   6.923
27055WAT      O81406   7.054   1.864   5.525
27055WAT     H181407   7.150   1.836   5.514
27055WAT     H281408   7.038   1.890   5.620
27056WAT      O81409   9.248   5.295   4.916
27056WAT     H181410   9.278   5.365   4.851
27056WAT     H281411   9.285   5.206   4.890
27057WAT      O81412   3.999   4.148   7.258
27057WAT     H181413   4.051   4.067   7.285
27057WAT     H281414   4.062   4.218   7.225
27058WAT      O81415   3.406   8.185   6.783
27058WAT     H181416   3.459   8.198   6.699
27058WAT     H281417   3.409   8.088   6.809
27059WAT      O81418   9.266   9.621   2.123
27059WAT     H181419   9.275   9.672   2.037
27059WAT     H281420   9.172   9.587   2.133
27060WAT      O81421   0.667   7.465   4.295
27060WAT     H181422   0.699   7.418   4.213
27060WAT     H281423   0.569   7.480   4.288
27061WAT      O81424   0.125   4.968   7.877
27061WAT     H181425   0.092   4.874   7.884
27061WAT     H281426   0.088   5.010   7.793
27062WAT      O81427   7.414   6.818   7.168
27062WAT     H181428   7.505   6.857   7.162
27062WAT     H281429   7.378   6.829   7.261
27063WAT      O81430   1.160   2.530   6.624
27063WAT     H181431   1.112   2.485   6.549
27063WAT     H281432   1.230   2.468   6.661
27064WAT      O81433   2.563   8.448   4.049
27064WAT     H181434   2.500   8.427   4.124
27064WAT     H281435   2.632   8.513   4.081
27065WAT      O81436   7.915   3.839   4.269
27065WAT     H181437   7.835   3.779   4.264
27065WAT     H281438   7.905   3.900   4.347
27066WAT      O81439   7.301   9.488   3.255
27066WAT     H181440   7.369   9.480   3.328
27066WAT     H281441   7.235   9.560   3.279
27067WAT      O81442   0.148   4.363   1.919
27067WAT     H181443   0.067   4.307   1.900
27067WAT     H281444   0.230   4.313   1.889
27068WAT      O81445   4.592   4.375   9.146
27068WAT     H181446   4.573   4.277   9.145
27068WAT     H281447   4.527   4.421   9.206
27069WAT      O81448   1.218   2.682   8.381
27069WAT     H181449   1.225   2.618   8.457
27069WAT     H281450   1.195   2.631   8.297
27070WAT      O81451   4.501   8.205   4.293
27070WAT     H181452   4.546   8.286   4.255
27070WAT     H281453   4.436   8.232   4.364
27071WAT      O81454   5.680   3.402   7.254
27071WAT     H181455   5.657   3.487   7.301
27071WAT     H281456   5.764   3.365   7.291
27072WAT      O81457   4.089   8.410   0.255
27072WAT     H181458   4.127   8.501   0.244
27072WAT     H281459   4.121   8.370   0.340
27073WAT      O81460   7.580   1.438   0.736
27073WAT     H181461   7.662   1.459   0.789
27073WAT     H281462   7.525   1.520   0.726
27074WAT      O81463   5.643   8.937   9.535
27074WAT     H181464   5.704   8.929   9.614
27074WAT     H281465   5.608   8.846   9.510
27075WAT      O81466   5.634   8.156   3.447
27075WAT     H181467   5.647   8.077   3.507
27075WAT     H281468   5.642   8.240   3.501
27076WAT      O81469   0.190   8.568   1.051
27076WAT     H181470   0.198   8.636   0.978
27076WAT     H281471   0.243   8.597   1.130
27077WAT      O81472   5.882   9.313   1.000
27077WAT     H181473   5.913   9.269   0.916
27077WAT     H281474   5.882   9.246   1.075
27078WAT      O81475   0.979   8.108   4.275
27078WAT     H181476   0.993   8.151   4.186
27078WAT     H281477   0.881   8.093   4.289
27079WAT      O81478   2.157   2.421   2.215
27079WAT     H181479   2.063   2.400   2.189
27079WAT     H281480   2.187   2.356   2.285
27080WAT      O81481   6.044   3.903   6.779
27080WAT     H181482   6.076   3.997   6.789
27080WAT     H281483   6.104   3.841   6.830
27081WAT      O81484   8.685   1.686   2.196
27081WAT     H181485   8.629   1.757   2.154
27081WAT     H281486   8.781   1.712   2.191
27082WAT      O81487   3.916   2.485   0.182
27082WAT     H181488   3.841   2.445   0.234
27082WAT     H281489   3.929   2.434   0.097
27083WAT      O81490   7.501   2.494   9.382
27083WAT     H181491   7.455   2.446   9.457
27083WAT     H281492   7.560   2.565   9.420
27084WAT      O81493   6.636   7.799   0.588
27084WAT     H181494   6.542   7.804   0.622
27084WAT     H281495   6.636   7.816   0.489
27085WAT      O81496   9.263   1.082   8.210
27085WAT     H181497   9.288   1.113   8.301
27085WAT     H281498   9.340   1.033   8.169
27086WAT      O81499   6.287   4.140   7.107
27086WAT     H181500   6.212   4.112   7.167
27086WAT     H281501   6.351   4.064   7.094
27087WAT      O81502   8.227   5.314   0.017
27087WAT     H181503   8.258   5.331  -0.076
27087WAT     H281504   8.184   5.396   0.054
27088WAT      O81505   6.815   3.511   7.931
27088WAT     H181506   6.761   3.447   7.875
27088WAT     H281507   6.907   3.519   7.893
27089WAT      O81508   5.407   9.312   3.594
27089WAT     H181509   5.401   9.317   3.693
27089WAT     H281510   5.316   9.313   3.554
27090WAT      O81511   3.749   9.021   2.701
27090WAT     H181512   3.832   9.035   2.756
27090WAT     H281513   3.715   8.929   2.716
27091WAT      O81514   3.077   6.233   8.223
27091WAT     H181515   3.168   6.259   8.255
27091WAT     H281516   3.019   6.214   8.302
27092WAT      O81517   5.133   0.557   6.427
27092WAT     H181518   5.094   0.559   6.519
27092WAT     H281519   5.201   0.629   6.417
27093WAT      O81520   9.187   4.955   1.164
27093WAT     H181521   9.252   4.991   1.097
27093WAT     H281522   9.223   4.871   1.204
27094WAT      O81523   1.229   5.033   7.281
27094WAT     H181524   1.326   5.050   7.295
27094WAT     H281525   1.176   5.089   7.344
27095WAT      O81526   1.785   7.282   9.594
27095WAT     H181527   1.767   7.230   9.511
27095WAT     H281528   1.792   7.379   9.571
27096WAT      O81529   4.203   1.779   9.104
27096WAT     H181530   4.173   1.700   9.157
27096WAT     H281531   4.125   1.837   9.082
27097WAT      O81532   4.721   6.822   3.174
27097WAT     H181533   4.654   6.748   3.163
27097WAT     H281534   4.783   6.800   3.249
27098WAT      O81535   7.775   0.598   3.838
27098WAT     H181536   7.818   0.684   3.812
27098WAT     H281537   7.698   0.617   3.900
27099WAT      O81538   2.412   2.813   6.852
27099WAT     H181539   2.398   2.793   6.949
27099WAT     H281540   2.464   2.738   6.810
27100WAT      O81541   1.430   7.397   3.466
27100WAT     H181542   1.454   7.317   3.412
27100WAT     H281543   1.367   7.371   3.539
27101WAT      O81544   1.773   4.787   5.587
27101WAT     H181545   1.756   4.879   5.553
27101WAT     H281546   1.826   4.735   5.520
27102WAT      O81547   8.058   4.690   8.226
27102WAT     H181548   8.069   4.769   8.167
27102WAT     H281549   7.980   4.703   8.286
27103WAT      O81550   8.032   2.460   1.864
27103WAT     H181551   7.953   2.415   1.906
27103WAT     H281552   8.113   2.404   1.880
27104WAT      O81553   5.649   5.743   7.226
27104WAT     H181554   5.748   5.740   7.232
27104WAT     H281555   5.615   5.828   7.266
27105WAT      O81556   2.737   8.101   1.650
27105WAT     H181557   2.771   8.169   1.586
27105WAT     H281558   2.791   8.105   1.735
27106WAT      O81559   8.094   8.478   3.376
27106WAT     H181560   8.059   8.522   3.293
27106WAT     H281561   8.051   8.519   3.456
27107WAT      O81562   7.545   0.690   5.196
27107WAT     H181563   7.572   0.711   5.290
27107WAT     H281564   7.541   0.775   5.144
27108WAT      O81565   0.302   7.348   1.963
27108WAT     H181566   0.252   7.423   2.007
27108WAT     H281567   0.257   7.324   1.877
27109WAT      O81568   2.989   7.754   1.406
27109WAT     H181569   2.907   7.783   1.357
27109WAT     H281570   3.049   7.705   1.342
27110WAT      O81571   7.987   9.470   5.339
27110WAT     H181572   8.001   9.567   5.358
27110WAT     H281573   7.924   9.459   5.262
27111WAT      O81574   8.406   2.526   0.703
27111WAT     H181575   8.459   2.482   0.775
27111WAT     H281576   8.434   2.622   0.694
27112WAT      O81577   9.098   9.438   7.361
27112WAT     H181578   9.088   9.525   7.313
27112WAT     H281579   9.032   9.372   7.326
27113WAT      O81580   6.113   9.339   6.384
27113WAT     H181581   6.127   9.258   6.327
27113WAT     H281582   6.104   9.420   6.326
27114WAT      O81583   8.197   3.999   7.270
27114WAT     H181584   8.255   4.058   7.325
27114WAT     H281585   8.105   3.995   7.310
27115WAT      O81586   3.475   9.626   3.135
27115WAT     H181587   3.381   9.625   3.100
27115WAT     H281588   3.503   9.720   3.153
27116WAT      O81589   9.044   2.193   4.940
27116WAT     H181590   9.081   2.160   5.027
27116WAT     H281591   9.076   2.134   4.866
27117WAT      O81592   9.432   5.670   6.993
27117WAT     H181593   9.402   5.735   6.923
27117WAT     H281594   9.417   5.710   7.084
27118WAT      O81595   7.548   4.360   7.668
27118WAT     H181596   7.625   4.312   7.627
27118WAT     H281597   7.541   4.452   7.629
27119WAT      O81598   1.899   3.378   0.706
27119WAT     H181599   1.999   3.376   0.708
27119WAT     H281600   1.868   3.448   0.640
27120WAT      O81601   1.556   1.955   1.333
27120WAT     H181602   1.542   2.034   1.273
27120WAT     H281603   1.475   1.942   1.390
27121WAT      O81604   2.177   0.139   6.862
27121WAT     H181605   2.110   0.207   6.892
27121WAT     H281606   2.237   0.115   6.938
27122WAT      O81607   7.865   4.186   4.683
27122WAT     H181608   7.949   4.238   4.665
27122WAT     H281609   7.861   4.165   4.781
27123WAT      O81610   8.669   1.009   0.286
27123WAT     H181611   8.603   1.063   0.338
27123WAT     H281612   8.669   1.039   0.191
27124WAT      O81613   1.043   1.363   4.343
27124WAT     H181614   1.040   1.429   4.268
27124WAT     H281615   1.078   1.407   4.425
27125WAT      O81616   7.399   5.884   7.331
27125WAT     H181617   7.440   5.966   7.371
27125WAT     H281618   7.321   5.855   7.386
27126WAT      O81619   7.207   5.184   1.730
27126WAT     H181620   7.281   5.176   1.797
27126WAT     H281621   7.178   5.092   1.702
27127WAT      O81622   8.444   1.376   1.535
27127WAT     H181623   8.471   1.290   1.493
27127WAT     H281624   8.458   1.451   1.471
27128WAT      O81625   2.906   1.690   8.361
27128WAT     H181626   2.887   1.601   8.319
27128WAT     H281627   2.820   1.736   8.382
27129WAT      O81628   7.624   2.114   8.606
27129WAT     H181629   7.558   2.067   8.665
27129WAT     H281630   7.717   2.097   8.638
27130WAT      O81631   9.245   7.316   8.826
27130WAT     H181632   9.159   7.264   8.829
27130WAT     H281633   9.322   7.253   8.816
27131WAT      O81634   5.600   7.767   8.025
27131WAT     H181635   5.533   7.766   7.951
27131WAT     H281636   5.592   7.683   8.079
27132WAT      O81637   8.332   0.993   3.895
27132WAT     H181638   8.368   0.973   3.804
27132WAT     H281639   8.374   1.078   3.929
27133WAT      O81640   4.962   7.998   1.123
27133WAT     H181641   5.048   8.039   1.095
27133WAT     H281642   4.974   7.946   1.207
27134WAT      O81643   2.414   1.591   4.286
27134WAT     H181644   2.416   1.497   4.319
27134WAT     H281645   2.319   1.621   4.276
27135WAT      O81646   3.057   1.139   1.116
27135WAT     H181647   2.974   1.191   1.098
27135WAT     H281648   3.053   1.101   1.209
27136WAT      O81649   9.536   5.492   7.328
27136WAT     H181650   9.524   5.590   7.315
27136WAT     H281651   9.554   5.473   7.425
27137WAT      O81652   9.775   0.964   7.399
27137WAT     H181653   9.864   0.996   7.432
27137WAT     H281654   9.775   0.962   7.299
27138WAT      O81655   7.410   4.817   8.894
27138WAT     H181656   7.467   4.863   8.963
27138WAT     H281657   7.405   4.719   8.914
27139WAT      O81658   1.569   6.570   0.524
27139WAT     H181659   1.576   6.628   0.606
27139WAT     H281660   1.584   6.474   0.550
27140WAT      O81661   7.680   8.394   8.766
27140WAT     H181662   7.621   8.380   8.846
27140WAT     H281663   7.751   8.324   8.764
27141WAT      O81664   9.343   7.819   4.861
27141WAT     H181665   9.313   7.896   4.806
27141WAT     H281666   9.286   7.811   4.942
27142WAT      O81667   3.466   3.480   9.443
27142WAT     H181668   3.414   3.558   9.408
27142WAT     H281669   3.530   3.449   9.372
27143WAT      O81670   0.084   1.992   0.285
27143WAT     H181671   0.041   1.902   0.286
27143WAT     H281672   0.171   1.988   0.334
27144WAT      O81673   3.017   4.448   7.600
27144WAT     H181674   3.059   4.425   7.512
27144WAT     H281675   3.043   4.380   7.669
27145WAT      O81676   1.987   6.210   5.335
27145WAT     H181677   1.961   6.126   5.286
27145WAT     H281678   1.949   6.289   5.288
27146WAT      O81679   8.269   9.352   1.199
27146WAT     H181680   8.267   9.254   1.180
27146WAT     H281681   8.358   9.389   1.171
27147WAT      O81682   2.161   1.004   1.395
27147WAT     H181683   2.237   1.018   1.331
27147WAT     H281684   2.147   0.906   1.407
27148WAT      O81685   6.108   1.086   6.927
27148WAT     H181686   6.195   1.089   6.878
27148WAT     H281687   6.041   1.036   6.872
27149WAT      O81688   1.048   6.101   2.631
27149WAT     H181689   1.000   6.111   2.718
27149WAT     H281690   1.056   6.004   2.608
27150WAT      O81691   3.911   6.911   1.150
27150WAT     H181692   3.952   6.824   1.124
27150WAT     H281693   3.970   6.986   1.119
27151WAT      O81694   0.823   1.493   1.290
27151WAT     H181695   0.762   1.525   1.218
27151WAT     H281696   0.910   1.464   1.251
27152WAT      O81697   8.517   2.771   0.733
27152WAT     H181698   8.526   2.822   0.648
27152WAT     H281699   8.507   2.835   0.810
27153WAT      O81700   1.718   0.017   2.718
27153WAT     H181701   1.748   0.100   2.765
27153WAT     H281702   1.696  -0.053   2.785
27154WAT      O81703   0.719   5.294   1.712
27154WAT     H181704   0.722   5.292   1.812
27154WAT     H281705   0.633   5.255   1.680
27155WAT      O81706   8.557   6.221   5.755
27155WAT     H181707   8.585   6.171   5.673
27155WAT     H281708   8.467   6.188   5.784
27156WAT      O81709   1.664   5.120   0.132
27156WAT     H181710   1.708   5.083   0.050
27156WAT     H281711   1.665   5.051   0.204
27157WAT      O81712   1.134   2.913   1.196
27157WAT     H181713   1.097   2.976   1.264
27157WAT     H281714   1.190   2.843   1.241
27158WAT      O81715   9.366   5.007   0.708
27158WAT     H181716   9.395   4.911   0.703
27158WAT     H281717   9.375   5.049   0.617
27159WAT      O81718   1.487   6.955   7.250
27159WAT     H181719   1.459   6.933   7.343
27159WAT     H281720   1.500   7.054   7.242
27160WAT      O81721   2.356   6.009   2.848
27160WAT     H181722   2.416   6.073   2.897
27160WAT     H281723   2.263   6.019   2.881
27161WAT      O81724   9.771   7.580   1.078
27161WAT     H181725   9.793   7.637   0.999
27161WAT     H281726   9.848   7.580   1.142
27162WAT      O81727   3.877   0.309   3.039
27162WAT     H181728   3.971   0.339   3.022
27162WAT     H281729   3.863   0.297   3.137
27163WAT      O81730   3.393   1.147   2.658
27163WAT     H181731   3.375   1.219   2.590
27163WAT     H281732   3.432   1.067   2.612
27164WAT      O81733   3.907   2.126   3.562
27164WAT     H181734   3.835   2.170   3.508
27164WAT     H281735   3.934   2.040   3.519
27165WAT      O81736   5.995   7.561   6.542
27165WAT     H181737   5.952   7.552   6.632
27165WAT     H281738   6.092   7.538   6.549
27166WAT      O81739   8.638   5.804   1.983
27166WAT     H181740   8.539   5.802   1.999
27166WAT     H281741   8.682   5.732   2.037
27167WAT      O81742   5.414   1.968   7.383
27167WAT     H181743   5.374   1.891   7.434
27167WAT     H281744   5.446   2.037   7.447
27168WAT      O81745   5.801   5.468   4.845
27168WAT     H181746   5.777   5.564   4.862
27168WAT     H281747   5.853   5.462   4.759
27169WAT      O81748   7.687   0.957   7.989
27169WAT     H181749   7.631   0.944   7.907
27169WAT     H281750   7.632   1.000   8.061
27170WAT      O81751   4.204   3.440   2.475
27170WAT     H181752   4.244   3.390   2.552
27170WAT     H281753   4.229   3.536   2.481
27171WAT      O81754   2.535   9.079   1.767
27171WAT     H181755   2.558   9.152   1.702
27171WAT     H281756   2.441   9.048   1.750
27172WAT      O81757   1.502   0.067   6.542
27172WAT     H181758   1.518   0.005   6.619
27172WAT     H281759   1.407   0.100   6.545
27173WAT      O81760   5.164   8.054   9.711
27173WAT     H181761   5.116   7.967   9.702
27173WAT     H281762   5.193   8.085   9.621
27174WAT      O81763   6.280   4.544   7.467
27174WAT     H181764   6.293   4.632   7.420
27174WAT     H281765   6.236   4.479   7.404
27175WAT      O81766   9.767   8.667   1.894
27175WAT     H181767   9.746   8.765   1.887
27175WAT     H281768   9.787   8.644   1.989
27176WAT      O81769   1.610   1.025   5.683
27176WAT     H181770   1.696   1.072   5.662
27176WAT     H281771   1.626   0.953   5.750
27177WAT      O81772   6.476   9.266   1.611
27177WAT     H181773   6.487   9.221   1.522
27177WAT     H281774   6.562   9.309   1.637
27178WAT      O81775   0.767   1.123   7.461
27178WAT     H181776   0.683   1.163   7.425
27178WAT     H281777   0.750   1.028   7.487
27179WAT      O81778   0.886   1.457   8.282
27179WAT     H181779   0.960   1.524   8.286
27179WAT     H281780   0.917   1.371   8.322
27180WAT      O81781   5.732   9.595   0.746
27180WAT     H181782   5.801   9.598   0.818
27180WAT     H281783   5.651   9.548   0.780
27181WAT      O81784   0.122   6.108   7.033
27181WAT     H181785   0.122   6.173   7.109
27181WAT     H281786   0.039   6.051   7.038
27182WAT      O81787   4.665   7.271   7.211
27182WAT     H181788   4.662   7.186   7.160
27182WAT     H281789   4.638   7.254   7.306
27183WAT      O81790   4.443   6.955   7.833
27183WAT     H181791   4.359   6.900   7.830
27183WAT     H281792   4.491   6.938   7.919
27184WAT      O81793   8.767   5.621   2.161
27184WAT     H181794   8.768   5.668   2.249
27184WAT     H281795   8.702   5.545   2.164
27185WAT      O81796   2.399   4.640   0.581
27185WAT     H181797   2.488   4.685   0.575
27185WAT     H281798   2.372   4.634   0.677
27186WAT      O81799   2.137   5.399   4.323
27186WAT     H181800   2.199   5.324   4.299
27186WAT     H281801   2.113   5.393   4.420
27187WAT      O81802   4.743   5.682   4.549
27187WAT     H181803   4.830   5.642   4.521
27187WAT     H281804   4.759   5.775   4.583
27188WAT      O81805   5.564   3.764   7.702
27188WAT     H181806   5.620   3.774   7.784
27188WAT     H281807   5.611   3.702   7.638
27189WAT      O81808   7.478   5.688   6.528
27189WAT     H181809   7.535   5.609   6.551
27189WAT     H281810   7.416   5.664   6.453
27190WAT      O81811   3.064   6.477   5.071
27190WAT     H181812   3.128   6.481   4.994
27190WAT     H281813   3.036   6.570   5.096
27191WAT      O81814   1.729   3.964   0.934
27191WAT     H181815   1.675   3.884   0.906
27191WAT     H281816   1.723   4.034   0.863
27192WAT      O81817   2.649   8.947   3.279
27192WAT     H181818   2.565   8.999   3.296
27192WAT     H281819   2.727   9.009   3.279
27193WAT      O81820   8.836   6.123   1.036
27193WAT     H181821   8.775   6.189   0.991
27193WAT     H281822   8.930   6.138   1.005
27194WAT      O81823   2.817   5.273   7.565
27194WAT     H181824   2.828   5.230   7.475
27194WAT     H281825   2.793   5.203   7.632
27195WAT      O81826   7.104   6.288   4.690
27195WAT     H181827   7.072   6.374   4.730
27195WAT     H281828   7.122   6.222   4.762
27196WAT      O81829   7.145   4.936   2.674
27196WAT     H181830   7.210   4.896   2.739
27196WAT     H281831   7.075   4.987   2.725
27197WAT      O81832   7.797   6.264   0.084
27197WAT     H181833   7.842   6.336   0.137
27197WAT     H281834   7.838   6.259  -0.007
27198WAT      O81835   8.757   9.477   0.302
27198WAT     H181836   8.706   9.427   0.232
27198WAT     H281837   8.852   9.447   0.301
27199WAT      O81838   1.610   9.074   1.776
27199WAT     H181839   1.701   9.074   1.817
27199WAT     H281840   1.544   9.116   1.839
27200WAT      O81841   7.702   7.355   6.062
27200WAT     H181842   7.744   7.318   6.145
27200WAT     H281843   7.760   7.428   6.025
27201WAT      O81844   6.340   3.485   5.011
27201WAT     H181845   6.285   3.497   5.093
27201WAT     H281846   6.310   3.549   4.940
27202WAT      O81847   6.473   2.794   4.266
27202WAT     H181848   6.440   2.705   4.299
27202WAT     H281849   6.395   2.849   4.235
27203WAT      O81850   6.553   0.427   9.391
27203WAT     H181851   6.642   0.474   9.396
27203WAT     H281852   6.557   0.342   9.444
27204WAT      O81853   7.997   1.988   3.182
27204WAT     H181854   8.020   1.943   3.268
27204WAT     H281855   8.073   2.046   3.152
27205WAT      O81856   7.461   0.990   5.720
27205WAT     H181857   7.376   1.037   5.694
27205WAT     H281858   7.443   0.892   5.728
27206WAT      O81859   9.489   5.740   0.205
27206WAT     H181860   9.397   5.773   0.227
27206WAT     H281861   9.555   5.812   0.225
27207WAT      O81862   2.517   4.193   7.925
27207WAT     H181863   2.517   4.144   8.013
27207WAT     H281864   2.586   4.154   7.865
27208WAT      O81865   4.984   2.938   5.799
27208WAT     H181866   5.076   2.914   5.768
27208WAT     H281867   4.984   2.947   5.898
27209WAT      O81868   3.584   1.497   3.603
27209WAT     H181869   3.676   1.489   3.565
27209WAT     H281870   3.564   1.418   3.661
27210WAT      O81871   5.490   2.830   8.234
27210WAT     H181872   5.414   2.766   8.241
27210WAT     H281873   5.459   2.921   8.262
27211WAT      O81874   3.082   4.766   2.135
27211WAT     H181875   3.040   4.807   2.216
27211WAT     H281876   3.143   4.831   2.092
27212WAT      O81877   1.872   5.071   8.108
27212WAT     H181878   1.943   5.020   8.156
27212WAT     H281879   1.904   5.164   8.089
27213WAT      O81880   0.504   9.396   7.203
27213WAT     H181881   0.431   9.386   7.135
27213WAT     H281882   0.592   9.400   7.156
27214WAT      O81883   9.552   9.360   3.155
27214WAT     H181884   9.642   9.371   3.111
27214WAT     H281885   9.561   9.299   3.233
27215WAT      O81886   1.209   1.354   9.079
27215WAT     H181887   1.178   1.404   9.160
27215WAT     H281888   1.298   1.313   9.097
27216WAT      O81889   2.472   0.393   8.597
27216WAT     H181890   2.407   0.324   8.566
27216WAT     H281891   2.434   0.440   8.677
27217WAT      O81892   4.859   3.129   2.603
27217WAT     H181893   4.789   3.129   2.674
27217WAT     H281894   4.941   3.173   2.637
27218WAT      O81895   9.224   3.294   3.888
27218WAT     H181896   9.308   3.284   3.943
27218WAT     H281897   9.146   3.259   3.940
27219WAT      O81898   4.277   6.174   8.025
27219WAT     H181899   4.262   6.273   8.034
27219WAT     H281900   4.253   6.145   7.932
27220WAT      O81901   5.445   6.455   9.149
27220WAT     H181902   5.524   6.516   9.153
27220WAT     H281903   5.380   6.480   9.221
27221WAT      O81904   4.017   5.484   0.631
27221WAT     H181905   4.036   5.411   0.566
27221WAT     H281906   3.942   5.540   0.596
27222WAT      O81907   5.384   1.529   1.098
27222WAT     H181908   5.303   1.559   1.048
27222WAT     H281909   5.463   1.528   1.036
27223WAT      O81910   3.842   1.647   4.963
27223WAT     H181911   3.934   1.637   4.924
27223WAT     H281912   3.831   1.584   5.040
27224WAT      O81913   7.816   5.003   4.269
27224WAT     H181914   7.882   4.944   4.223
27224WAT     H281915   7.802   4.971   4.363
27225WAT      O81916   8.323   6.649   6.859
27225WAT     H181917   8.341   6.686   6.951
27225WAT     H281918   8.227   6.620   6.854
27226WAT      O81919   9.140   3.246   8.953
27226WAT     H181920   9.135   3.147   8.966
27226WAT     H281921   9.048   3.285   8.955
27227WAT      O81922   8.372   0.662   2.641
27227WAT     H181923   8.347   0.620   2.553
27227WAT     H281924   8.289   0.678   2.694
27228WAT      O81925   3.303   0.921   8.444
27228WAT     H181926   3.309   0.874   8.532
27228WAT     H281927   3.346   0.865   8.373
27229WAT      O81928   7.579   6.917   1.198
27229WAT     H181929   7.533   7.003   1.218
27229WAT     H281930   7.563   6.891   1.103
27230WAT      O81931   3.984   2.843   3.099
27230WAT     H181932   3.991   2.759   3.046
27230WAT     H281933   4.057   2.906   3.072
27231WAT      O81934   0.509   1.543   7.082
27231WAT     H181935   0.425   1.586   7.051
27231WAT     H281936   0.489   1.454   7.123
27232WAT      O81937   8.409   3.532   8.075
27232WAT     H181938   8.451   3.617   8.042
27232WAT     H281939   8.465   3.494   8.149
27233WAT      O81940   0.052   2.383   7.419
27233WAT     H181941   0.082   2.288   7.430
27233WAT     H281942   0.127   2.437   7.381
27234WAT      O81943   9.545   5.533   4.963
27234WAT     H181944   9.524   5.435   4.968
27234WAT     H281945   9.627   5.547   4.909
27235WAT      O81946   4.484   2.433   2.208
27235WAT     H181947   4.540   2.505   2.249
27235WAT     H281948   4.425   2.473   2.138
27236WAT      O81949   0.654   3.448   3.684
27236WAT     H181950   0.584   3.519   3.695
27236WAT     H281951   0.611   3.365   3.648
27237WAT      O81952   3.763   6.830   7.806
27237WAT     H181953   3.860   6.853   7.817
27237WAT     H281954   3.754   6.731   7.797
27238WAT      O81955   6.912   5.162   4.229
27238WAT     H181956   6.927   5.204   4.139
27238WAT     H281957   6.945   5.224   4.300
27239WAT      O81958   7.290   8.162   2.158
27239WAT     H181959   7.315   8.225   2.084
27239WAT     H281960   7.211   8.108   2.130
27240WAT      O81961   2.309   4.408   1.896
27240WAT     H181962   2.268   4.459   1.971
27240WAT     H281963   2.240   4.348   1.855
27241WAT      O81964   8.760   9.103   2.864
27241WAT     H181965   8.740   9.098   2.766
27241WAT     H281966   8.835   9.166   2.880
27242WAT      O81967   6.596   3.276   0.663
27242WAT     H181968   6.604   3.210   0.738
27242WAT     H281969   6.506   3.318   0.665
27243WAT      O81970   9.883   5.979   5.762
27243WAT     H181971   9.904   6.074   5.783
27243WAT     H281972   9.967   5.932   5.735
27244WAT      O81973   7.575   5.953   7.599
27244WAT     H181974   7.532   6.025   7.544
27244WAT     H281975   7.535   5.864   7.574
27245WAT      O81976   5.881   4.077   5.529
27245WAT     H181977   5.810   4.132   5.572
27245WAT     H281978   5.854   3.981   5.529
27246WAT      O81979   7.145   4.329   0.504
27246WAT     H181980   7.186   4.366   0.588
27246WAT     H281981   7.053   4.296   0.523
27247WAT      O81982   3.263   1.958   6.021
27247WAT     H181983   3.174   1.913   6.028
27247WAT     H281984   3.304   1.966   6.112
27248WAT      O81985   4.115   1.116   3.828
27248WAT     H181986   4.118   1.216   3.833
27248WAT     H281987   4.142   1.078   3.917
27249WAT      O81988   7.815   3.168   3.910
27249WAT     H181989   7.769   3.106   3.973
27249WAT     H281990   7.914   3.164   3.925
27250WAT      O81991   0.813   3.203   2.485
27250WAT     H181992   0.899   3.192   2.434
27250WAT     H281993   0.738   3.215   2.420
27251WAT      O81994   1.621   9.042   9.505
27251WAT     H181995   1.547   9.000   9.453
27251WAT     H281996   1.585   9.088   9.586
27252WAT      O81997   4.653   9.635   2.724
27252WAT     H181998   4.656   9.575   2.644
27252WAT     H281999   4.680   9.727   2.697
27253WAT      O82000   2.261   5.954   0.998
27253WAT     H182001   2.269   6.003   0.911
27253WAT     H282002   2.347   5.960   1.048
27254WAT      O82003   7.349   2.942   3.535
27254WAT     H182004   7.259   2.950   3.578
27254WAT     H282005   7.412   3.007   3.579
27255WAT      O82006   7.602   8.303   3.928
27255WAT     H182007   7.687   8.253   3.943
27255WAT     H282008   7.562   8.276   3.840
27256WAT      O82009   6.326   0.154   6.117
27256WAT     H182010   6.271   0.237   6.123
27256WAT     H282011   6.420   0.173   6.145
27257WAT      O82012   7.092   2.593   3.576
27257WAT     H182013   7.013   2.632   3.624
27257WAT     H282014   7.107   2.499   3.607
27258WAT      O82015   9.103   1.729   3.630
27258WAT     H182016   9.026   1.697   3.684
27258WAT     H282017   9.074   1.743   3.535
27259WAT      O82018   3.168   9.333   2.286
27259WAT     H182019   3.087   9.276   2.293
27259WAT     H282020   3.175   9.370   2.193
27260WAT      O82021   5.550   3.132   3.913
27260WAT     H182022   5.563   3.114   4.011
27260WAT     H282023   5.640   3.140   3.869
27261WAT      O82024   5.880   0.254   5.872
27261WAT     H182025   5.949   0.193   5.910
27261WAT     H282026   5.926   0.326   5.820
27262WAT      O82027   3.213   7.145   7.743
27262WAT     H182028   3.213   7.095   7.656
27262WAT     H282029   3.265   7.093   7.810
27263WAT      O82030   1.492   5.010   1.101
27263WAT     H182031   1.414   5.025   1.040
27263WAT     H282032   1.480   5.062   1.186
27264WAT      O82033   3.149   4.870   0.847
27264WAT     H182034   3.168   4.906   0.938
27264WAT     H282035   3.095   4.786   0.855
27265WAT      O82036   5.960   9.576   6.593
27265WAT     H182037   5.949   9.597   6.690
27265WAT     H282038   5.887   9.619   6.541
27266WAT      O82039   0.678   5.745   7.505
27266WAT     H182040   0.625   5.761   7.422
27266WAT     H282041   0.722   5.831   7.533
27267WAT      O82042   8.610   6.301   6.842
27267WAT     H182043   8.648   6.218   6.802
27267WAT     H282044   8.675   6.376   6.829
27268WAT      O82045   2.692   5.293   3.455
27268WAT     H182046   2.679   5.354   3.533
27268WAT     H282047   2.605   5.281   3.407
27269WAT      O82048   9.886   2.654   3.703
27269WAT     H182049   9.943   2.601   3.641
27269WAT     H282050   9.854   2.737   3.657
27270WAT      O82051   5.902   4.670   8.754
27270WAT     H182052   5.849   4.755   8.752
27270WAT     H282053   5.963   4.671   8.833
27271WAT      O82054   8.579   9.770   9.793
27271WAT     H182055   8.575   9.870   9.799
27271WAT     H282056   8.674   9.740   9.794
27272WAT      O82057   3.949   9.147   8.547
27272WAT     H182058   3.986   9.183   8.462
27272WAT     H282059   4.021   9.101   8.599
27273WAT      O82060   5.152   4.835   6.131
27273WAT     H182061   5.151   4.797   6.224
27273WAT     H282062   5.095   4.917   6.127
27274WAT      O82063   6.017   8.855   5.040
27274WAT     H182064   6.109   8.843   5.078
27274WAT     H282065   5.949   8.836   5.110
27275WAT      O82066   2.244   8.919   6.433
27275WAT     H182067   2.286   8.922   6.523
27275WAT     H282068   2.302   8.968   6.368
27276WAT      O82069   2.423   7.025   1.251
27276WAT     H182070   2.405   7.110   1.202
27276WAT     H282071   2.515   6.992   1.228
27277WAT      O82072   6.466   0.494   3.049
27277WAT     H182073   6.533   0.453   2.988
27277WAT     H282074   6.504   0.579   3.088
27278WAT      O82075   0.845   6.986   3.656
27278WAT     H182076   0.760   7.025   3.618
27278WAT     H282077   0.830   6.890   3.678
27279WAT      O82078   8.794   2.355   9.068
27279WAT     H182079   8.765   2.385   8.977
27279WAT     H282080   8.714   2.328   9.121
27280WAT      O82081   3.263   0.920   7.594
27280WAT     H182082   3.178   0.968   7.617
27280WAT     H282083   3.265   0.902   7.496
27281WAT      O82084   8.249   5.473   7.906
27281WAT     H182085   8.270   5.458   8.002
27281WAT     H282086   8.155   5.444   7.887
27282WAT      O82087   7.214   9.146   9.478
27282WAT     H182088   7.293   9.204   9.499
27282WAT     H282089   7.240   9.050   9.486
27283WAT      O82090   4.973   0.439   9.032
27283WAT     H182091   4.926   0.355   9.002
27283WAT     H282092   5.001   0.429   9.127
27284WAT      O82093   7.213   9.082   7.272
27284WAT     H182094   7.140   9.044   7.215
27284WAT     H282095   7.300   9.040   7.248
27285WAT      O82096   1.070   6.915   2.569
27285WAT     H182097   0.996   6.956   2.622
27285WAT     H282098   1.137   6.875   2.631
27286WAT      O82099   5.969   5.997   3.705
27286WAT     H182100   6.064   5.996   3.737
27286WAT     H282101   5.964   5.955   3.614
27287WAT      O82102   2.618   1.364   7.813
27287WAT     H182103   2.686   1.381   7.885
27287WAT     H282104   2.544   1.309   7.851
27288WAT      O82105   1.096   0.978   0.851
27288WAT     H182106   1.119   0.901   0.791
27288WAT     H282107   1.124   1.063   0.808
27289WAT      O82108   1.295   2.500   7.027
27289WAT     H182109   1.266   2.579   7.082
27289WAT     H282110   1.357   2.443   7.080
27290WAT      O82111   9.401   5.155   1.358
27290WAT     H182112   9.421   5.092   1.283
27290WAT     H282113   9.481   5.162   1.418
27291WAT      O82114   9.736   3.963   4.303
27291WAT     H182115   9.748   4.030   4.376
27291WAT     H282116   9.767   3.874   4.335
27292WAT      O82117   9.740   5.584   6.355
27292WAT     H182118   9.774   5.537   6.436
27292WAT     H282119   9.723   5.518   6.282
27293WAT      O82120   4.465   9.698   1.090
27293WAT     H182121   4.437   9.791   1.115
27293WAT     H282122   4.525   9.701   1.010
27294WAT      O82123   9.802   2.332   7.131
27294WAT     H182124   9.841   2.396   7.065
27294WAT     H282125   9.812   2.369   7.224
27295WAT      O82126   4.842   5.040   5.439
27295WAT     H182127   4.826   4.950   5.397
27295WAT     H282128   4.800   5.111   5.382
27296WAT      O82129   1.515   2.071   7.095
27296WAT     H182130   1.614   2.069   7.077
27296WAT     H282131   1.493   2.003   7.165
27297WAT      O82132   2.843   4.751   0.464
27297WAT     H182133   2.863   4.710   0.375
27297WAT     H282134   2.876   4.845   0.465
27298WAT      O82135   9.853   7.286   6.054
27298WAT     H182136   9.789   7.282   5.978
27298WAT     H282137   9.947   7.289   6.019
27299WAT      O82138   9.377   1.724   1.917
27299WAT     H182139   9.350   1.781   1.995
27299WAT     H282140   9.426   1.643   1.951
27300WAT      O82141   7.722   2.068   5.168
27300WAT     H182142   7.756   2.146   5.115
27300WAT     H282143   7.793   1.998   5.172
27301WAT      O82144   9.498   5.236   1.688
27301WAT     H182145   9.515   5.334   1.703
27301WAT     H282146   9.553   5.204   1.612
27302WAT      O82147   1.007   5.587   6.764
27302WAT     H182148   1.082   5.524   6.747
27302WAT     H282149   1.040   5.681   6.762
27303WAT      O82150   7.277   8.013   4.234
27303WAT     H182151   7.288   8.023   4.135
27303WAT     H282152   7.307   8.097   4.280
27304WAT      O82153   8.299   1.083   9.657
27304WAT     H182154   8.305   1.179   9.629
27304WAT     H282155   8.341   1.071   9.747
27305WAT      O82156   2.480   4.694   9.112
27305WAT     H182157   2.509   4.790   9.109
27305WAT     H282158   2.440   4.669   9.023
27306WAT      O82159   2.197   1.523   4.855
27306WAT     H182160   2.188   1.482   4.764
27306WAT     H282161   2.284   1.497   4.895
27307WAT      O82162   1.896   1.227   7.434
27307WAT     H182163   1.969   1.174   7.390
27307WAT     H282164   1.909   1.226   7.533
27308WAT      O82165   2.372   1.211   8.544
27308WAT     H182166   2.353   1.269   8.623
27308WAT     H282167   2.457   1.241   8.500
27309WAT      O82168   4.772   7.025   0.647
27309WAT     H182169   4.691   7.068   0.609
27309WAT     H282170   4.746   6.966   0.724
27310WAT      O82171   2.195   1.475   9.250
27310WAT     H182172   2.226   1.562   9.211
27310WAT     H282173   2.248   1.400   9.211
27311WAT      O82174   9.408   9.648   5.882
27311WAT     H182175   9.329   9.691   5.925
27311WAT     H282176   9.417   9.553   5.914
27312WAT      O82177   4.277   9.401   5.537
27312WAT     H182178   4.219   9.458   5.479
27312WAT     H282179   4.220   9.352   5.603
27313WAT      O82180   6.707   0.721   2.966
27313WAT     H182181   6.686   0.730   3.064
27313WAT     H282182   6.796   0.677   2.956
27314WAT      O82183   6.238   6.797   3.470
27314WAT     H182184   6.164   6.773   3.409
27314WAT     H282185   6.201   6.833   3.556
27315WAT      O82186   5.999   0.945   2.487
27315WAT     H182187   5.918   0.889   2.503
27315WAT     H282188   6.046   0.915   2.404
27316WAT      O82189   5.024   4.083   3.739
27316WAT     H182190   5.035   3.993   3.780
27316WAT     H282191   4.974   4.143   3.802
27317WAT      O82192   0.234   2.313   1.614
27317WAT     H182193   0.247   2.249   1.538
27317WAT     H282194   0.206   2.262   1.696
27318WAT      O82195   5.602   6.669   1.273
27318WAT     H182196   5.601   6.722   1.358
27318WAT     H282197   5.597   6.732   1.195
27319WAT      O82198   4.693   9.206   7.411
27319WAT     H182199   4.749   9.124   7.403
27319WAT     H282200   4.700   9.242   7.503
27320WAT      O82201   0.129   3.148   8.096
27320WAT     H182202   0.065   3.082   8.136
27320WAT     H282203   0.219   3.137   8.137
27321WAT      O82204   2.134   4.227   8.104
27321WAT     H182205   2.087   4.244   8.018
27321WAT     H282206   2.196   4.302   8.124
27322WAT      O82207   9.778   7.952   3.828
27322WAT     H182208   9.773   7.882   3.899
27322WAT     H282209   9.710   7.933   3.758
27323WAT      O82210   5.325   7.329   1.725
27323WAT     H182211   5.258   7.402   1.738
27323WAT     H282212   5.361   7.333   1.632
27324WAT      O82213   5.542   9.182   2.330
27324WAT     H182214   5.473   9.254   2.344
27324WAT     H282215   5.588   9.197   2.242
27325WAT      O82216   9.625   5.953   6.168
27325WAT     H182217   9.538   5.958   6.119
27325WAT     H282218   9.616   5.889   6.245
27326WAT      O82219   6.227   7.704   2.091
27326WAT     H182220   6.192   7.633   2.029
27326WAT     H282221   6.179   7.790   2.073
27327WAT      O82222   6.004   8.151   9.257
27327WAT     H182223   6.028   8.235   9.209
27327WAT     H282224   5.907   8.154   9.284
27328WAT      O82225   1.894   3.291   3.383
27328WAT     H182226   1.961   3.332   3.445
27328WAT     H282227   1.803   3.326   3.406
27329WAT      O82228   9.883   2.408   2.621
27329WAT     H182229   9.953   2.401   2.550
27329WAT     H282230   9.820   2.331   2.612
27330WAT      O82231   1.866   0.634   6.369
27330WAT     H182232   1.897   0.540   6.381
27330WAT     H282233   1.907   0.691   6.440
27331WAT      O82234   0.809   7.872   2.841
27331WAT     H182235   0.864   7.797   2.877
27331WAT     H282236   0.836   7.958   2.885
27332WAT      O82237   1.815   7.416   5.454
27332WAT     H182238   1.869   7.392   5.374
27332WAT     H282239   1.875   7.456   5.524
27333WAT      O82240   4.058   0.077   7.853
27333WAT     H182241   4.050   0.175   7.871
27333WAT     H282242   4.039   0.060   7.756
27334WAT      O82243   2.562   9.439   7.764
27334WAT     H182244   2.545   9.358   7.708
27334WAT     H282245   2.493   9.508   7.743
27335WAT      O82246   5.425   4.436   5.790
27335WAT     H182247   5.438   4.432   5.889
27335WAT     H282248   5.350   4.497   5.769
27336WAT      O82249   9.625   9.412   1.504
27336WAT     H182250   9.613   9.415   1.404
27336WAT     H282251   9.704   9.355   1.526
27337WAT      O82252   5.028   5.309   8.280
27337WAT     H182253   5.078   5.310   8.194
27337WAT     H282254   5.068   5.240   8.341
27338WAT      O82255   1.158   2.192   3.764
27338WAT     H182256   1.189   2.261   3.698
27338WAT     H282257   1.065   2.213   3.793
27339WAT      O82258   9.776   9.799   3.048
27339WAT     H182259   9.736   9.794   3.139
27339WAT     H282260   9.839   9.877   3.043
27340WAT      O82261   9.381   7.862   5.428
27340WAT     H182262   9.479   7.876   5.437
27340WAT     H282263   9.363   7.773   5.386
27341WAT      O82264   8.875   6.908   4.863
27341WAT     H182265   8.826   6.821   4.869
27341WAT     H282266   8.959   6.896   4.810
27342WAT      O82267   2.685   1.694   1.581
27342WAT     H182268   2.745   1.632   1.531
27342WAT     H282269   2.589   1.670   1.561
27343WAT      O82270   2.989   4.363   6.331
27343WAT     H182271   3.022   4.386   6.423
27343WAT     H282272   3.062   4.316   6.281
27344WAT      O82273   4.746   5.980   1.095
27344WAT     H182274   4.753   6.036   1.013
27344WAT     H282275   4.771   5.886   1.073
27345WAT      O82276   9.122   4.637   1.021
27345WAT     H182277   9.143   4.568   0.951
27345WAT     H282278   9.062   4.707   0.982
27346WAT      O82279   0.956   4.475   8.326
27346WAT     H182280   1.051   4.480   8.357
27346WAT     H282281   0.950   4.512   8.233
27347WAT      O82282   9.754   5.896   0.719
27347WAT     H182283   9.737   5.983   0.765
27347WAT     H282284   9.851   5.889   0.695
27348WAT      O82285   3.209   8.746   5.991
27348WAT     H182286   3.208   8.678   6.064
27348WAT     H282287   3.128   8.735   5.934
27349WAT      O82288   0.569   9.538   5.470
27349WAT     H182289   0.520   9.594   5.404
27349WAT     H282290   0.642   9.591   5.513
27350WAT      O82291   8.799   8.733   1.053
27350WAT     H182292   8.771   8.724   0.957
27350WAT     H282293   8.722   8.712   1.112
27351WAT      O82294   3.126   0.657   0.595
27351WAT     H182295   3.032   0.639   0.624
27351WAT     H282296   3.165   0.729   0.653
27352WAT      O82297   1.011   6.336   3.752
27352WAT     H182298   1.025   6.237   3.743
27352WAT     H282299   1.065   6.370   3.829
27353WAT      O82300   4.129   5.679   6.850
27353WAT     H182301   4.213   5.638   6.814
27353WAT     H282302   4.144   5.775   6.870
27354WAT      O82303   3.632   4.557   9.378
27354WAT     H182304   3.728   4.532   9.371
27354WAT     H282305   3.605   4.612   9.299
27355WAT      O82306   8.138   0.871   9.583
27355WAT     H182307   8.192   0.953   9.599
27355WAT     H282308   8.080   0.852   9.662
27356WAT      O82309   3.497   0.060   5.876
27356WAT     H182310   3.586   0.107   5.871
27356WAT     H282311   3.432   0.118   5.926
27357WAT      O82312   8.464   4.742   5.038
27357WAT     H182313   8.457   4.757   5.137
27357WAT     H282314   8.379   4.772   4.994
27358WAT      O82315   3.489   8.021   9.854
27358WAT     H182316   3.409   8.005   9.911
27358WAT     H282317   3.568   8.039   9.913
27359WAT      O82318   8.644   2.422   3.410
27359WAT     H182319   8.583   2.405   3.333
27359WAT     H282320   8.684   2.336   3.441
27360WAT      O82321   3.379   8.659   6.733
27360WAT     H182322   3.330   8.682   6.649
27360WAT     H282323   3.466   8.708   6.736
27361WAT      O82324   4.460   7.050   9.207
27361WAT     H182325   4.401   6.990   9.260
27361WAT     H282326   4.553   7.045   9.242
27362WAT      O82327   6.453   9.581   1.000
27362WAT     H182328   6.465   9.665   1.053
27362WAT     H282329   6.376   9.592   0.938
27363WAT      O82330   2.639   7.455   7.905
27363WAT     H182331   2.729   7.498   7.907
27363WAT     H282332   2.641   7.371   7.960
27364WAT      O82333   3.969   5.869   0.577
27364WAT     H182334   4.058   5.900   0.545
27364WAT     H282335   3.931   5.802   0.512
27365WAT      O82336   7.452   4.283   6.651
27365WAT     H182337   7.385   4.331   6.708
27365WAT     H282338   7.403   4.224   6.586
27366WAT      O82339   2.856   2.090   8.247
27366WAT     H182340   2.943   2.128   8.279
27366WAT     H282341   2.873   2.005   8.197
27367WAT      O82342   8.349   6.721   0.759
27367WAT     H182343   8.305   6.635   0.786
27367WAT     H282344   8.443   6.723   0.794
27368WAT      O82345   7.731   3.490   0.170
27368WAT     H182346   7.802   3.507   0.102
27368WAT     H282347   7.756   3.536   0.255
27369WAT      O82348   4.866   3.501   8.900
27369WAT     H182349   4.766   3.493   8.900
27369WAT     H282350   4.899   3.507   8.994
27370WAT      O82351   2.491   5.263   1.860
27370WAT     H182352   2.506   5.351   1.906
27370WAT     H282353   2.449   5.199   1.925
27371WAT      O82354   4.553   8.249   5.809
27371WAT     H182355   4.479   8.315   5.824
27371WAT     H282356   4.640   8.290   5.839
27372WAT      O82357   4.312   6.767   8.023
27372WAT     H182358   4.265   6.854   8.035
27372WAT     H282359   4.393   6.764   8.081
27373WAT      O82360   7.640   7.880   5.137
27373WAT     H182361   7.624   7.888   5.235
27373WAT     H282362   7.587   7.803   5.101
27374WAT      O82363   8.113   8.682   8.608
27374WAT     H182364   8.110   8.682   8.508
27374WAT     H282365   8.022   8.663   8.644
27375WAT      O82366   4.592   8.009   8.645
27375WAT     H182367   4.497   8.032   8.668
27375WAT     H282368   4.614   8.045   8.554
27376WAT      O82369   1.229   3.478   6.064
27376WAT     H182370   1.310   3.534   6.082
27376WAT     H282371   1.256   3.394   6.017
27377WAT      O82372   9.261   8.056   1.343
27377WAT     H182373   9.236   7.963   1.315
27377WAT     H282374   9.187   8.119   1.320
27378WAT      O82375   8.013   3.767   6.756
27378WAT     H182376   8.012   3.735   6.661
27378WAT     H282377   8.086   3.721   6.806
27379WAT      O82378   3.499   6.420   8.037
27379WAT     H182379   3.538   6.458   8.121
27379WAT     H282380   3.568   6.364   7.991
27380WAT      O82381   9.174   9.724   8.533
27380WAT     H182382   9.223   9.763   8.455
27380WAT     H282383   9.106   9.789   8.565
27381WAT      O82384   2.487   6.058   1.153
27381WAT     H182385   2.533   5.991   1.094
27381WAT     H282386   2.526   6.148   1.138
27382WAT      O82387   9.180   3.555   5.924
27382WAT     H182388   9.129   3.622   5.869
27382WAT     H282389   9.198   3.474   5.868
27383WAT      O82390   3.302   7.730   2.793
27383WAT     H182391   3.316   7.823   2.759
27383WAT     H282392   3.257   7.734   2.882
27384WAT      O82393   5.374   8.166   7.901
27384WAT     H182394   5.322   8.171   7.986
27384WAT     H282395   5.459   8.217   7.911
27385WAT      O82396   3.740   1.582   8.886
27385WAT     H182397   3.744   1.679   8.862
27385WAT     H282398   3.710   1.572   8.980
27386WAT      O82399   9.039   7.626   9.474
27386WAT     H182400   9.097   7.670   9.542
27386WAT     H282401   9.090   7.552   9.430
27387WAT      O82402   3.584   3.575   8.650
27387WAT     H182403   3.678   3.607   8.638
27387WAT     H282404   3.522   3.653   8.647
27388WAT      O82405   8.646   6.232   0.845
27388WAT     H182406   8.690   6.241   0.756
27388WAT     H282407   8.568   6.170   0.839
27389WAT      O82408   1.557   0.971   4.407
27389WAT     H182409   1.490   0.940   4.475
27389WAT     H282410   1.604   1.053   4.442
27390WAT      O82411   2.975   0.268   4.247
27390WAT     H182412   2.927   0.202   4.190
27390WAT     H282413   3.071   0.241   4.256
27391WAT      O82414   1.373   4.643   9.032
27391WAT     H182415   1.440   4.573   9.059
27391WAT     H282416   1.281   4.606   9.044
27392WAT      O82417   9.530   6.319   5.263
27392WAT     H182418   9.473   6.270   5.329
27392WAT     H282419   9.581   6.392   5.311
27393WAT      O82420   6.862   0.102   7.920
27393WAT     H182421   6.777   0.090   7.971
27393WAT     H282422   6.889   0.016   7.878
27394WAT      O82423   5.757   2.642   1.706
27394WAT     H182424   5.697   2.714   1.743
27394WAT     H282425   5.756   2.646   1.606
27395WAT      O82426   9.558   2.024   0.974
27395WAT     H182427   9.572   1.925   0.975
27395WAT     H282428   9.462   2.044   0.993
27396WAT      O82429   9.707   8.061   3.397
27396WAT     H182430   9.642   8.088   3.468
27396WAT     H282431   9.746   8.143   3.355
27397WAT      O82432   0.571   6.566   3.372
27397WAT     H182433   0.493   6.611   3.329
27397WAT     H282434   0.539   6.516   3.453
27398WAT      O82435   8.849   1.888   9.112
27398WAT     H182436   8.815   1.825   9.182
27398WAT     H282437   8.943   1.864   9.087
27399WAT      O82438   0.710   0.897   1.586
27399WAT     H182439   0.746   0.948   1.664
27399WAT     H282440   0.611   0.910   1.580
27400WAT      O82441   7.086   5.085   7.156
27400WAT     H182442   7.001   5.092   7.104
27400WAT     H282443   7.089   4.997   7.203
27401WAT      O82444   8.606   2.938   5.816
27401WAT     H182445   8.665   2.861   5.837
27401WAT     H282446   8.513   2.906   5.798
27402WAT      O82447   3.212   0.332   7.601
27402WAT     H182448   3.184   0.311   7.695
27402WAT     H282449   3.281   0.266   7.571
27403WAT      O82450   8.295   7.214   8.904
27403WAT     H182451   8.292   7.314   8.904
27403WAT     H282452   8.380   7.184   8.948
27404WAT      O82453   4.367   8.469   8.650
27404WAT     H182454   4.403   8.471   8.743
27404WAT     H282455   4.432   8.511   8.587
27405WAT      O82456   3.766   9.412   9.835
27405WAT     H182457   3.812   9.332   9.874
27405WAT     H282458   3.815   9.495   9.861
27406WAT      O82459   8.689   2.807   8.773
27406WAT     H182460   8.676   2.890   8.827
27406WAT     H282461   8.775   2.812   8.723
27407WAT      O82462   1.503   8.645   8.113
27407WAT     H182463   1.513   8.555   8.155
27407WAT     H282464   1.594   8.687   8.103
27408WAT      O82465   1.967   4.915   8.860
27408WAT     H182466   1.992   4.983   8.928
27408WAT     H282467   1.867   4.908   8.855
27409WAT      O82468   9.223   2.153   5.154
27409WAT     H182469   9.317   2.173   5.127
27409WAT     H282470   9.218   2.061   5.193
27410WAT      O82471   6.098   3.622   1.822
27410WAT     H182472   6.015   3.566   1.817
27410WAT     H282473   6.170   3.580   1.767
27411WAT      O82474   7.910   5.852   6.478
27411WAT     H182475   7.861   5.784   6.533
27411WAT     H282476   7.999   5.815   6.451
27412WAT      O82477   7.320   3.663   6.403
27412WAT     H182478   7.265   3.679   6.485
27412WAT     H282479   7.389   3.593   6.422
27413WAT      O82480   4.053   1.662   9.833
27413WAT     H182481   4.036   1.629   9.740
27413WAT     H282482   4.027   1.591   9.898
27414WAT      O82483   9.323   2.989   1.189
27414WAT     H182484   9.268   3.066   1.156
27414WAT     H282485   9.325   2.917   1.120
27415WAT      O82486   7.294   3.378   5.656
27415WAT     H182487   7.281   3.319   5.736
27415WAT     H282488   7.206   3.417   5.629
27416WAT      O82489   3.951   6.488   5.355
27416WAT     H182490   3.863   6.461   5.316
27416WAT     H282491   3.967   6.585   5.336
27417WAT      O82492   5.271   7.879   6.927
27417WAT     H182493   5.194   7.934   6.959
27417WAT     H282494   5.240   7.786   6.907
27418WAT      O82495   5.275   0.062   9.617
27418WAT     H182496   5.246   0.102   9.530
27418WAT     H282497   5.373   0.076   9.629
27419WAT      O82498   8.510   9.790   2.579
27419WAT     H182499   8.577   9.862   2.595
27419WAT     H282500   8.486   9.788   2.482
27420WAT      O82501   4.723   9.536   2.979
27420WAT     H182502   4.822   9.549   2.989
27420WAT     H282503   4.697   9.557   2.885
27421WAT      O82504   6.371   2.835   8.861
27421WAT     H182505   6.420   2.879   8.936
27421WAT     H282506   6.432   2.772   8.813
27422WAT      O82507   4.322   7.317   3.337
27422WAT     H182508   4.401   7.377   3.324
27422WAT     H282509   4.269   7.312   3.252
27423WAT      O82510   1.961   8.989   0.816
27423WAT     H182511   1.948   8.899   0.857
27423WAT     H282512   2.039   8.987   0.754
27424WAT      O82513   3.984   9.125   5.401
27424WAT     H182514   4.023   9.193   5.339
27424WAT     H282515   3.972   9.039   5.353
27425WAT      O82516   7.645   8.541   7.142
27425WAT     H182517   7.724   8.583   7.186
27425WAT     H282518   7.674   8.495   7.058
27426WAT      O82519   4.376   6.992   2.692
27426WAT     H182520   4.316   6.968   2.616
27426WAT     H282521   4.371   7.090   2.709
27427WAT      O82522   4.584   4.244   0.594
27427WAT     H182523   4.520   4.312   0.559
27427WAT     H282524   4.678   4.274   0.574
27428WAT      O82525   1.395   5.542   5.987
27428WAT     H182526   1.437   5.572   6.073
27428WAT     H282527   1.465   5.502   5.927
27429WAT      O82528   5.016   9.742   3.705
27429WAT     H182529   5.035   9.839   3.721
27429WAT     H282530   5.095   9.699   3.663
27430WAT      O82531   4.694   8.837   5.992
27430WAT     H182532   4.776   8.888   6.018
27430WAT     H282533   4.675   8.851   5.894
27431WAT      O82534   8.017   8.949   8.621
27431WAT     H182535   8.077   9.022   8.655
27431WAT     H282536   8.066   8.861   8.626
27432WAT      O82537   8.925   5.279   0.165
27432WAT     H182538   8.982   5.355   0.134
27432WAT     H282539   8.938   5.200   0.105
27433WAT      O82540   4.570   7.632   0.426
27433WAT     H182541   4.585   7.546   0.377
27433WAT     H282542   4.655   7.659   0.472
27434WAT      O82543   2.321   5.410   5.100
27434WAT     H182544   2.417   5.404   5.130
27434WAT     H282545   2.261   5.410   5.180
27435WAT      O82546   0.805   2.864   3.995
27435WAT     H182547   0.784   2.937   4.060
27435WAT     H282548   0.820   2.904   3.905
27436WAT      O82549   2.490   2.699   2.000
27436WAT     H182550   2.550   2.750   2.062
27436WAT     H282551   2.479   2.606   2.035
27437WAT      O82552   5.740   2.061   9.685
27437WAT     H182553   5.684   2.030   9.761
27437WAT     H282554   5.836   2.060   9.711
27438WAT      O82555   6.271   4.602   9.205
27438WAT     H182556   6.354   4.550   9.186
27438WAT     H282557   6.289   4.669   9.277
27439WAT      O82558   9.251   4.163   9.876
27439WAT     H182559   9.343   4.195   9.898
27439WAT     H282560   9.214   4.216   9.800
27440WAT      O82561   0.740   6.494   5.072
27440WAT     H182562   0.745   6.593   5.060
27440WAT     H282563   0.799   6.466   5.147
27441WAT      O82564   8.124   2.032   1.479
27441WAT     H182565   8.208   1.979   1.488
27441WAT     H282566   8.121   2.103   1.549
27442WAT      O82567   2.534   7.662   7.414
27442WAT     H182568   2.558   7.755   7.386
27442WAT     H282569   2.570   7.597   7.347
27443WAT      O82570   0.841   8.812   7.383
27443WAT     H182571   0.852   8.714   7.392
27443WAT     H282572   0.816   8.852   7.471
27444WAT      O82573   1.243   2.841   8.716
27444WAT     H182574   1.160   2.879   8.676
27444WAT     H282575   1.295   2.914   8.760
27445WAT      O82576   8.063   1.294   0.768
27445WAT     H182577   8.113   1.209   0.775
27445WAT     H282578   8.121   1.365   0.727
27446WAT      O82579   4.385   9.107   5.222
27446WAT     H182580   4.476   9.129   5.255
27446WAT     H282581   4.392   9.064   5.132
27447WAT      O82582   4.815   0.656   3.560
27447WAT     H182583   4.791   0.583   3.624
27447WAT     H282584   4.743   0.724   3.559
27448WAT      O82585   4.261   2.880   2.781
27448WAT     H182586   4.188   2.848   2.720
27448WAT     H282587   4.221   2.905   2.870
27449WAT      O82588   4.989   8.670   5.303
27449WAT     H182589   4.952   8.619   5.381
27449WAT     H282590   5.019   8.606   5.232
27450WAT      O82591   8.633   5.413   1.437
27450WAT     H182592   8.629   5.483   1.365
27450WAT     H282593   8.705   5.347   1.414
27451WAT      O82594   0.908   1.202   9.242
27451WAT     H182595   0.995   1.167   9.207
27451WAT     H282596   0.890   1.292   9.202
27452WAT      O82597   6.535   2.129   7.891
27452WAT     H182598   6.517   2.228   7.888
27452WAT     H282599   6.460   2.083   7.938
27453WAT      O82600   2.830   5.951   8.867
27453WAT     H182601   2.833   5.856   8.897
27453WAT     H282602   2.877   5.959   8.779
27454WAT      O82603   2.560   6.700   7.401
27454WAT     H182604   2.656   6.671   7.398
27454WAT     H282605   2.510   6.642   7.465
27455WAT      O82606   1.808   2.062   2.410
27455WAT     H182607   1.854   2.128   2.471
27455WAT     H282608   1.709   2.071   2.421
27456WAT      O82609   0.401   6.482   2.691
27456WAT     H182610   0.387   6.414   2.763
27456WAT     H282611   0.487   6.530   2.706
27457WAT      O82612   2.281   9.023   1.400
27457WAT     H182613   2.376   9.054   1.393
27457WAT     H282614   2.237   9.034   1.311
27458WAT      O82615   3.241   5.082   8.835
27458WAT     H182616   3.185   5.165   8.834
27458WAT     H282617   3.318   5.093   8.772
27459WAT      O82618   6.166   4.810   7.835
27459WAT     H182619   6.149   4.813   7.934
27459WAT     H282620   6.141   4.719   7.800
27460WAT      O82621   6.158   5.870   5.753
27460WAT     H182622   6.169   5.951   5.696
27460WAT     H282623   6.103   5.801   5.705
27461WAT      O82624   1.755   3.659   1.786
27461WAT     H182625   1.705   3.740   1.816
27461WAT     H282626   1.708   3.576   1.817
27462WAT      O82627   6.268   9.776   9.550
27462WAT     H182628   6.278   9.786   9.451
27462WAT     H282629   6.242   9.864   9.591
27463WAT      O82630   6.695   2.612   0.793
27463WAT     H182631   6.737   2.559   0.867
27463WAT     H282632   6.739   2.702   0.789
27464WAT      O82633   9.849   7.057   3.643
27464WAT     H182634   9.936   7.015   3.617
27464WAT     H282635   9.858   7.157   3.641
27465WAT      O82636   5.432   8.967   4.783
27465WAT     H182637   5.410   8.896   4.849
27465WAT     H282638   5.434   9.056   4.829
27466WAT      O82639   8.114   3.447   7.391
27466WAT     H182640   8.212   3.448   7.369
27466WAT     H282641   8.102   3.429   7.488
27467WAT      O82642   6.424   4.147   7.635
27467WAT     H182643   6.393   4.203   7.712
27467WAT     H282644   6.524   4.142   7.635
27468WAT      O82645   9.218   6.986   8.800
27468WAT     H182646   9.215   7.046   8.721
27468WAT     H282647   9.281   6.910   8.783
27469WAT      O82648   3.062   6.145   1.322
27469WAT     H182649   3.072   6.078   1.396
27469WAT     H282650   3.099   6.233   1.353
27470WAT      O82651   2.265   6.365   8.563
27470WAT     H182652   2.220   6.284   8.600
27470WAT     H282653   2.364   6.352   8.566
27471WAT      O82654   8.848   7.671   3.688
27471WAT     H182655   8.766   7.625   3.720
27471WAT     H282656   8.903   7.700   3.766
27472WAT      O82657   4.436   9.571   0.569
27472WAT     H182658   4.514   9.553   0.509
27472WAT     H282659   4.403   9.664   0.552
27473WAT      O82660   3.622   7.801   5.925
27473WAT     H182661   3.636   7.871   5.856
27473WAT     H282662   3.705   7.793   5.982
27474WAT      O82663   0.966   4.548   4.781
27474WAT     H182664   0.901   4.517   4.711
27474WAT     H282665   1.055   4.565   4.738
27475WAT      O82666   0.536   5.777   1.626
27475WAT     H182667   0.464   5.767   1.694
27475WAT     H282668   0.608   5.710   1.644
27476WAT      O82669   1.671   3.072   8.136
27476WAT     H182670   1.649   3.002   8.067
27476WAT     H282671   1.766   3.101   8.125
27477WAT      O82672   6.584   3.498   2.076
27477WAT     H182673   6.551   3.567   2.012
27477WAT     H282674   6.576   3.533   2.170
27478WAT      O82675   6.813   2.920   0.948
27478WAT     H182676   6.731   2.978   0.944
27478WAT     H282677   6.841   2.895   0.856
27479WAT      O82678   0.234   8.621   0.627
27479WAT     H182679   0.277   8.533   0.649
27479WAT     H282680   0.170   8.609   0.551
27480WAT      O82681   4.334   3.954   1.906
27480WAT     H182682   4.420   3.907   1.886
27480WAT     H282683   4.343   4.006   1.991
27481WAT      O82684   4.245   2.071   3.374
27481WAT     H182685   4.179   2.121   3.318
27481WAT     H282686   4.332   2.120   3.375
27482WAT      O82687   2.091   4.273   4.028
27482WAT     H182688   2.079   4.329   4.109
27482WAT     H282689   2.130   4.329   3.954
27483WAT      O82690   7.626   6.553   2.810
27483WAT     H182691   7.692   6.617   2.849
27483WAT     H282692   7.535   6.572   2.847
27484WAT      O82693   4.312   5.031   7.343
27484WAT     H182694   4.323   4.964   7.415
27484WAT     H282695   4.358   5.116   7.368
27485WAT      O82696   7.318   0.639   6.171
27485WAT     H182697   7.316   0.739   6.165
27485WAT     H282698   7.395   0.611   6.228
27486WAT      O82699   5.338   1.046   2.064
27486WAT     H182700   5.297   0.955   2.054
27486WAT     H282701   5.408   1.043   2.135
27487WAT      O82702   6.934   1.885   1.605
27487WAT     H182703   6.954   1.833   1.689
27487WAT     H282704   6.877   1.963   1.628
27488WAT      O82705   8.268   3.386   6.318
27488WAT     H182706   8.175   3.362   6.290
27488WAT     H282707   8.267   3.417   6.413
27489WAT      O82708   4.333   2.588   3.211
27489WAT     H182709   4.323   2.674   3.262
27489WAT     H282710   4.339   2.608   3.113
27490WAT      O82711   7.743   4.959   2.665
27490WAT     H182712   7.673   5.020   2.628
27490WAT     H282713   7.725   4.942   2.762
27491WAT      O82714   1.317   5.465   2.397
27491WAT     H182715   1.225   5.497   2.377
27491WAT     H282716   1.343   5.494   2.489
27492WAT      O82717   4.180   3.228   5.607
27492WAT     H182718   4.260   3.219   5.548
27492WAT     H282719   4.168   3.144   5.660
27493WAT      O82720   7.464   7.481   8.027
27493WAT     H182721   7.498   7.527   8.108
27493WAT     H282722   7.463   7.382   8.042
27494WAT      O82723   3.479   8.258   7.283
27494WAT     H182724   3.421   8.247   7.364
27494WAT     H282725   3.452   8.340   7.233
27495WAT      O82726   5.794   7.701   5.431
27495WAT     H182727   5.697   7.721   5.438
27495WAT     H282728   5.822   7.639   5.504
27496WAT      O82729   7.259   5.579   2.373
27496WAT     H182730   7.299   5.572   2.282
27496WAT     H282731   7.319   5.536   2.440
27497WAT      O82732   0.233   4.670   8.442
27497WAT     H182733   0.322   4.659   8.487
27497WAT     H282734   0.189   4.754   8.475
27498WAT      O82735   6.335   2.566   5.423
27498WAT     H182736   6.379   2.504   5.358
27498WAT     H282737   6.393   2.647   5.436
27499WAT      O82738   5.506   5.894   9.290
27499WAT     H182739   5.593   5.918   9.333
27499WAT     H282740   5.521   5.821   9.223
27500WAT      O82741   8.920   9.666   9.240
27500WAT     H182742   8.821   9.681   9.251
27500WAT     H282743   8.942   9.663   9.142
27501WAT      O82744   9.111   4.879   9.329
27501WAT     H182745   9.128   4.786   9.362
27501WAT     H282746   9.195   4.917   9.290
27502WAT      O82747   1.264   5.280   7.717
27502WAT     H182748   1.343   5.234   7.677
27502WAT     H282749   1.182   5.224   7.705
27503WAT      O82750   5.883   3.540   3.516
27503WAT     H182751   5.932   3.627   3.528
27503WAT     H282752   5.868   3.498   3.606
27504WAT      O82753   0.383   9.199   5.084
27504WAT     H182754   0.404   9.260   5.008
27504WAT     H282755   0.461   9.197   5.147
27505WAT      O82756   0.327   1.936   7.542
27505WAT     H182757   0.425   1.929   7.560
27505WAT     H282758   0.295   1.854   7.494
27506WAT      O82759   1.856   5.225   2.392
27506WAT     H182760   1.775   5.169   2.410
27506WAT     H282761   1.909   5.234   2.476
27507WAT      O82762   1.773   3.859   1.263
27507WAT     H182763   1.715   3.800   1.207
27507WAT     H282764   1.828   3.918   1.203
27508WAT      O82765   6.559   0.273   4.050
27508WAT     H182766   6.548   0.230   4.140
27508WAT     H282767   6.506   0.223   3.982
27509WAT      O82768   2.994   5.948   6.187
27509WAT     H182769   2.900   5.918   6.174
27509WAT     H282770   3.033   5.900   6.266
27510WAT      O82771   9.467   0.371   1.726
27510WAT     H182772   9.440   0.452   1.674
27510WAT     H282773   9.537   0.321   1.676
27511WAT      O82774   0.834   3.821   8.787
27511WAT     H182775   0.880   3.820   8.876
27511WAT     H282776   0.744   3.778   8.796
27512WAT      O82777   0.680   3.820   7.197
27512WAT     H182778   0.587   3.799   7.228
27512WAT     H282779   0.740   3.830   7.277
27513WAT      O82780   8.769   8.908   3.047
27513WAT     H182781   8.790   8.963   2.966
27513WAT     H282782   8.765   8.966   3.128
27514WAT      O82783   9.011   2.215   6.408
27514WAT     H182784   9.062   2.170   6.335
27514WAT     H282785   8.919   2.176   6.413
27515WAT      O82786   4.758   1.011   7.159
27515WAT     H182787   4.742   1.016   7.258
27515WAT     H282788   4.671   1.019   7.111
27516WAT      O82789   9.649   8.004   8.752
27516WAT     H182790   9.739   8.042   8.730
27516WAT     H282791   9.579   8.051   8.699
27517WAT      O82792   6.728   3.972   0.380
27517WAT     H182793   6.826   3.984   0.362
27517WAT     H282794   6.702   3.877   0.363
27518WAT      O82795   4.874   7.794   2.805
27518WAT     H182796   4.844   7.748   2.722
27518WAT     H282797   4.811   7.868   2.828
27519WAT      O82798   3.286   3.853   1.214
27519WAT     H182799   3.336   3.908   1.281
27519WAT     H282800   3.348   3.786   1.173
27520WAT      O82801   6.444   8.998   5.593
27520WAT     H182802   6.408   8.984   5.685
27520WAT     H282803   6.403   8.931   5.531
27521WAT      O82804   6.622   6.131   5.863
27521WAT     H182805   6.638   6.110   5.960
27521WAT     H282806   6.525   6.116   5.842
27522WAT      O82807   2.237   5.922   0.644
27522WAT     H182808   2.242   6.010   0.692
27522WAT     H282809   2.296   5.856   0.691
27523WAT      O82810   4.971   6.165   3.452
27523WAT     H182811   4.874   6.143   3.452
27523WAT     H282812   5.001   6.185   3.545
27524WAT      O82813   1.872   7.832   2.917
27524WAT     H182814   1.968   7.828   2.891
27524WAT     H282815   1.826   7.905   2.867
27525WAT      O82816   2.834   1.292   1.111
27525WAT     H182817   2.780   1.298   1.027
27525WAT     H282818   2.835   1.381   1.156
27526WAT      O82819   7.288   0.429   8.815
27526WAT     H182820   7.375   0.435   8.864
27526WAT     H282821   7.255   0.335   8.817
27527WAT      O82822   3.267   0.275   7.892
27527WAT     H182823   3.192   0.210   7.904
27527WAT     H282824   3.352   0.225   7.879
27528WAT      O82825   2.647   9.601   1.748
27528WAT     H182826   2.645   9.530   1.679
27528WAT     H282827   2.570   9.664   1.734
27529WAT      O82828   6.677   9.784   6.336
27529WAT     H182829   6.733   9.736   6.269
27529WAT     H282830   6.611   9.720   6.377
27530WAT      O82831   9.155   0.671   3.135
27530WAT     H182832   9.203   0.752   3.171
27530WAT     H282833   9.202   0.589   3.166
27531WAT      O82834   8.858   9.077   0.773
27531WAT     H182835   8.815   9.162   0.744
27531WAT     H282836   8.957   9.087   0.769
27532WAT      O82837   8.432   5.718   3.348
27532WAT     H182838   8.435   5.802   3.295
27532WAT     H282839   8.383   5.733   3.434
27533WAT      O82840   0.406   7.525   4.260
27533WAT     H182841   0.333   7.458   4.243
27533WAT     H282842   0.401   7.556   4.355
27534WAT      O82843   2.873   2.537   1.174
27534WAT     H182844   2.871   2.578   1.083
27534WAT     H282845   2.842   2.604   1.242
27535WAT      O82846   0.129   3.138   3.271
27535WAT     H182847   0.094   3.082   3.196
27535WAT     H282848   0.054   3.193   3.308
27536WAT      O82849   7.518   6.235   6.647
27536WAT     H182850   7.523   6.331   6.621
27536WAT     H282851   7.566   6.222   6.734
27537WAT      O82852   7.709   2.623   8.687
27537WAT     H182853   7.727   2.683   8.609
27537WAT     H282854   7.743   2.531   8.666
27538WAT      O82855   1.776   7.659   9.079
27538WAT     H182856   1.862   7.624   9.042
27538WAT     H282857   1.726   7.584   9.123
27539WAT      O82858   6.151   0.226   2.161
27539WAT     H182859   6.203   0.231   2.075
27539WAT     H282860   6.069   0.282   2.154
27540WAT      O82861   4.065   2.470   2.656
27540WAT     H182862   4.139   2.512   2.605
27540WAT     H282863   4.100   2.433   2.742
27541WAT      O82864   0.714   8.257   8.558
27541WAT     H182865   0.768   8.236   8.640
27541WAT     H282866   0.767   8.315   8.497
27542WAT      O82867   6.873   5.657   9.702
27542WAT     H182868   6.930   5.612   9.771
27542WAT     H282869   6.923   5.659   9.615
27543WAT      O82870   0.970   1.341   6.706
27543WAT     H182871   0.969   1.327   6.607
27543WAT     H282872   0.918   1.424   6.728
27544WAT      O82873   0.662   2.011   9.744
27544WAT     H182874   0.648   1.955   9.662
27544WAT     H282875   0.578   2.060   9.766
27545WAT      O82876   3.546   7.415   2.408
27545WAT     H182877   3.606   7.417   2.327
27545WAT     H282878   3.595   7.372   2.484
27546WAT      O82879   6.925   4.626   3.573
27546WAT     H182880   6.972   4.559   3.631
27546WAT     H282881   6.922   4.593   3.479
27547WAT      O82882   3.816   2.588   6.212
27547WAT     H182883   3.890   2.628   6.159
27547WAT     H282884   3.846   2.574   6.306
27548WAT      O82885   5.211   9.684   8.045
27548WAT     H182886   5.279   9.750   8.013
27548WAT     H282887   5.218   9.601   7.990
27549WAT      O82888   6.693   2.049   8.447
27549WAT     H182889   6.743   1.963   8.441
27549WAT     H282890   6.637   2.061   8.365
27550WAT      O82891   1.797   5.343   5.075
27550WAT     H182892   1.826   5.287   5.152
27550WAT     H282893   1.698   5.333   5.061
27551WAT      O82894   2.840   4.059   1.553
27551WAT     H182895   2.915   4.124   1.563
27551WAT     H282896   2.814   4.025   1.644
27552WAT      O82897   6.725   0.781   4.913
27552WAT     H182898   6.794   0.803   4.981
27552WAT     H282899   6.672   0.863   4.892
27553WAT      O82900   0.089   3.136   4.139
27553WAT     H182901   0.024   3.204   4.104
27553WAT     H282902   0.083   3.134   4.239
27554WAT      O82903   1.057   9.058   9.444
27554WAT     H182904   1.089   9.129   9.508
27554WAT     H282905   1.111   8.975   9.456
27555WAT      O82906   6.208   2.935   0.025
27555WAT     H182907   6.239   2.857   0.078
27555WAT     H282908   6.263   2.943  -0.059
27556WAT      O82909   3.836   5.867   5.639
27556WAT     H182910   3.867   5.955   5.601
27556WAT     H282911   3.871   5.858   5.732
27557WAT      O82912   1.047   0.565   1.432
27557WAT     H182913   1.071   0.483   1.483
27557WAT     H282914   0.948   0.580   1.437
27558WAT      O82915   4.412   9.567   3.972
27558WAT     H182916   4.381   9.584   4.066
27558WAT     H282917   4.370   9.633   3.910
27559WAT      O82918   5.126   8.086   3.936
27559WAT     H182919   5.109   8.175   3.978
27559WAT     H282920   5.067   8.076   3.855
27560WAT      O82921   1.251   5.581   1.502
27560WAT     H182922   1.288   5.592   1.409
27560WAT     H282923   1.262   5.486   1.531
27561WAT      O82924   8.925   4.873   0.532
27561WAT     H182925   8.913   4.887   0.434
27561WAT     H282926   8.855   4.809   0.566
27562WAT      O82927   1.660   4.401   6.794
27562WAT     H182928   1.692   4.354   6.712
27562WAT     H282929   1.653   4.336   6.869
27563WAT      O82930   2.038   3.118   2.055
27563WAT     H182931   1.984   3.035   2.044
27563WAT     H282932   2.135   3.095   2.051
27564WAT      O82933   3.671   4.660   4.935
27564WAT     H182934   3.695   4.754   4.915
27564WAT     H282935   3.643   4.652   5.031
27565WAT      O82936   5.399   1.548   1.361
27565WAT     H182937   5.392   1.546   1.261
27565WAT     H282938   5.491   1.518   1.388
27566WAT      O82939   4.631   0.101   2.448
27566WAT     H182940   4.545   0.051   2.436
27566WAT     H282941   4.612   0.199   2.451
27567WAT      O82942   1.502   3.495   0.820
27567WAT     H182943   1.589   3.504   0.869
27567WAT     H282944   1.516   3.444   0.736
27568WAT      O82945   8.039   7.732   2.033
27568WAT     H182946   8.119   7.708   2.088
27568WAT     H282947   8.018   7.657   1.970
27569WAT      O82948   9.128   8.555   0.931
27569WAT     H182949   9.042   8.516   0.899
27569WAT     H282950   9.197   8.549   0.859
27570WAT      O82951   4.290   2.137   4.350
27570WAT     H182952   4.287   2.198   4.429
27570WAT     H282953   4.289   2.042   4.382
27571WAT      O82954   1.447   9.807   4.865
27571WAT     H182955   1.508   9.782   4.940
27571WAT     H282956   1.352   9.795   4.893
27572WAT      O82957   9.503   8.102   6.351
27572WAT     H182958   9.582   8.145   6.306
27572WAT     H282959   9.424   8.163   6.346
27573WAT      O82960   0.814   7.435   2.282
27573WAT     H182961   0.897   7.381   2.268
27573WAT     H282962   0.834   7.512   2.342
27574WAT      O82963   3.761   7.817   2.470
27574WAT     H182964   3.812   7.767   2.400
27574WAT     H282965   3.819   7.887   2.510
27575WAT      O82966   8.323   9.822   7.406
27575WAT     H182967   8.405   9.861   7.365
27575WAT     H282968   8.296   9.878   7.485
27576WAT      O82969   0.896   7.982   8.490
27576WAT     H182970   0.967   8.040   8.532
27576WAT     H282971   0.935   7.931   8.414
27577WAT      O82972   8.537   0.142   5.152
27577WAT     H182973   8.501   0.093   5.231
27577WAT     H282974   8.595   0.081   5.098
27578WAT      O82975   6.957   6.440   0.901
27578WAT     H182976   6.918   6.484   0.821
27578WAT     H282977   7.012   6.361   0.872
27579WAT      O82978   6.874   6.397   7.974
27579WAT     H182979   6.882   6.466   8.046
27579WAT     H282980   6.964   6.380   7.934
27580WAT      O82981   7.666   8.715   4.943
27580WAT     H182982   7.611   8.633   4.957
27580WAT     H282983   7.691   8.755   5.031
27581WAT      O82984   5.540   8.361   8.253
27581WAT     H182985   5.520   8.263   8.258
27581WAT     H282986   5.476   8.411   8.311
27582WAT      O82987   8.940   7.866   7.990
27582WAT     H182988   8.948   7.848   7.892
27582WAT     H282989   8.998   7.944   8.015
27583WAT      O82990   8.609   2.047   5.676
27583WAT     H182991   8.521   2.015   5.712
27583WAT     H282992   8.683   2.009   5.731
27584WAT      O82993   7.383   8.086   0.834
27584WAT     H182994   7.363   8.009   0.774
27584WAT     H282995   7.418   8.052   0.921
27585WAT      O82996   4.840   3.660   8.069
27585WAT     H182997   4.853   3.564   8.043
27585WAT     H282998   4.879   3.675   8.160
27586WAT      O82999   6.511   0.332   7.284
27586WAT     H183000   6.497   0.307   7.379
27586WAT     H283001   6.426   0.369   7.246
27587WAT      O83002   6.913   8.236   9.139
27587WAT     H183003   6.937   8.142   9.165
27587WAT     H283004   6.845   8.272   9.202
27588WAT      O83005   5.086   1.586   1.343
27588WAT     H183006   5.020   1.533   1.397
27588WAT     H283007   5.173   1.537   1.339
27589WAT      O83008   1.933   9.367   0.142
27589WAT     H183009   1.859   9.308   0.111
27589WAT     H283010   2.013   9.353   0.083
27590WAT      O83011   0.192   3.178   1.171
27590WAT     H183012   0.183   3.277   1.156
27590WAT     H283013   0.137   3.152   1.251
27591WAT      O83014   5.571   3.584   0.051
27591WAT     H183015   5.499   3.602   0.117
27591WAT     H283016   5.649   3.644   0.070
27592WAT      O83017   5.178   3.160   3.420
27592WAT     H183018   5.105   3.221   3.389
27592WAT     H283019   5.259   3.173   3.364
27593WAT      O83020   1.800   4.624   4.693
27593WAT     H183021   1.732   4.621   4.766
27593WAT     H283022   1.767   4.683   4.619
27594WAT      O83023   6.219   2.106   1.523
27594WAT     H183024   6.206   2.026   1.582
27594WAT     H283025   6.315   2.133   1.523
27595WAT      O83026   7.483   2.270   2.245
27595WAT     H183027   7.456   2.231   2.157
27595WAT     H283028   7.557   2.336   2.231
27596WAT      O83029   3.002   5.826   9.075
27596WAT     H183030   3.046   5.817   8.986
27596WAT     H283031   3.008   5.921   9.106
27597WAT      O83032   2.694   2.920   9.559
27597WAT     H183033   2.737   3.010   9.574
27597WAT     H283034   2.595   2.928   9.569
27598WAT      O83035   1.143   3.391   4.931
27598WAT     H183036   1.176   3.427   5.018
27598WAT     H283037   1.146   3.463   4.862
27599WAT      O83038   5.593   2.924   2.112
27599WAT     H183039   5.662   2.855   2.137
27599WAT     H283040   5.502   2.888   2.131
27600WAT      O83041   2.746   0.786   5.363
27600WAT     H183042   2.713   0.693   5.382
27600WAT     H283043   2.815   0.782   5.291
27601WAT      O83044   3.259   6.730   9.710
27601WAT     H183045   3.210   6.645   9.731
27601WAT     H283046   3.339   6.738   9.770
27602WAT      O83047   6.651   9.026   6.445
27602WAT     H183048   6.606   9.024   6.355
27602WAT     H283049   6.747   9.052   6.433
27603WAT      O83050   0.823   8.861   2.684
27603WAT     H183051   0.812   8.960   2.678
27603WAT     H283052   0.785   8.830   2.771
27604WAT      O83053   2.452   6.599   8.769
27604WAT     H183054   2.503   6.515   8.779
27604WAT     H283055   2.375   6.600   8.833
27605WAT      O83056   8.546   9.347   9.623
27605WAT     H183057   8.508   9.353   9.715
27605WAT     H283058   8.608   9.425   9.607
27606WAT      O83059   7.251   2.434   2.349
27606WAT     H183060   7.259   2.495   2.428
27606WAT     H283061   7.341   2.398   2.325
27607WAT      O83062   7.598   3.074   9.666
27607WAT     H183063   7.510   3.038   9.698
27607WAT     H283064   7.671   3.036   9.722
27608WAT      O83065   5.951   6.865   1.871
27608WAT     H183066   5.929   6.790   1.934
27608WAT     H283067   6.034   6.842   1.820
27609WAT      O83068   8.691   0.786   1.306
27609WAT     H183069   8.641   0.774   1.392
27609WAT     H283070   8.755   0.710   1.294
27610WAT      O83071   5.654   3.791   5.752
27610WAT     H183072   5.590   3.867   5.745
27610WAT     H283073   5.726   3.815   5.818
27611WAT      O83074   2.842   7.925   0.760
27611WAT     H183075   2.789   8.007   0.784
27611WAT     H283076   2.780   7.848   0.745
27612WAT      O83077   1.278   2.399   1.365
27612WAT     H183078   1.243   2.386   1.272
27612WAT     H283079   1.250   2.321   1.422
27613WAT      O83080   7.146   5.043   1.274
27613WAT     H183081   7.225   5.100   1.252
27613WAT     H283082   7.080   5.096   1.327
27614WAT      O83083   1.458   2.136   2.437
27614WAT     H183084   1.475   2.103   2.344
27614WAT     H283085   1.359   2.149   2.450
27615WAT      O83086   4.862   7.372   1.230
27615WAT     H183087   4.952   7.334   1.211
27615WAT     H283088   4.854   7.463   1.190
27616WAT      O83089   2.255   8.319   6.750
27616WAT     H183090   2.198   8.342   6.829
27616WAT     H283091   2.269   8.401   6.694
27617WAT      O83092   8.884   2.669   5.766
27617WAT     H183093   8.947   2.737   5.805
27617WAT     H283094   8.867   2.597   5.833
27618WAT      O83095   1.773   7.095   9.804
27618WAT     H183096   1.809   7.153   9.731
27618WAT     H283097   1.690   7.049   9.773
27619WAT      O83098   0.963   5.451   9.695
27619WAT     H183099   0.925   5.530   9.743
27619WAT     H283100   0.891   5.409   9.639
27620WAT      O83101   3.224   7.883   5.633
27620WAT     H183102   3.305   7.940   5.620
27620WAT     H283103   3.238   7.823   5.712
27621WAT      O83104   3.559   0.624   5.546
27621WAT     H183105   3.575   0.666   5.457
27621WAT     H283106   3.624   0.661   5.612
27622WAT      O83107   6.438   8.193   7.269
27622WAT     H183108   6.454   8.096   7.251
27622WAT     H283109   6.513   8.246   7.231
27623WAT      O83110   1.423   6.647   7.731
27623WAT     H183111   1.469   6.561   7.708
27623WAT     H283112   1.333   6.649   7.687
27624WAT      O83113   8.671   4.416   7.171
27624WAT     H183114   8.615   4.335   7.156
27624WAT     H283115   8.624   4.496   7.134
27625WAT      O83116   8.198   5.162   2.324
27625WAT     H183117   8.155   5.072   2.316
27625WAT     H283118   8.283   5.155   2.375
27626WAT      O83119   8.089   7.868   7.851
27626WAT     H183120   8.043   7.956   7.841
27626WAT     H283121   8.022   7.793   7.842
27627WAT      O83122   7.587   1.913   0.730
27627WAT     H183123   7.566   2.000   0.775
27627WAT     H283124   7.673   1.878   0.766
27628WAT      O83125   5.128   5.318   3.701
27628WAT     H183126   5.148   5.221   3.686
27628WAT     H283127   5.213   5.370   3.703
27629WAT      O83128   2.122   0.212   7.394
27629WAT     H183129   2.120   0.128   7.448
27629WAT     H283130   2.119   0.189   7.296
27630WAT      O83131   3.731   5.061   2.203
27630WAT     H183132   3.714   5.118   2.123
27630WAT     H283133   3.737   5.118   2.285
27631WAT      O83134   8.225   8.101   7.991
27631WAT     H183135   8.219   8.084   7.893
27631WAT     H283136   8.311   8.062   8.026
27632WAT      O83137   0.183   8.597   2.986
27632WAT     H183138   0.232   8.515   2.958
27632WAT     H283139   0.161   8.591   3.084
27633WAT      O83140   2.302   6.767   9.073
27633WAT     H183141   2.221   6.714   9.098
27633WAT     H283142   2.294   6.798   8.978
27634WAT      O83143   7.312   1.321   6.701
27634WAT     H183144   7.396   1.280   6.736
27634WAT     H283145   7.258   1.251   6.653
27635WAT      O83146   2.753   6.597   8.408
27635WAT     H183147   2.785   6.552   8.325
27635WAT     H283148   2.749   6.530   8.483
27636WAT      O83149   5.346   2.596   1.282
27636WAT     H183150   5.445   2.597   1.273
27636WAT     H283151   5.305   2.659   1.216
27637WAT      O83152   7.421   4.288   4.386
27637WAT     H183153   7.393   4.384   4.382
27637WAT     H283154   7.484   4.274   4.462
27638WAT      O83155   4.338   3.338   1.508
27638WAT     H183156   4.339   3.275   1.585
27638WAT     H283157   4.343   3.286   1.422
27639WAT      O83158   2.624   9.784   4.186
27639WAT     H183159   2.582   9.768   4.096
27639WAT     H283160   2.663   9.699   4.220
27640WAT      O83161   4.142   8.674   0.748
27640WAT     H183162   4.155   8.580   0.780
27640WAT     H283163   4.075   8.720   0.806
27641WAT      O83164   6.962   2.236   8.073
27641WAT     H183165   6.879   2.287   8.051
27641WAT     H283166   7.003   2.272   8.158
27642WAT      O83167   9.341   3.297   4.366
27642WAT     H183168   9.268   3.331   4.306
27642WAT     H283169   9.308   3.216   4.415
27643WAT      O83170   7.724   4.657   2.911
27643WAT     H183171   7.819   4.649   2.882
27643WAT     H283172   7.668   4.594   2.857
27644WAT      O83173   6.259   0.077   7.482
27644WAT     H183174   6.181   0.123   7.440
27644WAT     H283175   6.305   0.021   7.413
27645WAT      O83176   6.596   0.722   3.908
27645WAT     H183177   6.588   0.798   3.843
27645WAT     H283178   6.616   0.759   3.999
27646WAT      O83179   8.585   8.591   1.184
27646WAT     H183180   8.534   8.548   1.110
27646WAT     H283181   8.522   8.623   1.254
27647WAT      O83182   5.717   7.603   1.865
27647WAT     H183183   5.710   7.538   1.941
27647WAT     H283184   5.632   7.655   1.857
27648WAT      O83185   8.912   1.149   7.855
27648WAT     H183186   8.977   1.212   7.812
27648WAT     H283187   8.909   1.064   7.802
27649WAT      O83188   0.506   8.878   8.041
27649WAT     H183189   0.543   8.967   8.014
27649WAT     H283190   0.535   8.857   8.134
27650WAT      O83191   1.621   1.510   5.571
27650WAT     H183192   1.589   1.521   5.477
27650WAT     H283193   1.719   1.532   5.576
27651WAT      O83194   2.735   3.282   6.168
27651WAT     H183195   2.692   3.218   6.104
27651WAT     H283196   2.701   3.264   6.260
27652WAT      O83197   8.094   9.792   2.003
27652WAT     H183198   8.160   9.867   2.009
27652WAT     H283199   8.115   9.723   2.072
27653WAT      O83200   6.165   7.556   4.524
27653WAT     H183201   6.144   7.564   4.622
27653WAT     H283202   6.263   7.539   4.512
27654WAT      O83203   3.975   2.297   0.829
27654WAT     H183204   3.930   2.381   0.800
27654WAT     H283205   3.937   2.266   0.915
27655WAT      O83206   8.772   8.303   0.511
27655WAT     H183207   8.859   8.348   0.491
27655WAT     H283208   8.782   8.204   0.504
27656WAT      O83209   5.929   8.191   3.564
27656WAT     H183210   5.921   8.119   3.496
27656WAT     H283211   5.861   8.176   3.636
27657WAT      O83212   9.359   4.531   6.153
27657WAT     H183213   9.397   4.444   6.123
27657WAT     H283214   9.396   4.553   6.244
27658WAT      O83215   5.223   0.223   9.400
27658WAT     H183216   5.282   0.303   9.395
27658WAT     H283217   5.140   0.239   9.346
27659WAT      O83218   6.899   6.089   8.669
27659WAT     H183219   6.881   6.157   8.599
27659WAT     H283220   6.971   6.122   8.731
27660WAT      O83221   3.255   6.908   7.925
27660WAT     H183222   3.229   6.928   8.020
27660WAT     H283223   3.326   6.838   7.925
27661WAT      O83224   1.905   5.580   5.132
27661WAT     H183225   1.919   5.656   5.068
27661WAT     H283226   1.853   5.508   5.086
27662WAT      O83227   2.087   8.947   8.144
27662WAT     H183228   2.080   9.044   8.122
27662WAT     H283229   2.179   8.914   8.125
27663WAT      O83230   0.460   3.720   6.984
27663WAT     H183231   0.542   3.673   6.951
27663WAT     H283232   0.442   3.800   6.927
27664WAT      O83233   3.547   4.749   9.202
27664WAT     H183234   3.549   4.733   9.104
27664WAT     H283235   3.561   4.847   9.220
27665WAT      O83236   8.766   4.836   8.739
27665WAT     H183237   8.692   4.846   8.806
27665WAT     H283238   8.766   4.915   8.678
27666WAT      O83239   9.138   6.445   3.801
27666WAT     H183240   9.138   6.545   3.801
27666WAT     H283241   9.233   6.413   3.806
27667WAT      O83242   3.247   6.329   4.095
27667WAT     H183243   3.222   6.347   4.000
27667WAT     H283244   3.338   6.366   4.114
27668WAT      O83245   9.230   9.392   5.698
27668WAT     H183246   9.241   9.487   5.668
27668WAT     H283247   9.254   9.331   5.623
27669WAT      O83248   9.341   8.885   0.847
27669WAT     H183249   9.336   8.823   0.925
27669WAT     H283250   9.431   8.928   0.844
27670WAT      O83251   6.430   8.909   9.606
27670WAT     H183252   6.497   8.856   9.555
27670WAT     H283253   6.430   8.881   9.702
27671WAT      O83254   5.851   0.645   0.759
27671WAT     H183255   5.755   0.623   0.742
27671WAT     H283256   5.907   0.562   0.751
27672WAT      O83257   7.464   0.843   4.628
27672WAT     H183258   7.549   0.791   4.617
27672WAT     H283259   7.473   0.932   4.585
27673WAT      O83260   2.900   6.457   0.675
27673WAT     H183261   2.804   6.430   0.683
27673WAT     H283262   2.911   6.550   0.708
27674WAT      O83263   0.116   2.627   1.910
27674WAT     H183264   0.173   2.681   1.971
27674WAT     H283265   0.104   2.676   1.823
27675WAT      O83266   4.107   6.697   8.824
27675WAT     H183267   4.140   6.778   8.874
27675WAT     H283268   4.185   6.649   8.784
27676WAT      O83269   6.015   4.794   2.449
27676WAT     H183270   6.100   4.742   2.461
27676WAT     H283271   6.027   4.886   2.484
27677WAT      O83272   1.549   3.586   5.821
27677WAT     H183273   1.615   3.538   5.879
27677WAT     H283274   1.502   3.520   5.763
27678WAT      O83275   7.377   0.261   5.028
27678WAT     H183276   7.379   0.188   5.095
27678WAT     H283277   7.351   0.224   4.939
27679WAT      O83278   4.429   0.242   8.549
27679WAT     H183279   4.439   0.238   8.449
27679WAT     H283280   4.389   0.156   8.581
27680WAT      O83281   2.771   3.870   3.573
27680WAT     H183282   2.682   3.906   3.544
27680WAT     H283283   2.810   3.815   3.499
27681WAT      O83284   1.639   5.537   6.957
27681WAT     H183285   1.683   5.451   6.985
27681WAT     H283286   1.540   5.526   6.964
27682WAT      O83287   9.800   7.758   8.757
27682WAT     H183288   9.743   7.835   8.730
27682WAT     H283289   9.860   7.732   8.681
27683WAT      O83290   5.781   5.546   9.097
27683WAT     H183291   5.688   5.567   9.064
27683WAT     H283292   5.778   5.529   9.195
27684WAT      O83293   1.803   8.390   6.510
27684WAT     H183294   1.841   8.438   6.431
27684WAT     H283295   1.791   8.293   6.488
27685WAT      O83296   2.796   2.245   1.486
27685WAT     H183297   2.814   2.222   1.391
27685WAT     H283298   2.708   2.207   1.514
27686WAT      O83299   2.688   7.008   3.613
27686WAT     H183300   2.692   6.953   3.529
27686WAT     H283301   2.738   7.094   3.599
27687WAT      O83302   4.990   9.705   2.231
27687WAT     H183303   5.020   9.609   2.239
27687WAT     H283304   5.067   9.765   2.252
27688WAT      O83305   4.567   9.187   2.462
27688WAT     H183306   4.528   9.096   2.479
27688WAT     H283307   4.573   9.203   2.364
27689WAT      O83308   8.360   0.366   9.709
27689WAT     H183309   8.364   0.423   9.791
27689WAT     H283310   8.374   0.422   9.628
27690WAT      O83311   5.711   6.586   5.415
27690WAT     H183312   5.787   6.564   5.476
27690WAT     H283313   5.634   6.524   5.433
27691WAT      O83314   3.246   2.056   7.328
27691WAT     H183315   3.267   2.078   7.233
27691WAT     H283316   3.169   2.113   7.359
27692WAT      O83317   3.758   8.424   9.726
27692WAT     H183318   3.817   8.458   9.798
27692WAT     H283319   3.759   8.488   9.648
27693WAT      O83320   8.382   6.671   3.763
27693WAT     H183321   8.382   6.717   3.852
27693WAT     H283322   8.313   6.712   3.704
27694WAT      O83323   6.856   9.732   3.285
27694WAT     H183324   6.789   9.658   3.289
27694WAT     H283325   6.856   9.771   3.193
27695WAT      O83326   2.835   2.104   7.131
27695WAT     H183327   2.903   2.176   7.118
27695WAT     H283328   2.880   2.015   7.129
27696WAT      O83329   8.813   7.248   5.722
27696WAT     H183330   8.896   7.213   5.765
27696WAT     H283331   8.821   7.240   5.622
27697WAT      O83332   8.787   4.963   9.534
27697WAT     H183333   8.852   5.029   9.497
27697WAT     H283334   8.825   4.871   9.529
27698WAT      O83335   7.081   1.974   4.759
27698WAT     H183336   7.055   1.974   4.662
27698WAT     H283337   7.008   2.013   4.814
27699WAT      O83338   2.723   8.664   4.115
27699WAT     H183339   2.697   8.653   4.211
27699WAT     H283340   2.705   8.759   4.086
27700WAT      O83341   2.027   7.671   8.007
27700WAT     H183342   2.008   7.574   7.992
27700WAT     H283343   1.969   7.726   7.948
27701WAT      O83344   6.126   9.299   2.004
27701WAT     H183345   6.046   9.276   1.948
27701WAT     H283346   6.203   9.323   1.945
27702WAT      O83347   1.775   7.031   1.792
27702WAT     H183348   1.720   6.953   1.822
27702WAT     H283349   1.732   7.116   1.821
27703WAT      O83350   3.827   3.627   5.303
27703WAT     H183351   3.835   3.717   5.345
27703WAT     H283352   3.745   3.581   5.339
27704WAT      O83353   9.360   0.693   2.828
27704WAT     H183354   9.414   0.609   2.823
27704WAT     H283355   9.267   0.674   2.798
27705WAT      O83356   3.988   3.172   6.924
27705WAT     H183357   4.014   3.268   6.911
27705WAT     H283358   4.069   3.115   6.919
27706WAT      O83359   4.849   4.355   7.635
27706WAT     H183360   4.771   4.342   7.696
27706WAT     H283361   4.921   4.405   7.684
27707WAT      O83362   7.618   3.380   5.082
27707WAT     H183363   7.614   3.291   5.128
27707WAT     H283364   7.713   3.403   5.061
27708WAT      O83365   3.481   9.297   9.000
27708WAT     H183366   3.558   9.345   8.957
27708WAT     H283367   3.452   9.348   9.081
27709WAT      O83368   3.243   9.249   3.868
27709WAT     H183369   3.168   9.285   3.923
27709WAT     H283370   3.207   9.181   3.804
27710WAT      O83371   9.772   1.370   0.393
27710WAT     H183372   9.837   1.446   0.388
27710WAT     H283373   9.772   1.320   0.307
27711WAT      O83374   3.963   9.745   7.259
27711WAT     H183375   3.897   9.761   7.185
27711WAT     H283376   4.019   9.827   7.270
27712WAT      O83377   6.464   7.630   6.643
27712WAT     H183378   6.507   7.691   6.577
27712WAT     H283379   6.533   7.596   6.707
27713WAT      O83380   8.404   2.053   5.187
27713WAT     H183381   8.350   1.970   5.195
27713WAT     H283382   8.413   2.096   5.277
27714WAT      O83383   5.918   3.461   5.971
27714WAT     H183384   5.831   3.465   6.021
27714WAT     H283385   5.952   3.367   5.972
27715WAT      O83386   3.461   0.646   1.038
27715WAT     H183387   3.526   0.626   0.965
27715WAT     H283388   3.509   0.693   1.112
27716WAT      O83389   8.946   4.601   6.117
27716WAT     H183390   8.992   4.564   6.036
27716WAT     H283391   8.947   4.534   6.191
27717WAT      O83392   5.337   5.413   0.036
27717WAT     H183393   5.368   5.487   0.096
27717WAT     H283394   5.411   5.386  -0.025
27718WAT      O83395   1.610   1.533   0.246
27718WAT     H183396   1.629   1.459   0.310
27718WAT     H283397   1.636   1.505   0.154
27719WAT      O83398   6.666   5.853   2.943
27719WAT     H183399   6.602   5.841   2.867
27719WAT     H283400   6.670   5.768   2.996
27720WAT      O83401   4.281   8.727   8.057
27720WAT     H183402   4.328   8.791   8.119
27720WAT     H283403   4.241   8.778   7.981
27721WAT      O83404   1.592   4.340   2.979
27721WAT     H183405   1.540   4.258   2.957
27721WAT     H283406   1.540   4.396   3.043
27722WAT      O83407   5.650   4.617   3.176
27722WAT     H183408   5.555   4.634   3.152
27722WAT     H283409   5.665   4.519   3.187
27723WAT      O83410   9.052   8.044   4.595
27723WAT     H183411   8.981   8.113   4.585
27723WAT     H283412   9.097   8.028   4.507
27724WAT      O83413   1.682   5.177   5.651
27724WAT     H183414   1.746   5.166   5.727
27724WAT     H283415   1.588   5.174   5.685
27725WAT      O83416   1.002   4.935   5.570
27725WAT     H183417   1.017   4.843   5.533
27725WAT     H283418   1.035   4.938   5.664
27726WAT      O83419   1.735   0.949   7.020
27726WAT     H183420   1.730   1.017   6.947
27726WAT     H283421   1.693   0.864   6.988
27727WAT      O83422   8.060   5.264   4.814
27727WAT     H183423   8.126   5.196   4.846
27727WAT     H283424   8.022   5.312   4.893
27728WAT      O83425   8.703   3.717   2.232
27728WAT     H183426   8.709   3.644   2.300
27728WAT     H283427   8.794   3.739   2.198
27729WAT      O83428   9.317   0.458   5.668
27729WAT     H183429   9.308   0.558   5.666
27729WAT     H283430   9.408   0.433   5.637
27730WAT      O83431   1.094   8.500   0.799
27730WAT     H183432   1.168   8.506   0.732
27730WAT     H283433   1.082   8.405   0.827
27731WAT      O83434   5.978   7.778   0.103
27731WAT     H183435   5.895   7.816   0.063
27731WAT     H283436   6.022   7.717   0.037
27732WAT      O83437   4.572   2.868   3.722
27732WAT     H183438   4.601   2.840   3.814
27732WAT     H283439   4.618   2.953   3.697
27733WAT      O83440   1.496   9.104   6.245
27733WAT     H183441   1.470   9.091   6.341
27733WAT     H283442   1.535   9.196   6.234
27734WAT      O83443   7.307   9.382   3.002
27734WAT     H183444   7.319   9.420   3.093
27734WAT     H283445   7.278   9.455   2.939
27735WAT      O83446   7.124   8.337   1.110
27735WAT     H183447   7.086   8.253   1.148
27735WAT     H283448   7.209   8.360   1.158
27736WAT      O83449   1.723   7.916   1.536
27736WAT     H183450   1.712   7.905   1.437
27736WAT     H283451   1.753   8.009   1.556
27737WAT      O83452   2.488   2.337   7.721
27737WAT     H183453   2.536   2.356   7.635
27737WAT     H283454   2.396   2.377   7.716
27738WAT      O83455   2.459   6.609   5.217
27738WAT     H183456   2.365   6.600   5.249
27738WAT     H283457   2.522   6.584   5.291
27739WAT      O83458   5.591   0.884   6.024
27739WAT     H183459   5.523   0.950   5.990
27739WAT     H283460   5.675   0.933   6.048
27740WAT      O83461   6.688   6.745   5.614
27740WAT     H183462   6.670   6.759   5.516
27740WAT     H283463   6.608   6.774   5.667
27741WAT      O83464   7.439   3.416   4.863
27741WAT     H183465   7.356   3.361   4.865
27741WAT     H283466   7.485   3.410   4.951
27742WAT      O83467   2.261   5.842   7.883
27742WAT     H183468   2.268   5.941   7.886
27742WAT     H283469   2.244   5.812   7.790
27743WAT      O83470   3.748   4.459   9.774
27743WAT     H183471   3.839   4.456   9.732
27743WAT     H283472   3.757   4.488   9.870
27744WAT      O83473   2.690   7.461   7.287
27744WAT     H183474   2.619   7.401   7.249
27744WAT     H283475   2.758   7.405   7.335
27745WAT      O83476   8.590   2.287   9.267
27745WAT     H183477   8.624   2.354   9.333
27745WAT     H283478   8.616   2.195   9.297
27746WAT      O83479   1.098   9.239   6.030
27746WAT     H183480   1.090   9.325   6.079
27746WAT     H283481   1.057   9.249   5.939
27747WAT      O83482   8.410   2.459   3.230
27747WAT     H183483   8.374   2.551   3.247
27747WAT     H283484   8.370   2.395   3.295
27748WAT      O83485   1.753   5.940   7.807
27748WAT     H183486   1.704   5.992   7.738
27748WAT     H283487   1.830   5.892   7.764
27749WAT      O83488   6.708   3.884   9.869
27749WAT     H183489   6.626   3.926   9.907
27749WAT     H283490   6.749   3.945   9.801
27750WAT      O83491   1.344   3.816   7.899
27750WAT     H183492   1.356   3.867   7.984
27750WAT     H283493   1.281   3.740   7.915
27751WAT      O83494   1.328   3.349   6.509
27751WAT     H183495   1.275   3.279   6.460
27751WAT     H283496   1.266   3.420   6.541
27752WAT      O83497   4.893   5.187   6.377
27752WAT     H183498   4.915   5.259   6.443
27752WAT     H283499   4.809   5.210   6.328
27753WAT      O83500   7.651   4.163   5.355
27753WAT     H183501   7.723   4.161   5.286
27753WAT     H283502   7.568   4.203   5.315
27754WAT      O83503   1.301   4.378   8.805
27754WAT     H183504   1.298   4.450   8.874
27754WAT     H283505   1.242   4.302   8.834
27755WAT      O83506   6.073   7.821   3.414
27755WAT     H183507   6.129   7.738   3.411
27755WAT     H283508   6.120   7.891   3.468
27756WAT      O83509   1.782   9.206   5.139
27756WAT     H183510   1.850   9.277   5.118
27756WAT     H283511   1.808   9.120   5.094
27757WAT      O83512   1.109   9.601   7.054
27757WAT     H183513   1.151   9.640   7.137
27757WAT     H283514   1.030   9.655   7.028
27758WAT      O83515   6.445   1.916   7.506
27758WAT     H183516   6.512   1.946   7.575
27758WAT     H283517   6.493   1.897   7.420
27759WAT      O83518   5.726   9.055   0.803
27759WAT     H183519   5.741   8.977   0.742
27759WAT     H283520   5.806   9.115   0.802
27760WAT      O83521   3.153   9.685   6.048
27760WAT     H183522   3.159   9.783   6.027
27760WAT     H283523   3.081   9.644   5.992
27761WAT      O83524   9.062   9.344   3.893
27761WAT     H183525   9.063   9.439   3.925
27761WAT     H283526   8.992   9.334   3.822
27762WAT      O83527   5.884   6.262   8.825
27762WAT     H183528   5.922   6.336   8.881
27762WAT     H283529   5.957   6.196   8.803
27763WAT      O83530   6.265   7.378   9.317
27763WAT     H183531   6.269   7.478   9.317
27763WAT     H283532   6.358   7.341   9.321
27764WAT      O83533   0.860   7.034   7.519
27764WAT     H183534   0.839   6.993   7.608
27764WAT     H283535   0.947   7.083   7.525
27765WAT      O83536   7.369   1.090   5.031
27765WAT     H183537   7.306   1.132   4.966
27765WAT     H283538   7.396   0.999   4.997
27766WAT      O83539   7.627   6.944   5.796
27766WAT     H183540   7.687   6.907   5.725
27766WAT     H283541   7.643   7.042   5.805
27767WAT      O83542   9.304   2.656   3.168
27767WAT     H183543   9.347   2.668   3.258
27767WAT     H283544   9.225   2.595   3.177
27768WAT      O83545   9.383   9.373   9.761
27768WAT     H183546   9.452   9.404   9.694
27768WAT     H283547   9.347   9.452   9.810
27769WAT      O83548   0.713   1.494   0.843
27769WAT     H183549   0.664   1.538   0.767
27769WAT     H283550   0.809   1.520   0.841
27770WAT      O83551   2.859   9.425   2.790
27770WAT     H183552   2.773   9.375   2.798
27770WAT     H283553   2.916   9.382   2.720
27771WAT      O83554   9.415   2.798   1.795
27771WAT     H183555   9.339   2.743   1.830
27771WAT     H283556   9.485   2.738   1.757
27772WAT      O83557   1.861   9.820   4.269
27772WAT     H183558   1.927   9.752   4.301
27772WAT     H283559   1.797   9.776   4.206
27773WAT      O83560   3.982   8.046   5.440
27773WAT     H183561   3.986   8.091   5.350
27773WAT     H283562   4.073   8.046   5.481
27774WAT      O83563   6.431   4.180   8.927
27774WAT     H183564   6.502   4.245   8.899
27774WAT     H283565   6.416   4.114   8.853
27775WAT      O83566   8.097   8.797   5.566
27775WAT     H183567   8.179   8.779   5.511
27775WAT     H283568   8.114   8.773   5.661
27776WAT      O83569   1.562   5.875   9.891
27776WAT     H183570   1.643   5.858   9.835
27776WAT     H283571   1.490   5.914   9.835
27777WAT      O83572   2.502   0.805   4.784
27777WAT     H183573   2.476   0.758   4.700
27777WAT     H283574   2.459   0.895   4.787
27778WAT      O83575   9.380   8.919   7.202
27778WAT     H183576   9.457   8.861   7.228
27778WAT     H283577   9.375   8.997   7.264
27779WAT      O83578   1.981   1.817   6.201
27779WAT     H183579   2.042   1.852   6.272
27779WAT     H283580   1.911   1.886   6.180
27780WAT      O83581   2.662   7.723   7.640
27780WAT     H183582   2.607   7.685   7.566
27780WAT     H283583   2.746   7.669   7.650
27781WAT      O83584   1.532   6.335   9.731
27781WAT     H183585   1.446   6.292   9.757
27781WAT     H283586   1.605   6.266   9.732
27782WAT      O83587   9.352   4.982   3.112
27782WAT     H183588   9.403   4.896   3.119
27782WAT     H283589   9.371   5.038   3.193
27783WAT      O83590   1.202   2.436   8.572
27783WAT     H183591   1.211   2.339   8.594
27783WAT     H283592   1.240   2.491   8.646
27784WAT      O83593   9.848   5.601   9.415
27784WAT     H183594   9.870   5.689   9.457
27784WAT     H283595   9.932   5.555   9.387
27785WAT      O83596   5.860   4.959   9.843
27785WAT     H183597   5.761   4.953   9.852
27785WAT     H283598   5.899   4.987   9.931
27786WAT      O83599   3.181   6.544   8.137
27786WAT     H183600   3.255   6.607   8.114
27786WAT     H283601   3.192   6.515   8.232
27787WAT      O83602   9.439   0.125   9.462
27787WAT     H183603   9.350   0.163   9.439
27787WAT     H283604   9.499   0.131   9.382
27788WAT      O83605   9.129   7.786   5.028
27788WAT     H183606   9.047   7.817   4.980
27788WAT     H283607   9.125   7.687   5.041
27789WAT      O83608   4.046   8.921   4.130
27789WAT     H183609   3.990   8.840   4.113
27789WAT     H283610   3.987   9.000   4.145
27790WAT      O83611   7.782   1.886   5.446
27790WAT     H183612   7.876   1.889   5.480
27790WAT     H283613   7.756   1.975   5.410
27791WAT      O83614   1.504   8.328   3.666
27791WAT     H183615   1.508   8.383   3.750
27791WAT     H283616   1.573   8.360   3.602
27792WAT      O83617   2.625   1.285   9.014
27792WAT     H183618   2.611   1.255   8.920
27792WAT     H283619   2.627   1.205   9.074
27793WAT      O83620   1.224   3.991   0.979
27793WAT     H183621   1.317   4.023   1.000
27793WAT     H283622   1.217   3.894   1.002
27794WAT      O83623   8.318   4.734   0.088
27794WAT     H183624   8.228   4.773   0.103
27794WAT     H283625   8.386   4.785   0.141
27795WAT      O83626   3.036   2.141   3.501
27795WAT     H183627   2.989   2.202   3.564
27795WAT     H283628   3.004   2.047   3.516
27796WAT      O83629   5.292   3.996   0.549
27796WAT     H183630   5.286   3.898   0.530
27796WAT     H283631   5.346   4.010   0.632
27797WAT      O83632   5.880   5.426   0.922
27797WAT     H183633   5.837   5.337   0.936
27797WAT     H283634   5.842   5.468   0.839
27798WAT      O83635   6.851   9.730   5.247
27798WAT     H183636   6.820   9.657   5.309
27798WAT     H283637   6.831   9.819   5.287
27799WAT      O83638   0.025   3.006   6.107
27799WAT     H183639  -0.032   3.066   6.163
27799WAT     H283640   0.117   3.002   6.146
27800WAT      O83641   7.822   1.141   0.034
27800WAT     H183642   7.784   1.050   0.050
27800WAT     H283643   7.859   1.177   0.120
27801WAT      O83644   1.988   0.861   1.138
27801WAT     H183645   2.047   0.941   1.126
27801WAT     H283646   1.904   0.873   1.085
27802WAT      O83647   2.995   2.187   2.253
27802WAT     H183648   3.065   2.131   2.208
27802WAT     H283649   2.947   2.131   2.321
27803WAT      O83650   7.223   6.098   7.150
27803WAT     H183651   7.156   6.082   7.222
27803WAT     H283652   7.186   6.068   7.062
27804WAT      O83653   6.210   5.925   2.247
27804WAT     H183654   6.171   6.016   2.230
27804WAT     H283655   6.283   5.932   2.315
27805WAT      O83656   3.828   8.194   6.392
27805WAT     H183657   3.812   8.207   6.490
27805WAT     H283658   3.767   8.123   6.358
27806WAT      O83659   5.887   1.145   9.524
27806WAT     H183660   5.867   1.056   9.564
27806WAT     H283661   5.967   1.137   9.463
27807WAT      O83662   1.586   9.287   1.597
27807WAT     H183663   1.495   9.297   1.556
27807WAT     H283664   1.584   9.214   1.665
27808WAT      O83665   1.140   0.610   7.981
27808WAT     H183666   1.169   0.531   7.926
27808WAT     H283667   1.207   0.683   7.972
27809WAT      O83668   7.020   3.225   6.762
27809WAT     H183669   6.926   3.248   6.736
27809WAT     H283670   7.084   3.266   6.697
27810WAT      O83671   5.913   2.966   2.983
27810WAT     H183672   5.860   2.982   2.900
27810WAT     H283673   6.006   2.999   2.970
27811WAT      O83674   4.315   7.373   9.491
27811WAT     H183675   4.323   7.352   9.393
27811WAT     H283676   4.232   7.427   9.506
27812WAT      O83677   8.164   7.993   8.882
27812WAT     H183678   8.117   8.058   8.941
27812WAT     H283679   8.250   8.034   8.849
27813WAT      O83680   1.174   6.354   6.459
27813WAT     H183681   1.128   6.339   6.372
27813WAT     H283682   1.236   6.432   6.450
27814WAT      O83683   2.501   9.217   5.949
27814WAT     H183684   2.463   9.146   5.889
27814WAT     H283685   2.592   9.243   5.916
27815WAT      O83686   4.669   1.397   8.394
27815WAT     H183687   4.608   1.416   8.317
27815WAT     H283688   4.646   1.309   8.434
27816WAT      O83689   2.126   3.425   4.102
27816WAT     H183690   2.080   3.336   4.101
27816WAT     H283691   2.147   3.453   4.008
27817WAT      O83692   7.207   5.087   9.887
27817WAT     H183693   7.115   5.048   9.891
27817WAT     H283694   7.255   5.067   9.973
27818WAT      O83695   6.012   2.125   5.874
27818WAT     H183696   5.932   2.134   5.935
27818WAT     H283697   6.094   2.155   5.923
27819WAT      O83698   0.645   1.035   4.369
27819WAT     H183699   0.610   0.979   4.294
27819WAT     H283700   0.745   1.028   4.373
27820WAT      O83701   5.511   2.765   6.601
27820WAT     H183702   5.463   2.723   6.678
27820WAT     H283703   5.545   2.694   6.539
27821WAT      O83704   8.893   3.254   1.070
27821WAT     H183705   8.883   3.220   1.164
27821WAT     H283706   8.937   3.183   1.015
27822WAT      O83707   3.132   7.738   3.943
27822WAT     H183708   3.084   7.703   4.024
27822WAT     H283709   3.192   7.814   3.970
27823WAT      O83710   4.735   5.982   6.716
27823WAT     H183711   4.702   5.899   6.671
27823WAT     H283712   4.811   5.959   6.777
27824WAT      O83713   0.824   8.528   4.661
27824WAT     H183714   0.903   8.584   4.637
27824WAT     H283715   0.800   8.543   4.757
27825WAT      O83716   8.690   8.701   5.509
27825WAT     H183717   8.768   8.761   5.490
27825WAT     H283718   8.646   8.676   5.423
27826WAT      O83719   9.284   2.075   1.517
27826WAT     H183720   9.194   2.032   1.513
27826WAT     H283721   9.333   2.058   1.431
27827WAT      O83722   1.985   7.435   6.178
27827WAT     H183723   1.924   7.514   6.191
27827WAT     H283724   2.000   7.390   6.266
27828WAT      O83725   9.792   6.445   4.649
27828WAT     H183726   9.827   6.528   4.692
27828WAT     H283727   9.846   6.423   4.568
27829WAT      O83728   6.781   7.928   6.787
27829WAT     H183729   6.780   7.861   6.713
27829WAT     H283730   6.859   7.910   6.847
27830WAT      O83731   8.386   3.860   0.865
27830WAT     H183732   8.367   3.862   0.963
27830WAT     H283733   8.396   3.765   0.835
27831WAT      O83734   7.620   2.142   5.514
27831WAT     H183735   7.593   2.123   5.419
27831WAT     H283736   7.564   2.216   5.550
27832WAT      O83737   8.817   2.787   6.606
27832WAT     H183738   8.876   2.776   6.686
27832WAT     H283739   8.722   2.775   6.633
27833WAT      O83740   0.308   8.162   5.212
27833WAT     H183741   0.366   8.140   5.291
27833WAT     H283742   0.244   8.087   5.197
27834WAT      O83743   0.823   8.472   0.835
27834WAT     H183744   0.767   8.435   0.761
27834WAT     H283745   0.918   8.477   0.806
27835WAT      O83746   3.076   2.215   2.961
27835WAT     H183747   3.053   2.217   3.058
27835WAT     H283748   3.174   2.194   2.951
27836WAT      O83749   1.554   2.488   4.640
27836WAT     H183750   1.561   2.530   4.731
27836WAT     H283751   1.463   2.449   4.629
27837WAT      O83752   9.579   7.827   2.994
27837WAT     H183753   9.504   7.761   2.990
27837WAT     H283754   9.646   7.806   2.922
27838WAT      O83755   4.893   4.859   6.835
27838WAT     H183756   4.972   4.907   6.796
27838WAT     H283757   4.896   4.763   6.807
27839WAT      O83758   4.417   7.947   2.143
27839WAT     H183759   4.442   7.933   2.048
27839WAT     H283760   4.491   7.993   2.192
27840WAT      O83761   4.926   7.359   4.545
27840WAT     H183762   4.907   7.268   4.508
27840WAT     H283763   4.880   7.428   4.489
27841WAT      O83764   1.971   6.324   6.637
27841WAT     H183765   1.981   6.263   6.716
27841WAT     H283766   2.060   6.334   6.592
27842WAT      O83767   4.376   5.849   4.501
27842WAT     H183768   4.429   5.874   4.420
27842WAT     H283769   4.416   5.769   4.545
27843WAT      O83770   6.301   6.237   7.472
27843WAT     H183771   6.381   6.222   7.415
27843WAT     H283772   6.278   6.153   7.522
27844WAT      O83773   4.686   4.638   3.824
27844WAT     H183774   4.702   4.544   3.855
27844WAT     H283775   4.618   4.681   3.883
27845WAT      O83776   4.708   3.088   1.465
27845WAT     H183777   4.731   3.133   1.551
27845WAT     H283778   4.613   3.056   1.468
27846WAT      O83779   3.955   5.742   6.633
27846WAT     H183780   3.968   5.687   6.550
27846WAT     H283781   4.004   5.699   6.709
27847WAT      O83782   4.231   5.679   1.699
27847WAT     H183783   4.227   5.762   1.756
27847WAT     H283784   4.144   5.668   1.651
27848WAT      O83785   8.346   5.332   4.698
27848WAT     H183786   8.332   5.427   4.726
27848WAT     H283787   8.379   5.279   4.776
27849WAT      O83788   7.530   4.133   0.105
27849WAT     H183789   7.452   4.117   0.166
27849WAT     H283790   7.512   4.090   0.016
27850WAT      O83791   0.837   1.926   2.770
27850WAT     H183792   0.830   1.834   2.730
27850WAT     H283793   0.773   1.934   2.847
27851WAT      O83794   6.105   3.783   5.434
27851WAT     H183795   6.013   3.779   5.474
27851WAT     H283796   6.169   3.817   5.503
27852WAT      O83797   9.811   8.687   6.913
27852WAT     H183798   9.836   8.705   6.818
27852WAT     H283799   9.748   8.758   6.945
27853WAT      O83800   0.262   0.775   0.704
27853WAT     H183801   0.295   0.690   0.746
27853WAT     H283802   0.194   0.754   0.634
27854WAT      O83803   8.170   7.731   2.789
27854WAT     H183804   8.264   7.764   2.775
27854WAT     H283805   8.132   7.773   2.871
27855WAT      O83806   1.776   5.378   0.176
27855WAT     H183807   1.868   5.389   0.137
27855WAT     H283808   1.743   5.286   0.156
27856WAT      O83809   1.385   9.106   5.688
27856WAT     H183810   1.426   9.032   5.635
27856WAT     H283811   1.380   9.079   5.784
27857WAT      O83812   0.265   5.522   6.936
27857WAT     H183813   0.226   5.613   6.950
27857WAT     H283814   0.363   5.524   6.956
27858WAT      O83815   0.476   2.022   5.726
27858WAT     H183816   0.417   1.979   5.659
27858WAT     H283817   0.510   2.109   5.690
27859WAT      O83818   2.372   1.827   4.754
27859WAT     H183819   2.380   1.733   4.720
27859WAT     H283820   2.278   1.860   4.741
27860WAT      O83821   6.670   2.339   4.626
27860WAT     H183822   6.746   2.352   4.690
27860WAT     H283823   6.606   2.415   4.635
27861WAT      O83824   7.837   6.396   0.807
27861WAT     H183825   7.743   6.375   0.778
27861WAT     H283826   7.841   6.489   0.842
27862WAT      O83827   8.069   1.355   4.004
27862WAT     H183828   8.104   1.396   3.919
27862WAT     H283829   8.034   1.427   4.064
27863WAT      O83830   4.918   5.453   4.407
27863WAT     H183831   4.875   5.385   4.347
27863WAT     H283832   4.987   5.409   4.463
27864WAT      O83833   9.468   7.195   4.516
27864WAT     H183834   9.557   7.153   4.506
27864WAT     H283835   9.457   7.267   4.447
27865WAT      O83836   4.590   7.537   6.625
27865WAT     H183837   4.663   7.601   6.598
27865WAT     H283838   4.501   7.580   6.609
27866WAT      O83839   8.916   8.669   4.772
27866WAT     H183840   8.824   8.704   4.782
27866WAT     H283841   8.958   8.657   4.862
27867WAT      O83842   2.594   2.105   2.361
27867WAT     H183843   2.598   2.097   2.261
27867WAT     H283844   2.684   2.082   2.399
27868WAT      O83845   0.875   9.118   6.178
27868WAT     H183846   0.942   9.160   6.116
27868WAT     H283847   0.910   9.031   6.210
27869WAT      O83848   0.852   9.131   2.672
27869WAT     H183849   0.938   9.101   2.714
27869WAT     H283850   0.812   9.205   2.727
27870WAT      O83851   3.292   4.608   3.430
27870WAT     H183852   3.312   4.660   3.347
27870WAT     H283853   3.362   4.539   3.445
27871WAT      O83854   3.052   2.460   0.480
27871WAT     H183855   3.132   2.499   0.434
27871WAT     H283856   2.976   2.525   0.474
27872WAT      O83857   3.794   4.432   5.453
27872WAT     H183858   3.852   4.395   5.526
27872WAT     H283859   3.731   4.361   5.421
27873WAT      O83860   3.410   9.642   5.747
27873WAT     H183861   3.430   9.734   5.781
27873WAT     H283862   3.422   9.576   5.821
27874WAT      O83863   0.461   0.862   9.074
27874WAT     H183864   0.364   0.844   9.058
27874WAT     H283865   0.481   0.958   9.053
27875WAT      O83866   4.365   1.415   3.872
27875WAT     H183867   4.338   1.495   3.819
27875WAT     H283868   4.304   1.405   3.950
27876WAT      O83869   6.620   2.799   0.223
27876WAT     H183870   6.602   2.878   0.165
27876WAT     H283871   6.611   2.715   0.170
27877WAT      O83872   1.160   1.457   6.346
27877WAT     H183873   1.061   1.462   6.353
27877WAT     H283874   1.198   1.548   6.333
27878WAT      O83875   4.977   4.415   9.451
27878WAT     H183876   5.068   4.403   9.489
27878WAT     H283877   4.978   4.490   9.385
27879WAT      O83878   4.432   4.509   0.550
27879WAT     H183879   4.430   4.550   0.642
27879WAT     H283880   4.511   4.544   0.500
27880WAT      O83881   5.087   5.877   2.914
27880WAT     H183882   5.032   5.906   2.835
27880WAT     H283883   5.027   5.868   2.994
27881WAT      O83884   9.385   3.512   8.512
27881WAT     H183885   9.424   3.426   8.481
27881WAT     H283886   9.310   3.538   8.452
27882WAT      O83887   3.242   2.824   5.863
27882WAT     H183888   3.178   2.899   5.881
27882WAT     H283889   3.196   2.737   5.880
27883WAT      O83890   7.340   2.193   9.775
27883WAT     H183891   7.348   2.094   9.782
27883WAT     H283892   7.347   2.233   9.866
27884WAT      O83893   3.625   7.260   5.103
27884WAT     H183894   3.613   7.161   5.107
27884WAT     H283895   3.707   7.285   5.154
27885WAT      O83896   6.033   7.447   8.809
27885WAT     H183897   6.124   7.486   8.814
27885WAT     H283898   6.026   7.370   8.873
27886WAT      O83899   2.227   3.094   2.873
27886WAT     H183900   2.274   3.021   2.822
27886WAT     H283901   2.147   3.055   2.919
27887WAT      O83902   5.338   0.207   0.032
27887WAT     H183903   5.270   0.145  -0.006
27887WAT     H283904   5.366   0.273  -0.038
27888WAT      O83905   7.210   2.814   3.105
27888WAT     H183906   7.288   2.780   3.158
27888WAT     H283907   7.228   2.801   3.007
27889WAT      O83908   7.601   7.313   4.836
27889WAT     H183909   7.513   7.357   4.852
27889WAT     H283910   7.624   7.256   4.914
27890WAT      O83911   4.311   7.373   8.596
27890WAT     H183912   4.264   7.293   8.633
27890WAT     H283913   4.408   7.353   8.585
27891WAT      O83914   0.684   1.129   2.716
27891WAT     H183915   0.607   1.175   2.759
27891WAT     H283916   0.735   1.194   2.660
27892WAT      O83917   0.527   8.478   4.052
27892WAT     H183918   0.552   8.562   4.099
27892WAT     H283919   0.544   8.487   3.954
27893WAT      O83920   3.474   4.296   9.376
27893WAT     H183921   3.510   4.389   9.380
27893WAT     H283922   3.378   4.295   9.405
27894WAT      O83923   5.007   8.158   1.610
27894WAT     H183924   5.082   8.103   1.572
27894WAT     H283925   4.979   8.119   1.698
27895WAT      O83926   4.507   3.656   0.688
27895WAT     H183927   4.436   3.670   0.757
27895WAT     H283928   4.551   3.744   0.667
27896WAT      O83929   8.783   1.337   7.130
27896WAT     H183930   8.698   1.357   7.179
27896WAT     H283931   8.860   1.381   7.178
27897WAT      O83932   3.708   5.033   2.585
27897WAT     H183933   3.610   5.024   2.599
27897WAT     H283934   3.756   4.965   2.641
27898WAT      O83935   7.637   4.723   7.028
27898WAT     H183936   7.658   4.626   7.021
27898WAT     H283937   7.663   4.769   6.943
27899WAT      O83938   9.578   0.149   2.481
27899WAT     H183939   9.544   0.056   2.469
27899WAT     H283940   9.604   0.186   2.391
27900WAT      O83941   9.814   6.940   8.868
27900WAT     H183942   9.729   6.889   8.867
27900WAT     H283943   9.826   6.988   8.781
27901WAT      O83944   9.483   9.341   2.643
27901WAT     H183945   9.541   9.271   2.601
27901WAT     H283946   9.480   9.328   2.742
27902WAT      O83947   0.060   6.946   5.357
27902WAT     H183948   0.110   6.860   5.351
27902WAT     H283949   0.123   7.021   5.374
27903WAT      O83950   3.198   6.732   1.959
27903WAT     H183951   3.282   6.739   2.013
27903WAT     H283952   3.172   6.822   1.925
27904WAT      O83953   7.772   9.764   0.889
27904WAT     H183954   7.684   9.733   0.926
27904WAT     H283955   7.778   9.864   0.897
27905WAT      O83956   1.913   5.232   5.315
27905WAT     H183957   1.992   5.287   5.287
27905WAT     H283958   1.918   5.216   5.414
27906WAT      O83959   2.176   9.350   6.128
27906WAT     H183960   2.181   9.383   6.222
27906WAT     H283961   2.267   9.358   6.086
27907WAT      O83962   1.014   5.424   8.988
27907WAT     H183963   0.915   5.440   8.979
27907WAT     H283964   1.048   5.381   8.904
27908WAT      O83965   6.833   2.110   4.075
27908WAT     H183966   6.824   2.189   4.015
27908WAT     H283967   6.845   2.140   4.169
27909WAT      O83968   3.399   7.765   8.451
27909WAT     H183969   3.470   7.700   8.428
27909WAT     H283970   3.410   7.795   8.546
27910WAT      O83971   1.370   9.355   3.641
27910WAT     H183972   1.404   9.439   3.683
27910WAT     H283973   1.324   9.377   3.555
27911WAT      O83974   1.946   0.167   6.529
27911WAT     H183975   1.893   0.086   6.550
27911WAT     H283976   2.032   0.141   6.486
27912WAT      O83977   8.344   6.572   7.838
27912WAT     H183978   8.264   6.592   7.896
27912WAT     H283979   8.407   6.513   7.888
27913WAT      O83980   5.786   0.637   6.564
27913WAT     H183981   5.771   0.622   6.466
27913WAT     H283982   5.866   0.695   6.578
27914WAT      O83983   6.518   0.482   1.378
27914WAT     H183984   6.559   0.573   1.384
27914WAT     H283985   6.486   0.454   1.469
27915WAT      O83986   0.381   6.380   9.848
27915WAT     H183987   0.281   6.383   9.846
27915WAT     H283988   0.418   6.457   9.795
27916WAT      O83989   2.563   4.737   1.253
27916WAT     H183990   2.585   4.788   1.336
27916WAT     H283991   2.610   4.649   1.254
27917WAT      O83992   6.280   3.218   3.181
27917WAT     H183993   6.378   3.224   3.161
27917WAT     H283994   6.264   3.233   3.278
27918WAT      O83995   9.284   6.966   9.085
27918WAT     H183996   9.265   7.061   9.109
27918WAT     H283997   9.253   6.948   8.992
27919WAT      O83998   3.893   7.838   2.042
27919WAT     H183999   3.953   7.830   1.962
27919WAT     H284000   3.916   7.922   2.092
27920WAT      O84001   9.706   6.530   9.031
27920WAT     H184002   9.678   6.495   8.941
27920WAT     H284003   9.770   6.605   9.019
27921WAT      O84004   6.872   8.843   1.915
27921WAT     H184005   6.942   8.814   1.980
27921WAT     H284006   6.915   8.867   1.828
27922WAT      O84007   2.093   6.099   3.567
27922WAT     H184008   2.126   6.008   3.541
27922WAT     H284009   2.142   6.168   3.514
27923WAT      O84010   7.498   5.644   5.335
27923WAT     H184011   7.458   5.687   5.416
27923WAT     H284012   7.507   5.713   5.263
27924WAT      O84013   3.548   6.511   9.733
27924WAT     H184014   3.561   6.591   9.675
27924WAT     H284015   3.637   6.468   9.752
27925WAT      O84016   3.467   7.674   1.949
27925WAT     H184017   3.506   7.764   1.968
27925WAT     H284018   3.405   7.681   1.870
27926WAT      O84019   1.681   7.877   1.267
27926WAT     H184020   1.758   7.887   1.204
27926WAT     H284021   1.628   7.796   1.242
27927WAT      O84022   8.426   7.193   7.837
27927WAT     H184023   8.401   7.158   7.747
27927WAT     H284024   8.422   7.118   7.904
27928WAT      O84025   7.038   7.703   6.475
27928WAT     H184026   7.078   7.623   6.520
27928WAT     H284027   7.040   7.689   6.376
27929WAT      O84028   7.607   0.152   9.801
27929WAT     H184029   7.679   0.170   9.735
27929WAT     H284030   7.642   0.091   9.873
27930WAT      O84031   4.753   9.420   8.609
27930WAT     H184032   4.771   9.496   8.671
27930WAT     H284033   4.839   9.389   8.569
27931WAT      O84034   0.697   5.754   9.178
27931WAT     H184035   0.687   5.689   9.102
27931WAT     H284036   0.739   5.708   9.256
27932WAT      O84037   8.953   3.316   1.586
27932WAT     H184038   8.942   3.395   1.526
27932WAT     H284039   9.045   3.316   1.625
27933WAT      O84040   9.213   7.556   0.477
27933WAT     H184041   9.269   7.629   0.516
27933WAT     H284042   9.148   7.523   0.545
27934WAT      O84043   9.363   6.661   5.724
27934WAT     H184044   9.325   6.617   5.805
27934WAT     H284045   9.441   6.718   5.750
27935WAT      O84046   6.299   3.469   1.686
27935WAT     H184047   6.328   3.395   1.746
27935WAT     H284048   6.273   3.432   1.597
27936WAT      O84049   0.990   9.190   3.933
27936WAT     H184050   0.971   9.207   3.837
27936WAT     H284051   0.944   9.105   3.961
27937WAT      O84052   2.297   3.013   3.244
27937WAT     H184053   2.251   3.100   3.225
27937WAT     H284054   2.335   3.014   3.336
27938WAT      O84055   6.684   8.600   4.401
27938WAT     H184056   6.617   8.576   4.331
27938WAT     H284057   6.641   8.660   4.469
27939WAT      O84058   1.277   8.359   8.295
27939WAT     H184059   1.203   8.414   8.256
27939WAT     H284060   1.275   8.367   8.395
27940WAT      O84061   3.920   4.936   2.428
27940WAT     H184062   3.861   4.996   2.482
27940WAT     H284063   3.877   4.918   2.339
27941WAT      O84064   8.588   4.171   2.538
27941WAT     H184065   8.497   4.172   2.579
27941WAT     H284066   8.652   4.125   2.600
27942WAT      O84067   1.279   2.489   0.401
27942WAT     H184068   1.315   2.471   0.493
27942WAT     H284069   1.264   2.587   0.390
27943WAT      O84070   0.739   7.208   0.306
27943WAT     H184071   0.686   7.124   0.310
27943WAT     H284072   0.793   7.217   0.390
27944WAT      O84073   2.585   1.460   5.619
27944WAT     H184074   2.641   1.414   5.688
27944WAT     H284075   2.615   1.555   5.609
27945WAT      O84076   5.012   3.479   4.738
27945WAT     H184077   4.937   3.442   4.683
27945WAT     H284078   5.068   3.404   4.773
27946WAT      O84079   0.309   6.270   7.959
27946WAT     H184080   0.315   6.218   7.874
27946WAT     H284081   0.232   6.236   8.014
27947WAT      O84082   9.407   1.068   7.081
27947WAT     H184083   9.375   1.082   7.175
27947WAT     H284084   9.401   1.155   7.032
27948WAT      O84085   5.330   1.576   0.044
27948WAT     H184086   5.351   1.579  -0.053
27948WAT     H284087   5.325   1.481   0.075
27949WAT      O84088   5.263   4.775   4.862
27949WAT     H184089   5.211   4.860   4.847
27949WAT     H284090   5.318   4.783   4.945
27950WAT      O84091   7.754   7.351   4.609
27950WAT     H184092   7.815   7.430   4.620
27950WAT     H284093   7.690   7.348   4.686
27951WAT      O84094   5.441   2.436   1.632
27951WAT     H184095   5.359   2.379   1.633
27951WAT     H284096   5.443   2.493   1.715
27952WAT      O84097   8.362   8.334   5.853
27952WAT     H184098   8.427   8.258   5.845
27952WAT     H284099   8.272   8.298   5.878
27953WAT      O84100   7.018   5.268   0.386
27953WAT     H184101   7.058   5.238   0.473
27953WAT     H284102   6.968   5.353   0.400
27954WAT      O84103   9.773   0.358   8.943
27954WAT     H184104   9.857   0.411   8.929
27954WAT     H284105   9.784   0.298   9.023
27955WAT      O84106   6.418   8.049   0.818
27955WAT     H184107   6.499   7.997   0.846
27955WAT     H284108   6.370   8.080   0.899
27956WAT      O84109   5.144   1.981   8.924
27956WAT     H184110   5.130   1.921   8.846
27956WAT     H284111   5.231   2.029   8.914
27957WAT      O84112   0.372   0.827   6.425
27957WAT     H184113   0.317   0.746   6.403
27957WAT     H284114   0.452   0.830   6.366
27958WAT      O84115   0.825   0.923   2.323
27958WAT     H184116   0.872   0.835   2.316
27958WAT     H284117   0.800   0.955   2.231
27959WAT      O84118   0.693   1.924   4.790
27959WAT     H184119   0.656   1.925   4.697
27959WAT     H284120   0.639   1.985   4.848
27960WAT      O84121   0.509   1.490   9.464
27960WAT     H184122   0.425   1.440   9.485
27960WAT     H284123   0.516   1.570   9.524
27961WAT      O84124   8.839   7.258   1.364
27961WAT     H184125   8.925   7.239   1.412
27961WAT     H284126   8.799   7.172   1.330
27962WAT      O84127   0.225   2.641   3.309
27962WAT     H184128   0.247   2.734   3.336
27962WAT     H284129   0.177   2.595   3.384
27963WAT      O84130   1.176   8.593   9.869
27963WAT     H184131   1.249   8.625   9.928
27963WAT     H284132   1.214   8.541   9.793
27964WAT      O84133   4.311   9.517   7.626
27964WAT     H184134   4.293   9.513   7.724
27964WAT     H284135   4.319   9.612   7.597
27965WAT      O84136   2.000   3.770   7.757
27965WAT     H184137   1.906   3.769   7.726
27965WAT     H284138   2.038   3.677   7.754
27966WAT      O84139   9.603   7.062   2.233
27966WAT     H184140   9.687   7.034   2.280
27966WAT     H284141   9.624   7.082   2.137
27967WAT      O84142   9.660   2.703   8.877
27967WAT     H184143   9.650   2.652   8.791
27967WAT     H284144   9.751   2.685   8.916
27968WAT      O84145   8.057   6.783   8.200
27968WAT     H184146   8.012   6.772   8.111
27968WAT     H284147   8.155   6.796   8.187
27969WAT      O84148   3.536   7.769   0.497
27969WAT     H184149   3.482   7.852   0.484
27969WAT     H284150   3.497   7.695   0.441
27970WAT      O84151   7.816   1.217   1.635
27970WAT     H184152   7.810   1.317   1.634
27970WAT     H284153   7.743   1.180   1.692
27971WAT      O84154   1.864   3.880   5.929
27971WAT     H184155   1.825   3.922   5.848
27971WAT     H284156   1.941   3.935   5.961
27972WAT      O84157   4.413   6.670   4.387
27972WAT     H184158   4.473   6.715   4.321
27972WAT     H284159   4.464   6.652   4.471
27973WAT      O84160   2.917   5.535   3.164
27973WAT     H184161   2.883   5.596   3.236
27973WAT     H284162   2.887   5.568   3.075
27974WAT      O84163   8.280   8.548   3.109
27974WAT     H184164   8.369   8.566   3.150
27974WAT     H284165   8.214   8.525   3.181
27975WAT      O84166   8.740   6.218   1.272
27975WAT     H184167   8.733   6.317   1.260
27975WAT     H284168   8.787   6.179   1.192
27976WAT      O84169   4.865   9.418   0.732
27976WAT     H184170   4.954   9.452   0.761
27976WAT     H284171   4.817   9.490   0.682
27977WAT      O84172   7.740   2.595   0.056
27977WAT     H184173   7.794   2.560   0.132
27977WAT     H284174   7.679   2.523   0.023
27978WAT      O84175   2.789   0.732   8.429
27978WAT     H184176   2.725   0.808   8.416
27978WAT     H284177   2.879   0.758   8.394
27979WAT      O84178   4.600   3.988   1.697
27979WAT     H184179   4.687   4.035   1.702
27979WAT     H284180   4.592   3.923   1.773
27980WAT      O84181   5.504   4.197   7.045
27980WAT     H184182   5.548   4.119   7.000
27980WAT     H284183   5.566   4.237   7.112
27981WAT      O84184   3.041   5.604   1.120
27981WAT     H184185   3.096   5.530   1.083
27981WAT     H284186   3.054   5.687   1.064
27982WAT      O84187   2.736   7.169   2.113
27982WAT     H184188   2.765   7.262   2.137
27982WAT     H284189   2.765   7.106   2.185
27983WAT      O84190   3.150   8.316   0.060
27983WAT     H184191   3.104   8.268  -0.014
27983WAT     H284192   3.096   8.396   0.087
27984WAT      O84193   3.686   8.788   8.064
27984WAT     H184194   3.596   8.776   8.022
27984WAT     H284195   3.756   8.790   7.993
27985WAT      O84196   6.555   7.200   8.380
27985WAT     H184197   6.625   7.240   8.439
27985WAT     H284198   6.587   7.204   8.285
27986WAT      O84199   9.027   6.147   6.277
27986WAT     H184200   8.984   6.074   6.224
27986WAT     H284201   8.973   6.164   6.360
27987WAT      O84202   0.706   8.757   3.825
27987WAT     H184203   0.616   8.715   3.840
27987WAT     H284204   0.770   8.689   3.791
27988WAT      O84205   5.992   4.868   3.418
27988WAT     H184206   6.011   4.955   3.374
27988WAT     H284207   6.022   4.872   3.514
27989WAT      O84208   5.243   5.616   8.985
27989WAT     H184209   5.244   5.527   8.938
27989WAT     H284210   5.266   5.688   8.919
27990WAT      O84211   3.063   3.780   0.791
27990WAT     H184212   3.091   3.772   0.695
27990WAT     H284213   2.980   3.726   0.806
27991WAT      O84214   4.500   8.279   0.560
27991WAT     H184215   4.532   8.360   0.512
27991WAT     H284216   4.491   8.299   0.658
27992WAT      O84217   2.884   7.231   6.703
27992WAT     H184218   2.926   7.175   6.774
27992WAT     H284219   2.914   7.198   6.613
27993WAT      O84220   9.350   6.304   4.387
27993WAT     H184221   9.308   6.266   4.304
27993WAT     H284222   9.444   6.330   4.367
27994WAT      O84223   8.543   3.793   2.035
27994WAT     H184224   8.582   3.786   2.127
27994WAT     H284225   8.612   3.830   1.973
27995WAT      O84226   3.792   2.781   4.069
27995WAT     H184227   3.842   2.714   4.015
27995WAT     H284228   3.841   2.868   4.068
27996WAT      O84229   8.475   1.835   4.765
27996WAT     H184230   8.435   1.753   4.724
27996WAT     H284231   8.564   1.853   4.722
27997WAT      O84232   0.177   8.764   1.315
27997WAT     H184233   0.103   8.763   1.383
27997WAT     H284234   0.179   8.854   1.270
27998WAT      O84235   3.240   4.850   2.729
27998WAT     H184236   3.200   4.838   2.820
27998WAT     H284237   3.185   4.914   2.676
27999WAT      O84238   6.190   1.040   4.433
27999WAT     H184239   6.190   1.136   4.460
27999WAT     H284240   6.162   1.032   4.338
28000WAT      O84241   3.641   4.373   7.359
28000WAT     H184242   3.619   4.360   7.262
28000WAT     H284243   3.727   4.424   7.367
28001WAT      O84244   6.471   9.527   7.226
28001WAT     H184245   6.502   9.620   7.246
28001WAT     H284246   6.541   9.462   7.254
28002WAT      O84247   8.719   8.412   6.344
28002WAT     H184248   8.743   8.335   6.284
28002WAT     H284249   8.706   8.494   6.290
28003WAT      O84250   0.268   8.338   4.731
28003WAT     H184251   0.223   8.250   4.714
28003WAT     H284252   0.302   8.340   4.825
28004WAT      O84253   1.947   2.807   3.748
28004WAT     H184254   1.892   2.862   3.811
28004WAT     H284255   2.005   2.868   3.693
28005WAT      O84256   0.146   6.228   1.119
28005WAT     H184257   0.176   6.201   1.210
28005WAT     H284258   0.131   6.327   1.116
28006WAT      O84259   8.649   2.365   6.507
28006WAT     H184260   8.743   2.358   6.540
28006WAT     H284261   8.590   2.398   6.581
28007WAT      O84262   2.703   3.400   7.487
28007WAT     H184263   2.628   3.407   7.422
28007WAT     H284264   2.790   3.409   7.439
28008WAT      O84265   9.086   0.026   3.377
28008WAT     H184266   9.014   0.022   3.446
28008WAT     H284267   9.092  -0.062   3.329
28009WAT      O84268   1.454   1.210   1.038
28009WAT     H184269   1.458   1.116   1.005
28009WAT     H284270   1.444   1.210   1.138
28010WAT      O84271   4.159   7.312   0.881
28010WAT     H184272   4.077   7.256   0.889
28010WAT     H284273   4.195   7.332   0.972
28011WAT      O84274   8.541   4.473   0.670
28011WAT     H184275   8.617   4.419   0.632
28011WAT     H284276   8.577   4.560   0.704
28012WAT      O84277   1.492   8.832   1.926
28012WAT     H184278   1.532   8.763   1.865
28012WAT     H284279   1.560   8.859   1.994
28013WAT      O84280   0.974   4.361   4.979
28013WAT     H184281   0.907   4.390   5.048
28013WAT     H284282   0.977   4.428   4.905
28014WAT      O84283   9.298   0.589   2.011
28014WAT     H184284   9.340   0.514   2.062
28014WAT     H284285   9.220   0.626   2.063
28015WAT      O84286   1.347   5.893   7.632
28015WAT     H184287   1.350   5.844   7.545
28015WAT     H284288   1.393   5.839   7.703
28016WAT      O84289   2.024   3.256   8.555
28016WAT     H184290   2.064   3.250   8.646
28016WAT     H284291   2.026   3.166   8.511
28017WAT      O84292   8.749   7.959   1.543
28017WAT     H184293   8.754   8.039   1.601
28017WAT     H284294   8.838   7.943   1.500
28018WAT      O84295   5.872   5.514   4.013
28018WAT     H184296   5.916   5.441   4.065
28018WAT     H284297   5.805   5.561   4.071
28019WAT      O84298   8.571   5.804   0.834
28019WAT     H184299   8.647   5.856   0.796
28019WAT     H284300   8.601   5.753   0.914
28020WAT      O84301   7.577   1.832   6.683
28020WAT     H184302   7.671   1.809   6.709
28020WAT     H284303   7.515   1.766   6.726
28021WAT      O84304   2.280   3.133   2.453
28021WAT     H184305   2.340   3.158   2.529
28021WAT     H284306   2.216   3.207   2.435
28022WAT      O84307   6.573   9.395   1.268
28022WAT     H184308   6.499   9.422   1.205
28022WAT     H284309   6.549   9.308   1.312
28023WAT      O84310   7.495   4.255   3.821
28023WAT     H184311   7.512   4.163   3.788
28023WAT     H284312   7.475   4.252   3.919
28024WAT      O84313   0.653   4.695   8.440
28024WAT     H184314   0.653   4.686   8.540
28024WAT     H284315   0.656   4.792   8.416
28025WAT      O84316   8.851   2.213   3.306
28025WAT     H184317   8.778   2.150   3.280
28025WAT     H284318   8.933   2.193   3.252
28026WAT      O84319   6.737   7.169   2.005
28026WAT     H184320   6.694   7.084   2.035
28026WAT     H284321   6.734   7.175   1.905
28027WAT      O84322   9.406   1.305   6.939
28027WAT     H184323   9.363   1.394   6.953
28027WAT     H284324   9.439   1.299   6.845
28028WAT      O84325   1.282   8.717   6.473
28028WAT     H184326   1.253   8.785   6.541
28028WAT     H284327   1.367   8.675   6.502
28029WAT      O84328   4.943   2.501   5.727
28029WAT     H184329   4.990   2.458   5.804
28029WAT     H284330   4.988   2.476   5.642
28030WAT      O84331   1.020   2.323   7.208
28030WAT     H184332   1.023   2.306   7.110
28030WAT     H284333   0.965   2.405   7.226
28031WAT      O84334   9.294   2.372   9.299
28031WAT     H184335   9.209   2.369   9.247
28031WAT     H284336   9.348   2.451   9.270
28032WAT      O84337   4.049   4.968   7.509
28032WAT     H184338   4.055   4.910   7.590
28032WAT     H284339   4.039   5.064   7.537
28033WAT      O84340   2.798   7.509   3.043
28033WAT     H184341   2.791   7.548   3.135
28033WAT     H284342   2.895   7.500   3.019
28034WAT      O84343   9.503   2.612   5.200
28034WAT     H184344   9.561   2.538   5.164
28034WAT     H284345   9.408   2.594   5.176
28035WAT      O84346   4.976   5.510   3.595
28035WAT     H184347   4.884   5.471   3.597
28035WAT     H284348   5.041   5.444   3.634
28036WAT      O84349   6.903   8.344   3.178
28036WAT     H184350   6.816   8.367   3.133
28036WAT     H284351   6.915   8.245   3.180
28037WAT      O84352   5.759   0.837   2.578
28037WAT     H184353   5.734   0.749   2.537
28037WAT     H284354   5.706   0.851   2.662
28038WAT      O84355   4.674   0.828   3.767
28038WAT     H184356   4.646   0.759   3.834
28038WAT     H284357   4.659   0.919   3.805
28039WAT      O84358   3.300   5.674   4.239
28039WAT     H184359   3.278   5.580   4.266
28039WAT     H284360   3.395   5.693   4.260
28040WAT      O84361   6.220   0.014   0.878
28040WAT     H184362   6.295   0.026   0.943
28040WAT     H284363   6.209  -0.083   0.856
28041WAT      O84364   5.499   1.746   4.588
28041WAT     H184365   5.559   1.808   4.638
28041WAT     H284366   5.404   1.768   4.606
28042WAT      O84367   8.185   8.803   2.978
28042WAT     H184368   8.207   8.713   3.014
28042WAT     H284369   8.256   8.831   2.913
28043WAT      O84370   6.300   8.717   2.698
28043WAT     H184371   6.292   8.757   2.607
28043WAT     H284372   6.383   8.750   2.742
28044WAT      O84373   9.820   0.721   2.305
28044WAT     H184374   9.799   0.691   2.398
28044WAT     H284375   9.785   0.813   2.291
28045WAT      O84376   3.667   1.090   8.908
28045WAT     H184377   3.710   1.109   8.820
28045WAT     H284378   3.721   1.024   8.958
28046WAT      O84379   1.363   0.143   8.925
28046WAT     H184380   1.422   0.133   8.845
28046WAT     H284381   1.355   0.240   8.949
28047WAT      O84382   2.752   6.977   7.041
28047WAT     H184383   2.686   6.920   6.991
28047WAT     H284384   2.724   7.073   7.034
28048WAT      O84385   0.901   4.125   7.490
28048WAT     H184386   0.890   4.111   7.588
28048WAT     H284387   0.849   4.206   7.462
28049WAT      O84388   6.241   2.676   6.017
28049WAT     H184389   6.268   2.686   5.922
28049WAT     H284390   6.198   2.586   6.030
28050WAT      O84391   1.402   8.055   5.977
28050WAT     H184392   1.449   7.988   5.919
28050WAT     H284393   1.365   8.009   6.058
28051WAT      O84394   4.206   5.344   3.034
28051WAT     H184395   4.265   5.347   3.115
28051WAT     H284396   4.257   5.305   2.957
28052WAT      O84397   2.506   8.606   0.168
28052WAT     H184398   2.564   8.628   0.246
28052WAT     H284399   2.410   8.606   0.197
28053WAT      O84400   4.884   5.664   4.235
28053WAT     H184401   4.908   5.594   4.302
28053WAT     H284402   4.911   5.754   4.270
28054WAT      O84403   5.154   5.660   4.568
28054WAT     H184404   5.101   5.736   4.531
28054WAT     H284405   5.096   5.606   4.629
28055WAT      O84406   1.842   3.621   7.396
28055WAT     H184407   1.802   3.544   7.346
28055WAT     H284408   1.818   3.707   7.351
28056WAT      O84409   8.903   5.940   4.064
28056WAT     H184410   8.818   5.986   4.037
28056WAT     H284411   8.919   5.954   4.162
28057WAT      O84412   9.735   7.477   3.920
28057WAT     H184413   9.742   7.575   3.938
28057WAT     H284414   9.639   7.453   3.903
28058WAT      O84415   2.051   3.613   0.086
28058WAT     H184416   2.143   3.647   0.110
28058WAT     H284417   2.059   3.528   0.035
28059WAT      O84418   7.358   4.680   9.456
28059WAT     H184419   7.300   4.741   9.510
28059WAT     H284420   7.447   4.724   9.441
28060WAT      O84421   2.979   0.971   7.430
28060WAT     H184422   2.896   0.953   7.377
28060WAT     H284423   2.985   0.905   7.505
28061WAT      O84424   3.031   2.908   0.850
28061WAT     H184425   3.109   2.870   0.800
28061WAT     H284426   2.987   2.836   0.903
28062WAT      O84427   9.279   4.806   8.008
28062WAT     H184428   9.283   4.797   7.908
28062WAT     H284429   9.370   4.794   8.047
28063WAT      O84430   0.578   9.573   1.161
28063WAT     H184431   0.543   9.479   1.158
28063WAT     H284432   0.630   9.592   1.078
28064WAT      O84433   2.433   2.618   3.836
28064WAT     H184434   2.493   2.606   3.915
28064WAT     H284435   2.470   2.570   3.757
28065WAT      O84436   0.376   7.081   0.773
28065WAT     H184437   0.331   7.012   0.717
28065WAT     H284438   0.332   7.170   0.757
28066WAT      O84439   1.744   1.745   1.772
28066WAT     H184440   1.734   1.830   1.721
28066WAT     H284441   1.691   1.751   1.857
28067WAT      O84442   6.795   2.857   0.666
28067WAT     H184443   6.703   2.865   0.628
28067WAT     H284444   6.849   2.794   0.609
28068WAT      O84445   7.888   6.442   1.973
28068WAT     H184446   7.830   6.495   2.034
28068WAT     H284447   7.962   6.401   2.025
28069WAT      O84448   3.506   9.763   8.351
28069WAT     H184449   3.442   9.801   8.285
28069WAT     H284450   3.471   9.676   8.386
28070WAT      O84451   1.954   7.161   4.779
28070WAT     H184452   1.914   7.073   4.756
28070WAT     H284453   2.002   7.198   4.700
28071WAT      O84454   7.997   6.188   4.729
28071WAT     H184455   8.053   6.182   4.811
28071WAT     H284456   7.935   6.266   4.737
28072WAT      O84457   2.728   6.018   2.501
28072WAT     H184458   2.738   6.075   2.419
28072WAT     H284459   2.631   6.001   2.518
28073WAT      O84460   1.576   1.265   8.781
28073WAT     H184461   1.569   1.166   8.792
28073WAT     H284462   1.588   1.287   8.684
28074WAT      O84463   6.651   9.083   7.822
28074WAT     H184464   6.734   9.135   7.842
28074WAT     H284465   6.577   9.113   7.881
28075WAT      O84466   1.072   4.701   9.122
28075WAT     H184467   1.058   4.800   9.114
28075WAT     H284468   1.001   4.653   9.071
28076WAT      O84469   9.073   6.911   7.809
28076WAT     H184470   9.134   6.839   7.841
28076WAT     H284471   8.981   6.894   7.845
28077WAT      O84472   8.865   8.049   4.160
28077WAT     H184473   8.769   8.067   4.137
28077WAT     H284474   8.888   7.955   4.136
28078WAT      O84475   3.141   0.319   5.056
28078WAT     H184476   3.196   0.295   4.976
28078WAT     H284477   3.180   0.277   5.137
28079WAT      O84478   7.869   0.185   6.715
28079WAT     H184479   7.855   0.240   6.633
28079WAT     H284480   7.866   0.243   6.796
28080WAT      O84481   4.175   5.577   5.269
28080WAT     H184482   4.092   5.521   5.266
28080WAT     H284483   4.242   5.541   5.206
28081WAT      O84484   3.973   0.506   8.939
28081WAT     H184485   4.055   0.465   8.900
28081WAT     H284486   3.965   0.480   9.035
28082WAT      O84487   4.795   1.322   2.868
28082WAT     H184488   4.751   1.259   2.804
28082WAT     H284489   4.754   1.413   2.859
28083WAT      O84490   3.497   8.383   2.700
28083WAT     H184491   3.586   8.393   2.655
28083WAT     H284492   3.485   8.454   2.769
28084WAT      O84493   3.453   3.773   2.358
28084WAT     H184494   3.422   3.687   2.317
28084WAT     H284495   3.497   3.755   2.445
28085WAT      O84496   1.332   9.487   6.981
28085WAT     H184497   1.248   9.536   7.003
28085WAT     H284498   1.308   9.398   6.942
28086WAT      O84499   1.179   0.060   6.356
28086WAT     H184500   1.103   0.016   6.404
28086WAT     H284501   1.146   0.103   6.272
28087WAT      O84502   5.696   1.777   5.286
28087WAT     H184503   5.775   1.761   5.227
28087WAT     H284504   5.710   1.729   5.373
28088WAT      O84505   8.123   6.017   9.008
28088WAT     H184506   8.218   6.014   9.039
28088WAT     H284507   8.062   6.022   9.088
28089WAT      O84508   2.333   2.377   9.374
28089WAT     H184509   2.397   2.388   9.297
28089WAT     H284510   2.252   2.328   9.342
28090WAT      O84511   7.867   3.019   7.638
28090WAT     H184512   7.934   3.092   7.623
28090WAT     H284513   7.827   3.029   7.729
28091WAT      O84514   1.266   8.727   5.435
28091WAT     H184515   1.353   8.768   5.464
28091WAT     H284516   1.283   8.649   5.375
28092WAT      O84517   6.315   9.303   9.110
28092WAT     H184518   6.259   9.373   9.066
28092WAT     H284519   6.254   9.236   9.155
28093WAT      O84520   1.227   2.799   6.758
28093WAT     H184521   1.154   2.802   6.827
28093WAT     H284522   1.228   2.708   6.715
28094WAT      O84523   8.324   1.565   8.168
28094WAT     H184524   8.376   1.591   8.087
28094WAT     H284525   8.333   1.466   8.183
28095WAT      O84526   0.867   3.148   8.137
28095WAT     H184527   0.839   3.058   8.106
28095WAT     H284528   0.865   3.212   8.059
28096WAT      O84529   8.773   2.110   8.378
28096WAT     H184530   8.678   2.114   8.410
28096WAT     H284531   8.801   2.014   8.369
28097WAT      O84532   5.603   4.342   3.245
28097WAT     H184533   5.520   4.290   3.264
28097WAT     H284534   5.680   4.302   3.294
28098WAT      O84535   3.709   4.690   4.341
28098WAT     H184536   3.610   4.698   4.350
28098WAT     H284537   3.744   4.628   4.412
28099WAT      O84538   5.686   0.065   1.200
28099WAT     H184539   5.675   0.142   1.262
28099WAT     H284540   5.688  -0.020   1.253
28100WAT      O84541   4.739   1.070   4.169
28100WAT     H184542   4.769   0.979   4.199
28100WAT     H284543   4.641   1.079   4.184
28101WAT      O84544   2.740   3.164   6.452
28101WAT     H184545   2.838   3.146   6.441
28101WAT     H284546   2.699   3.092   6.508
28102WAT      O84547   6.421   4.571   5.765
28102WAT     H184548   6.342   4.529   5.721
28102WAT     H284549   6.389   4.637   5.834
28103WAT      O84550   5.812   1.726   8.014
28103WAT     H184551   5.773   1.761   7.929
28103WAT     H284552   5.912   1.734   8.010
28104WAT      O84553   8.371   3.807   6.558
28104WAT     H184554   8.356   3.735   6.489
28104WAT     H284555   8.289   3.863   6.565
28105WAT      O84556   5.298   9.275   0.160
28105WAT     H184557   5.279   9.188   0.207
28105WAT     H284558   5.212   9.320   0.137
28106WAT      O84559   7.603   4.502   8.670
28106WAT     H184560   7.509   4.468   8.667
28106WAT     H284561   7.662   4.433   8.712
28107WAT      O84562   9.547   9.294   8.112
28107WAT     H184563   9.624   9.244   8.149
28107WAT     H284564   9.578   9.355   8.039
28108WAT      O84565   4.505   5.871   4.218
28108WAT     H184566   4.602   5.893   4.228
28108WAT     H284567   4.483   5.858   4.122
28109WAT      O84568   5.370   3.930   7.282
28109WAT     H184569   5.416   3.864   7.223
28109WAT     H284570   5.434   4.005   7.303
28110WAT      O84571   2.265   9.649   7.957
28110WAT     H184572   2.291   9.735   8.001
28110WAT     H284573   2.182   9.613   8.000
28111WAT      O84574   7.164   3.598   4.913
28111WAT     H184575   7.110   3.639   4.840
28111WAT     H284576   7.246   3.654   4.929
28112WAT      O84577   4.070   1.920   5.627
28112WAT     H184578   4.024   1.893   5.712
28112WAT     H284579   4.148   1.859   5.610
28113WAT      O84580   3.051   8.278   8.148
28113WAT     H184581   2.994   8.239   8.075
28113WAT     H284582   3.147   8.264   8.126
28114WAT      O84583   2.545   9.749   7.508
28114WAT     H184584   2.536   9.677   7.439
28114WAT     H284585   2.480   9.732   7.582
28115WAT      O84586   8.787   1.078   6.630
28115WAT     H184587   8.858   1.058   6.563
28115WAT     H284588   8.828   1.085   6.721
28116WAT      O84589   8.002   5.264   8.637
28116WAT     H184590   8.093   5.253   8.677
28116WAT     H284591   8.009   5.268   8.538
28117WAT      O84592   5.199   0.615   8.465
28117WAT     H184593   5.202   0.642   8.562
28117WAT     H284594   5.290   0.584   8.437
28118WAT      O84595   3.668   9.824   7.416
28118WAT     H184596   3.722   9.740   7.423
28118WAT     H284597   3.573   9.804   7.438
28119WAT      O84598   7.643   2.771   0.777
28119WAT     H184599   7.728   2.752   0.727
28119WAT     H284600   7.566   2.774   0.712
28120WAT      O84601   3.735   6.996   1.337
28120WAT     H184602   3.797   6.953   1.272
28120WAT     H284603   3.762   6.971   1.430
28121WAT      O84604   0.036   1.050   3.785
28121WAT     H184605   0.049   0.988   3.708
28121WAT     H284606   0.102   1.029   3.857
28122WAT      O84607   9.864   2.567   0.564
28122WAT     H184608   9.861   2.471   0.592
28122WAT     H284609   9.810   2.579   0.481
28123WAT      O84610   6.678   8.731   6.420
28123WAT     H184611   6.710   8.682   6.501
28123WAT     H284612   6.674   8.829   6.440
28124WAT      O84613   1.403   1.226   3.703
28124WAT     H184614   1.385   1.271   3.791
28124WAT     H284615   1.501   1.229   3.683
28125WAT      O84616   8.030   4.223   0.121
28125WAT     H184617   7.994   4.239   0.213
28125WAT     H284618   7.955   4.200   0.059
28126WAT      O84619   4.438   1.479   1.226
28126WAT     H184620   4.357   1.531   1.254
28126WAT     H284621   4.517   1.540   1.223
28127WAT      O84622   7.759   3.894   6.210
28127WAT     H184623   7.799   3.956   6.142
28127WAT     H284624   7.661   3.883   6.190
28128WAT      O84625   3.769   5.827   4.536
28128WAT     H184626   3.758   5.778   4.622
28128WAT     H284627   3.806   5.918   4.554
28129WAT      O84628   4.105   9.796   6.480
28129WAT     H184629   4.010   9.764   6.471
28129WAT     H284630   4.106   9.881   6.533
28130WAT      O84631   0.139   9.077   1.852
28130WAT     H184632   0.158   8.996   1.908
28130WAT     H284633   0.054   9.063   1.801
28131WAT      O84634   9.345   0.482   1.377
28131WAT     H184635   9.274   0.549   1.358
28131WAT     H284636   9.396   0.509   1.459
28132WAT      O84637   3.063   5.808   4.319
28132WAT     H184638   3.147   5.774   4.275
28132WAT     H284639   3.078   5.814   4.418
28133WAT      O84640   4.703   5.042   6.723
28133WAT     H184641   4.746   5.107   6.786
28133WAT     H284642   4.760   4.960   6.716
28134WAT      O84643   5.255   3.064   9.780
28134WAT     H184644   5.249   2.983   9.838
28134WAT     H284645   5.339   3.062   9.727
28135WAT      O84646   8.939   0.270   1.185
28135WAT     H184647   8.896   0.181   1.174
28135WAT     H284648   9.034   0.266   1.154
28136WAT      O84649   5.225   0.733   5.749
28136WAT     H184650   5.288   0.760   5.677
28136WAT     H284651   5.254   0.646   5.789
28137WAT      O84652   9.769   3.450   1.172
28137WAT     H184653   9.811   3.422   1.086
28137WAT     H284654   9.684   3.499   1.154
28138WAT      O84655   1.268   1.136   1.596
28138WAT     H184656   1.249   1.079   1.676
28138WAT     H284657   1.364   1.164   1.598
28139WAT      O84658   8.371   7.525   4.238
28139WAT     H184659   8.336   7.456   4.175
28139WAT     H284660   8.437   7.483   4.300
28140WAT      O84661   4.261   6.775   1.939
28140WAT     H184662   4.264   6.875   1.927
28140WAT     H284663   4.247   6.753   2.035
28141WAT      O84664   9.380   3.098   1.651
28141WAT     H184665   9.446   3.111   1.577
28141WAT     H284666   9.428   3.081   1.737
28142WAT      O84667   7.883   1.586   7.198
28142WAT     H184668   7.867   1.514   7.130
28142WAT     H284669   7.857   1.553   7.289
28143WAT      O84670   5.016   2.438   6.111
28143WAT     H184671   5.106   2.479   6.129
28143WAT     H284672   5.023   2.376   6.033
28144WAT      O84673   5.354   5.660   6.109
28144WAT     H184674   5.315   5.698   6.025
28144WAT     H284675   5.281   5.625   6.168
28145WAT      O84676   1.697   8.012   9.530
28145WAT     H184677   1.741   8.096   9.497
28145WAT     H284678   1.615   7.994   9.476
28146WAT      O84679   5.957   4.417   2.568
28146WAT     H184680   6.019   4.392   2.642
28146WAT     H284681   5.919   4.508   2.587
28147WAT      O84682   6.267   8.291   7.948
28147WAT     H184683   6.188   8.284   7.887
28147WAT     H284684   6.240   8.264   8.040
28148WAT      O84685   1.137   9.553   2.985
28148WAT     H184686   1.115   9.484   2.916
28148WAT     H284687   1.181   9.632   2.941
28149WAT      O84688   9.433   7.132   7.720
28149WAT     H184689   9.336   7.136   7.694
28149WAT     H284690   9.486   7.190   7.658
28150WAT      O84691   5.256   5.870   8.568
28150WAT     H184692   5.158   5.886   8.567
28150WAT     H284693   5.294   5.888   8.477
28151WAT      O84694   5.437   6.627   0.024
28151WAT     H184695   5.483   6.555  -0.029
28151WAT     H284696   5.502   6.667   0.088
28152WAT      O84697   3.418   6.274   7.277
28152WAT     H184698   3.391   6.209   7.205
28152WAT     H284699   3.337   6.303   7.328
28153WAT      O84700   7.024   8.748   4.645
28153WAT     H184701   7.015   8.842   4.678
28153WAT     H284702   7.026   8.685   4.723
28154WAT      O84703   9.868   5.055   5.212
28154WAT     H184704   9.871   5.089   5.306
28154WAT     H284705   9.787   4.998   5.200
28155WAT      O84706   8.247   4.962   2.933
28155WAT     H184707   8.334   4.914   2.938
28155WAT     H284708   8.172   4.896   2.930
28156WAT      O84709   0.631   0.659   2.456
28156WAT     H184710   0.573   0.579   2.442
28156WAT     H284711   0.620   0.723   2.380
28157WAT      O84712   0.560   2.269   3.491
28157WAT     H184713   0.487   2.236   3.431
28157WAT     H284714   0.595   2.193   3.545
28158WAT      O84715   2.397   5.904   6.082
28158WAT     H184716   2.439   5.993   6.064
28158WAT     H284717   2.302   5.917   6.112
28159WAT      O84718   0.569   5.993   5.834
28159WAT     H184719   0.534   5.900   5.841
28159WAT     H284720   0.660   5.991   5.793
28160WAT      O84721   1.497   6.451   5.545
28160WAT     H184722   1.424   6.393   5.582
28160WAT     H284723   1.474   6.547   5.561
28161WAT      O84724   4.848   3.545   0.720
28161WAT     H184725   4.853   3.449   0.748
28161WAT     H284726   4.781   3.555   0.647
28162WAT      O84727   2.265   5.931   8.608
28162WAT     H184728   2.291   5.951   8.514
28162WAT     H284729   2.301   5.841   8.634
28163WAT      O84730   0.301   5.060   1.299
28163WAT     H184731   0.258   4.973   1.276
28163WAT     H284732   0.301   5.119   1.219
28164WAT      O84733   8.275   0.421   5.797
28164WAT     H184734   8.343   0.452   5.864
28164WAT     H284735   8.184   0.425   5.838
28165WAT      O84736   1.277   8.865   2.266
28165WAT     H184737   1.374   8.890   2.266
28165WAT     H284738   1.243   8.863   2.360
28166WAT      O84739   7.300   8.524   2.677
28166WAT     H184740   7.388   8.511   2.722
28166WAT     H284741   7.300   8.612   2.629
28167WAT      O84742   1.400   9.821   3.149
28167WAT     H184743   1.489   9.859   3.174
28167WAT     H284744   1.362   9.873   3.072
28168WAT      O84745   6.256   8.629   5.071
28168WAT     H184746   6.165   8.617   5.112
28168WAT     H284747   6.248   8.683   4.988
28169WAT      O84748   1.849   9.033   6.113
28169WAT     H184749   1.839   9.038   6.014
28169WAT     H284750   1.872   8.939   6.140
28170WAT      O84751   7.667   3.717   4.248
28170WAT     H184752   7.618   3.701   4.163
28170WAT     H284753   7.679   3.630   4.297
28171WAT      O84754   6.922   0.464   9.070
28171WAT     H184755   6.859   0.386   9.064
28171WAT     H284756   6.911   0.510   9.158
28172WAT      O84757   0.110   8.628   7.847
28172WAT     H184758   0.064   8.590   7.767
28172WAT     H284759   0.046   8.686   7.898
28173WAT      O84760   1.221   0.878   8.233
28173WAT     H184761   1.157   0.951   8.254
28173WAT     H284762   1.203   0.800   8.292
28174WAT      O84763   7.768   7.111   7.326
28174WAT     H184764   7.769   7.210   7.317
28174WAT     H284765   7.856   7.079   7.360
28175WAT      O84766   0.384   0.770   4.509
28175WAT     H184767   0.320   0.838   4.473
28175WAT     H284768   0.379   0.687   4.453
28176WAT      O84769   3.382   0.504   3.292
28176WAT     H184770   3.319   0.577   3.320
28176WAT     H284771   3.430   0.532   3.209
28177WAT      O84772   0.765   0.630   4.533
28177WAT     H184773   0.816   0.672   4.458
28177WAT     H284774   0.787   0.678   4.618
28178WAT      O84775   5.064   8.893   4.798
28178WAT     H184776   5.013   8.945   4.867
28178WAT     H284777   5.093   8.954   4.725
28179WAT      O84778   4.921   3.350   3.175
28179WAT     H184779   4.853   3.403   3.125
28179WAT     H284780   4.967   3.409   3.242
28180WAT      O84781   7.731   6.334   7.489
28180WAT     H184782   7.683   6.340   7.577
28180WAT     H284783   7.829   6.322   7.506
28181WAT      O84784   9.354   8.008   7.033
28181WAT     H184785   9.396   8.050   7.113
28181WAT     H284786   9.403   7.923   7.010
28182WAT      O84787   5.622   8.039   2.764
28182WAT     H184788   5.618   7.945   2.730
28182WAT     H284789   5.533   8.083   2.750
28183WAT      O84790   1.037   9.306   4.188
28183WAT     H184791   1.110   9.373   4.172
28183WAT     H284792   0.992   9.284   4.102
28184WAT      O84793   1.874   4.490   8.450
28184WAT     H184794   1.896   4.587   8.445
28184WAT     H284795   1.775   4.478   8.461
28185WAT      O84796   1.503   9.760   6.307
28185WAT     H184797   1.493   9.823   6.385
28185WAT     H284798   1.418   9.709   6.296
28186WAT      O84799   6.901   5.541   1.156
28186WAT     H184800   6.946   5.598   1.087
28186WAT     H284801   6.899   5.590   1.244
28187WAT      O84802   9.004   9.249   1.035
28187WAT     H184803   9.057   9.296   0.965
28187WAT     H284804   9.042   9.158   1.050
28188WAT      O84805   5.092   3.238   2.697
28188WAT     H184806   5.172   3.185   2.724
28188WAT     H284807   5.042   3.267   2.779
28189WAT      O84808   5.597   6.451   8.422
28189WAT     H184809   5.583   6.366   8.370
28189WAT     H284810   5.508   6.493   8.442
28190WAT      O84811   5.165   7.780   7.870
28190WAT     H184812   5.204   7.739   7.952
28190WAT     H284813   5.171   7.879   7.876
28191WAT      O84814   0.438   4.544   2.665
28191WAT     H184815   0.509   4.579   2.603
28191WAT     H284816   0.410   4.453   2.636
28192WAT      O84817   3.025   7.899   7.637
28192WAT     H184818   2.943   7.887   7.692
28192WAT     H284819   3.091   7.828   7.659
28193WAT      O84820   3.461   7.131   6.463
28193WAT     H184821   3.427   7.049   6.509
28193WAT     H284822   3.553   7.153   6.496
28194WAT      O84823   4.680   6.839   0.804
28194WAT     H184824   4.689   6.740   0.790
28194WAT     H284825   4.645   6.856   0.896
28195WAT      O84826   9.461   5.840   1.782
28195WAT     H184827   9.378   5.887   1.751
28195WAT     H284828   9.437   5.776   1.855
28196WAT      O84829   2.992   2.186   3.236
28196WAT     H184830   3.031   2.177   3.327
28196WAT     H284831   2.905   2.235   3.241
28197WAT      O84832   7.906   3.579   8.397
28197WAT     H184833   7.853   3.495   8.386
28197WAT     H284834   7.988   3.560   8.450
28198WAT      O84835   0.228   7.808   6.109
28198WAT     H184836   0.297   7.839   6.174
28198WAT     H284837   0.147   7.865   6.116
28199WAT      O84838   2.268   3.139   7.384
28199WAT     H184839   2.277   3.178   7.475
28199WAT     H284840   2.206   3.196   7.330
28200WAT      O84841   2.136   2.557   0.703
28200WAT     H184842   2.104   2.580   0.610
28200WAT     H284843   2.165   2.641   0.749
28201WAT      O84844   9.858   1.248   3.321
28201WAT     H184845   9.768   1.244   3.278
28201WAT     H284846   9.887   1.344   3.330
28202WAT      O84847   3.483   5.438   5.335
28202WAT     H184848   3.529   5.363   5.288
28202WAT     H284849   3.430   5.491   5.269
28203WAT      O84850   2.380   5.021   4.712
28203WAT     H184851   2.306   4.956   4.732
28203WAT     H284852   2.455   5.006   4.776
28204WAT      O84853   7.832   7.833   6.469
28204WAT     H184854   7.839   7.932   6.476
28204WAT     H284855   7.762   7.799   6.532
28205WAT      O84856   9.343   9.712   9.387
28205WAT     H184857   9.284   9.696   9.465
28205WAT     H284858   9.397   9.795   9.402
28206WAT      O84859   4.619   6.496   3.302
28206WAT     H184860   4.568   6.552   3.237
28206WAT     H284861   4.653   6.555   3.376
28207WAT      O84862   9.041   5.137   7.487
28207WAT     H184863   9.127   5.166   7.446
28207WAT     H284864   9.051   5.045   7.525
28208WAT      O84865   5.666   3.810   6.491
28208WAT     H184866   5.759   3.832   6.463
28208WAT     H284867   5.619   3.762   6.418
28209WAT      O84868   1.013   4.077   5.010
28209WAT     H184869   0.963   4.056   5.094
28209WAT     H284870   0.997   4.173   4.986
28210WAT      O84871   2.829   1.792   0.406
28210WAT     H184872   2.831   1.697   0.376
28210WAT     H284873   2.809   1.852   0.329
28211WAT      O84874   5.490   0.913   1.208
28211WAT     H184875   5.412   0.908   1.270
28211WAT     H284876   5.513   0.821   1.175
28212WAT      O84877   3.862   1.856   3.796
28212WAT     H184878   3.787   1.861   3.730
28212WAT     H284879   3.890   1.949   3.820
28213WAT      O84880   2.521   1.958   4.558
28213WAT     H184881   2.462   1.934   4.635
28213WAT     H284882   2.504   2.053   4.532
28214WAT      O84883   8.464   1.983   0.006
28214WAT     H184884   8.412   2.059  -0.032
28214WAT     H284885   8.562   2.005   0.004
28215WAT      O84886   9.822   7.426   5.545
28215WAT     H184887   9.830   7.352   5.612
28215WAT     H284888   9.907   7.433   5.493
28216WAT      O84889   4.945   0.282   1.766
28216WAT     H184890   4.944   0.194   1.717
28216WAT     H284891   4.857   0.295   1.812
28217WAT      O84892   3.499   4.562   7.888
28217WAT     H184893   3.527   4.519   7.974
28217WAT     H284894   3.465   4.654   7.906
28218WAT      O84895   2.914   6.592   7.766
28218WAT     H184896   2.824   6.554   7.787
28218WAT     H284897   2.922   6.682   7.808
28219WAT      O84898   8.886   6.470   7.073
28219WAT     H184899   8.862   6.375   7.057
28219WAT     H284900   8.970   6.475   7.128
28220WAT      O84901   6.744   3.247   2.332
28220WAT     H184902   6.664   3.192   2.357
28220WAT     H284903   6.751   3.326   2.393
28221WAT      O84904   1.437   1.259   0.109
28221WAT     H184905   1.383   1.215   0.181
28221WAT     H284906   1.525   1.211   0.100
28222WAT      O84907   8.394   8.132   1.454
28222WAT     H184908   8.425   8.039   1.476
28222WAT     H284909   8.462   8.198   1.485
28223WAT      O84910   8.263   1.457   1.114
28223WAT     H184911   8.245   1.503   1.027
28223WAT     H284912   8.325   1.513   1.169
28224WAT      O84913   7.168   4.790   1.548
28224WAT     H184914   7.198   4.742   1.630
28224WAT     H284915   7.068   4.798   1.548
28225WAT      O84916   3.899   5.378   9.569
28225WAT     H184917   3.905   5.475   9.547
28225WAT     H284918   3.889   5.325   9.485
28226WAT      O84919   1.096   8.137   5.340
28226WAT     H184920   1.126   8.053   5.294
28226WAT     H284921   1.017   8.117   5.398
28227WAT      O84922   9.713   9.671   1.922
28227WAT     H184923   9.628   9.633   1.884
28227WAT     H284924   9.752   9.736   1.857
28228WAT      O84925   7.348   0.016   8.049
28228WAT     H184926   7.361  -0.078   8.020
28228WAT     H284927   7.362   0.077   7.971
28229WAT      O84928   0.655   6.356   7.346
28229WAT     H184929   0.748   6.350   7.381
28229WAT     H284930   0.590   6.342   7.421
28230WAT      O84931   8.312   0.318   7.579
28230WAT     H184932   8.285   0.323   7.483
28230WAT     H284933   8.262   0.388   7.631
28231WAT      O84934   3.251   9.111   9.252
28231WAT     H184935   3.252   9.018   9.216
28231WAT     H284936   3.215   9.174   9.183
28232WAT      O84937   6.299   3.782   0.023
28232WAT     H184938   6.218   3.740   0.062
28232WAT     H284939   6.273   3.860  -0.034
28233WAT      O84940   3.053   8.897   7.853
28233WAT     H184941   3.095   8.808   7.839
28233WAT     H284942   2.994   8.919   7.776
28234WAT      O84943   9.222   1.898   5.234
28234WAT     H184944   9.289   1.922   5.303
28234WAT     H284945   9.238   1.804   5.204
28235WAT      O84946   2.075   7.514   3.553
28235WAT     H184947   1.997   7.563   3.514
28235WAT     H284948   2.123   7.574   3.617
28236WAT      O84949   0.923   7.292   0.960
28236WAT     H184950   0.975   7.368   0.998
28236WAT     H284951   0.833   7.324   0.930
28237WAT      O84952   7.154   9.691   0.344
28237WAT     H184953   7.173   9.602   0.385
28237WAT     H284954   7.172   9.763   0.411
28238WAT      O84955   0.312   9.681   3.445
28238WAT     H184956   0.356   9.678   3.534
28238WAT     H284957   0.308   9.775   3.413
28239WAT      O84958   2.884   7.671   6.404
28239WAT     H184959   2.983   7.683   6.405
28239WAT     H284960   2.839   7.756   6.433
28240WAT      O84961   8.380   2.070   7.226
28240WAT     H184962   8.466   2.022   7.239
28240WAT     H284963   8.394   2.147   7.164
28241WAT      O84964   0.642   4.193   0.592
28241WAT     H184965   0.711   4.129   0.559
28241WAT     H284966   0.596   4.236   0.514
28242WAT      O84967   8.432   0.954   1.339
28242WAT     H184968   8.463   0.896   1.414
28242WAT     H284969   8.443   0.905   1.253
28243WAT      O84970   8.159   6.204   4.983
28243WAT     H184971   8.219   6.281   5.005
28243WAT     H284972   8.212   6.131   4.941
28244WAT      O84973   8.956   9.825   3.069
28244WAT     H184974   8.965   9.923   3.050
28244WAT     H284975   9.020   9.775   3.010
28245WAT      O84976   3.121   9.007   2.394
28245WAT     H184977   3.089   8.976   2.484
28245WAT     H284978   3.220   9.020   2.396
28246WAT      O84979   6.292   7.188   4.802
28246WAT     H184980   6.363   7.121   4.825
28246WAT     H284981   6.249   7.222   4.885
28247WAT      O84982   6.845   8.780   3.061
28247WAT     H184983   6.904   8.743   3.133
28247WAT     H284984   6.830   8.710   2.991
28248WAT      O84985   8.020   2.501   2.677
28248WAT     H184986   8.056   2.483   2.585
28248WAT     H284987   8.065   2.582   2.714
28249WAT      O84988   0.804   5.542   2.402
28249WAT     H184989   0.715   5.525   2.359
28249WAT     H284990   0.791   5.596   2.485
28250WAT      O84991   8.553   1.593   7.090
28250WAT     H184992   8.487   1.663   7.063
28250WAT     H284993   8.583   1.543   7.009
28251WAT      O84994   1.268   2.930   3.570
28251WAT     H184995   1.237   2.900   3.660
28251WAT     H284996   1.344   2.994   3.581
28252WAT      O84997   4.099   4.749   8.349
28252WAT     H184998   4.130   4.839   8.319
28252WAT     H284999   4.141   4.726   8.437
28253WAT      O85000   8.005   9.400   8.171
28253WAT     H185001   8.102   9.392   8.147
28253WAT     H285002   7.996   9.445   8.260
28254WAT      O85003   8.493   0.672   3.757
28254WAT     H185004   8.460   0.751   3.705
28254WAT     H285005   8.551   0.703   3.832
28255WAT      O85006   3.640   3.593   2.536
28255WAT     H185007   3.630   3.538   2.619
28255WAT     H285008   3.726   3.569   2.491
28256WAT      O85009   6.813   3.023   7.496
28256WAT     H185010   6.871   2.955   7.540
28256WAT     H285011   6.861   3.111   7.492
28257WAT      O85012   2.054   0.543   9.359
28257WAT     H185013   2.147   0.511   9.376
28257WAT     H285014   2.022   0.596   9.438
28258WAT      O85015   8.864   2.168   5.241
28258WAT     H185016   8.851   2.168   5.340
28258WAT     H285017   8.801   2.233   5.199
28259WAT      O85018   7.049   7.516   6.904
28259WAT     H185019   7.029   7.582   6.977
28259WAT     H285020   7.115   7.448   6.938
28260WAT      O85021   6.654   3.357   4.368
28260WAT     H185022   6.556   3.341   4.356
28260WAT     H285023   6.701   3.346   4.281
28261WAT      O85024   2.812   7.401   3.541
28261WAT     H185025   2.754   7.360   3.470
28261WAT     H285026   2.903   7.418   3.504
28262WAT      O85027   4.548   5.991   6.928
28262WAT     H185028   4.479   6.058   6.955
28262WAT     H285029   4.583   6.014   6.837
28263WAT      O85030   5.332   0.357   0.551
28263WAT     H185031   5.296   0.450   0.542
28263WAT     H285032   5.256   0.292   0.556
28264WAT      O85033   7.024   9.347   9.559
28264WAT     H185034   7.076   9.277   9.511
28264WAT     H285035   7.065   9.364   9.649
28265WAT      O85036   7.541   4.922   9.120
28265WAT     H185037   7.640   4.913   9.130
28265WAT     H285038   7.495   4.890   9.203
28266WAT      O85039   8.574   2.858   8.111
28266WAT     H185040   8.558   2.956   8.097
28266WAT     H285041   8.570   2.811   8.022
28267WAT      O85042   1.228   9.088   1.164
28267WAT     H185043   1.130   9.106   1.159
28267WAT     H285044   1.274   9.135   1.088
28268WAT      O85045   5.855   4.228   9.734
28268WAT     H185046   5.874   4.285   9.813
28268WAT     H285047   5.756   4.227   9.716
28269WAT      O85048   6.931   5.530   2.921
28269WAT     H185049   6.974   5.441   2.929
28269WAT     H285050   6.909   5.549   2.826
28270WAT      O85051   9.019   5.683   1.880
28270WAT     H185052   8.980   5.768   1.842
28270WAT     H285053   8.972   5.604   1.841
28271WAT      O85054   1.950   5.682   5.744
28271WAT     H185055   1.979   5.643   5.831
28271WAT     H285056   1.929   5.779   5.757
28272WAT      O85057   4.493   8.942   2.535
28272WAT     H185058   4.565   8.874   2.521
28272WAT     H285059   4.404   8.904   2.510
28273WAT      O85060   7.247   4.905   3.757
28273WAT     H185061   7.246   4.937   3.662
28273WAT     H285062   7.340   4.879   3.782
28274WAT      O85063   5.806   6.777   1.495
28274WAT     H185064   5.849   6.689   1.514
28274WAT     H285065   5.801   6.792   1.396
28275WAT      O85066   3.453   4.032   1.412
28275WAT     H185067   3.474   4.129   1.418
28275WAT     H285068   3.479   3.987   1.498
28276WAT      O85069   0.750   5.652   3.188
28276WAT     H185070   0.848   5.634   3.202
28276WAT     H285071   0.697   5.589   3.244
28277WAT      O85072   0.442   5.250   9.223
28277WAT     H185073   0.404   5.173   9.171
28277WAT     H285074   0.368   5.300   9.268
28278WAT      O85075   0.918   0.127   7.252
28278WAT     H185076   0.998   0.074   7.224
28278WAT     H285077   0.861   0.145   7.172
28279WAT      O85078   3.717   3.338   7.246
28279WAT     H185079   3.657   3.415   7.228
28279WAT     H285080   3.670   3.271   7.304
28280WAT      O85081   6.741   4.658   7.052
28280WAT     H185082   6.746   4.649   6.953
28280WAT     H285083   6.656   4.705   7.076
28281WAT      O85084   7.603   1.347   5.291
28281WAT     H185085   7.580   1.431   5.242
28281WAT     H285086   7.672   1.297   5.240
28282WAT      O85087   2.745   8.299   3.279
28282WAT     H185088   2.755   8.393   3.248
28282WAT     H285089   2.750   8.237   3.201
28283WAT      O85090   3.990   2.756   8.887
28283WAT     H185091   3.940   2.841   8.902
28283WAT     H285092   4.067   2.750   8.951
28284WAT      O85093   5.360   3.049   0.239
28284WAT     H185094   5.432   3.040   0.170
28284WAT     H285095   5.365   3.140   0.280
28285WAT      O85096   5.310   9.520   7.820
28285WAT     H185097   5.317   9.504   7.721
28285WAT     H285098   5.362   9.603   7.843
28286WAT      O85099   1.274   5.408   4.344
28286WAT     H185100   1.287   5.310   4.358
28286WAT     H285101   1.191   5.438   4.392
28287WAT      O85102   0.556   2.880   4.315
28287WAT     H185103   0.592   2.828   4.393
28287WAT     H285104   0.545   2.976   4.342
28288WAT      O85105   6.540   3.865   7.123
28288WAT     H185106   6.539   3.788   7.187
28288WAT     H285107   6.478   3.845   7.047
28289WAT      O85108   0.411   6.812   7.205
28289WAT     H185109   0.336   6.844   7.146
28289WAT     H285110   0.489   6.787   7.147
28290WAT      O85111   2.991   8.641   3.349
28290WAT     H185112   3.013   8.572   3.418
28290WAT     H285113   2.919   8.606   3.288
28291WAT      O85114   4.752   6.637   2.355
28291WAT     H185115   4.740   6.735   2.338
28291WAT     H285116   4.819   6.600   2.290
28292WAT      O85117   2.362   0.412   7.786
28292WAT     H185118   2.339   0.386   7.879
28292WAT     H285119   2.347   0.511   7.774
28293WAT      O85120   1.786   9.541   5.325
28293WAT     H185121   1.731   9.624   5.310
28293WAT     H285122   1.832   9.516   5.241
28294WAT      O85123   2.181   9.013   9.289
28294WAT     H185124   2.209   9.000   9.385
28294WAT     H285125   2.081   9.019   9.284
28295WAT      O85126   8.009   2.532   9.644
28295WAT     H185127   8.019   2.484   9.557
28295WAT     H285128   7.916   2.519   9.679
28296WAT      O85129   8.941   3.797   2.690
28296WAT     H185130   9.023   3.762   2.734
28296WAT     H285131   8.965   3.836   2.601
28297WAT      O85132   9.456   2.219   7.392
28297WAT     H185133   9.518   2.232   7.469
28297WAT     H285134   9.370   2.180   7.425
28298WAT      O85135   8.474   1.944   1.503
28298WAT     H185136   8.440   2.022   1.451
28298WAT     H285137   8.463   1.861   1.448
28299WAT      O85138   7.451   3.165   7.659
28299WAT     H185139   7.488   3.075   7.682
28299WAT     H285140   7.492   3.233   7.720
28300WAT      O85141   1.320   1.662   9.517
28300WAT     H185142   1.274   1.748   9.494
28300WAT     H285143   1.318   1.648   9.616
28301WAT      O85144   0.141   4.245   1.580
28301WAT     H185145   0.239   4.266   1.589
28301WAT     H285146   0.119   4.231   1.483
28302WAT      O85147   8.319   6.010   6.668
28302WAT     H185148   8.305   6.059   6.582
28302WAT     H285149   8.353   6.073   6.737
28303WAT      O85150   9.194   4.332   3.771
28303WAT     H185151   9.251   4.338   3.689
28303WAT     H285152   9.239   4.272   3.838
28304WAT      O85153   4.607   5.474   9.134
28304WAT     H185154   4.691   5.528   9.140
28304WAT     H285155   4.630   5.376   9.135
28305WAT      O85156   6.415   9.618   1.418
28305WAT     H185157   6.500   9.582   1.379
28305WAT     H285158   6.435   9.694   1.480
28306WAT      O85159   9.022   2.823   4.876
28306WAT     H185160   9.047   2.731   4.845
28306WAT     H285161   9.015   2.884   4.798
28307WAT      O85162   3.796   6.390   2.683
28307WAT     H185163   3.890   6.422   2.698
28307WAT     H285164   3.732   6.452   2.729
28308WAT      O85165   7.983   2.267   6.271
28308WAT     H185166   8.001   2.213   6.353
28308WAT     H285167   7.936   2.210   6.203
28309WAT      O85168   6.461   6.710   2.944
28309WAT     H185169   6.480   6.661   2.859
28309WAT     H285170   6.428   6.646   3.013
28310WAT      O85171   0.168   2.130   5.170
28310WAT     H185172   0.086   2.073   5.158
28310WAT     H285173   0.159   2.212   5.114
28311WAT      O85174   6.841   2.964   5.139
28311WAT     H185175   6.871   2.977   5.233
28311WAT     H285176   6.767   3.028   5.118
28312WAT      O85177   7.299   1.120   6.348
28312WAT     H185178   7.369   1.190   6.338
28312WAT     H285179   7.211   1.156   6.315
28313WAT      O85180   3.662   2.848   7.026
28313WAT     H185181   3.715   2.804   7.099
28313WAT     H285182   3.688   2.944   7.019
28314WAT      O85183   6.696   3.997   6.900
28314WAT     H185184   6.796   3.995   6.906
28314WAT     H285185   6.657   3.937   6.970
28315WAT      O85186   5.137   7.521   2.007
28315WAT     H185187   5.125   7.594   2.074
28315WAT     H285188   5.184   7.444   2.050
28316WAT      O85189   0.320   7.132   2.171
28316WAT     H185190   0.312   7.207   2.106
28316WAT     H285191   0.254   7.061   2.148
28317WAT      O85192   3.081   0.998   2.188
28317WAT     H185193   3.000   1.054   2.206
28317WAT     H285194   3.160   1.058   2.174
28318WAT      O85195   6.879   4.708   6.471
28318WAT     H185196   6.928   4.668   6.394
28318WAT     H285197   6.925   4.791   6.501
28319WAT      O85198   2.911   9.642   4.289
28319WAT     H185199   2.905   9.673   4.384
28319WAT     H285200   3.004   9.658   4.255
28320WAT      O85201   2.440   6.044   9.500
28320WAT     H185202   2.466   5.973   9.435
28320WAT     H285203   2.342   6.036   9.521
28321WAT      O85204   8.285   5.084   4.960
28321WAT     H185205   8.357   5.153   4.963
28321WAT     H285206   8.271   5.053   4.866
28322WAT      O85207   5.142   7.399   0.256
28322WAT     H185208   5.100   7.332   0.194
28322WAT     H285209   5.160   7.355   0.344
28323WAT      O85210   3.666   5.076   1.920
28323WAT     H185211   3.714   4.989   1.909
28323WAT     H285212   3.705   5.144   1.859
28324WAT      O85213   6.224   5.100   1.284
28324WAT     H185214   6.215   5.194   1.318
28324WAT     H285215   6.216   5.036   1.361
28325WAT      O85216   5.535   1.063   2.535
28325WAT     H185217   5.635   1.070   2.532
28325WAT     H285218   5.508   1.017   2.619
28326WAT      O85219   1.605   0.911   2.753
28326WAT     H185220   1.536   0.868   2.811
28326WAT     H285221   1.601   1.010   2.765
28327WAT      O85222   4.473   3.948   0.728
28327WAT     H185223   4.522   4.011   0.668
28327WAT     H285224   4.381   3.934   0.693
28328WAT      O85225   9.411   5.171   5.510
28328WAT     H185226   9.368   5.245   5.563
28328WAT     H285227   9.418   5.089   5.567
28329WAT      O85228   6.057   6.128   2.847
28329WAT     H185229   6.029   6.038   2.813
28329WAT     H285230   6.156   6.135   2.845
28330WAT      O85231   9.466   0.416   2.861
28330WAT     H185232   9.517   0.371   2.934
28330WAT     H285233   9.378   0.370   2.850
28331WAT      O85234   8.724   0.112   5.482
28331WAT     H185235   8.764   0.199   5.510
28331WAT     H285236   8.796   0.052   5.447
28332WAT      O85237   2.413   2.460   4.243
28332WAT     H185238   2.407   2.364   4.269
28332WAT     H285239   2.349   2.479   4.169
28333WAT      O85240   9.283   8.571   5.788
28333WAT     H185241   9.314   8.634   5.860
28333WAT     H285242   9.213   8.616   5.733
28334WAT      O85243   8.873   5.475   6.627
28334WAT     H185244   8.958   5.468   6.681
28334WAT     H285245   8.844   5.383   6.601
28335WAT      O85246   6.779   5.743   3.446
28335WAT     H185247   6.856   5.697   3.401
28335WAT     H285248   6.693   5.701   3.415
28336WAT      O85249   6.433   5.977   6.640
28336WAT     H185250   6.424   6.013   6.733
28336WAT     H285251   6.348   5.930   6.614
28337WAT      O85252   5.644   7.852   9.885
28337WAT     H185253   5.568   7.913   9.865
28337WAT     H285254   5.634   7.816   9.978
28338WAT      O85255   1.651   4.343   3.355
28338WAT     H185256   1.683   4.420   3.301
28338WAT     H285257   1.728   4.280   3.372
28339WAT      O85258   8.951   9.189   1.571
28339WAT     H185259   8.981   9.237   1.653
28339WAT     H285260   8.966   9.247   1.491
28340WAT      O85261   2.987   5.636   1.684
28340WAT     H185262   2.974   5.684   1.770
28340WAT     H285263   2.927   5.556   1.680
28341WAT      O85264   0.457   6.522   5.282
28341WAT     H185265   0.455   6.516   5.382
28341WAT     H285266   0.473   6.432   5.243
28342WAT      O85267   1.124   0.970   6.544
28342WAT     H185268   1.162   1.050   6.497
28342WAT     H285269   1.055   0.928   6.486
28343WAT      O85270   7.160   6.579   5.624
28343WAT     H185271   7.069   6.549   5.652
28343WAT     H285272   7.152   6.661   5.567
28344WAT      O85273   1.283   2.329   8.135
28344WAT     H185274   1.189   2.301   8.155
28344WAT     H285275   1.284   2.383   8.051
28345WAT      O85276   9.821   8.214   3.674
28345WAT     H185277   9.764   8.284   3.630
28345WAT     H285278   9.782   8.124   3.656
28346WAT      O85279   1.786   8.467   8.239
28346WAT     H185280   1.700   8.433   8.201
28346WAT     H285281   1.855   8.395   8.235
28347WAT      O85282   3.049   0.567   1.678
28347WAT     H185283   3.146   0.576   1.699
28347WAT     H285284   3.005   0.508   1.746
28348WAT      O85285   7.392   2.650   3.272
28348WAT     H185286   7.488   2.638   3.249
28348WAT     H285287   7.381   2.654   3.371
28349WAT      O85288   8.354   9.191   6.886
28349WAT     H185289   8.405   9.277   6.879
28349WAT     H285290   8.387   9.140   6.966
28350WAT      O85291   1.836   6.068   3.219
28350WAT     H185292   1.929   6.034   3.235
28350WAT     H285293   1.830   6.105   3.126
28351WAT      O85294   5.106   6.561   9.518
28351WAT     H185295   5.021   6.540   9.566
28351WAT     H285296   5.086   6.607   9.432
28352WAT      O85297   0.545   3.366   4.010
28352WAT     H185298   0.544   3.267   3.995
28352WAT     H285299   0.463   3.407   3.968
28353WAT      O85300   9.660   3.060   2.125
28353WAT     H185301   9.717   3.140   2.147
28353WAT     H285302   9.671   2.991   2.197
28354WAT      O85303   8.128   2.682   1.463
28354WAT     H185304   8.073   2.607   1.499
28354WAT     H285305   8.161   2.738   1.539
28355WAT      O85306   4.825   0.726   7.466
28355WAT     H185307   4.754   0.657   7.482
28355WAT     H285308   4.910   0.682   7.438
28356WAT      O85309   8.459   7.385   0.491
28356WAT     H185310   8.404   7.438   0.427
28356WAT     H285311   8.533   7.339   0.443
28357WAT      O85312   4.507   7.509   7.078
28357WAT     H185313   4.409   7.496   7.064
28357WAT     H285314   4.558   7.462   7.006
28358WAT      O85315   0.207   6.161   7.540
28358WAT     H185316   0.230   6.258   7.531
28358WAT     H285317   0.244   6.126   7.627
28359WAT      O85318   7.866   9.130   9.463
28359WAT     H185319   7.904   9.040   9.443
28359WAT     H285320   7.920   9.201   9.418
28360WAT      O85321   3.909   1.946   5.411
28360WAT     H185322   3.961   1.974   5.491
28360WAT     H285323   3.877   1.852   5.424
28361WAT      O85324   9.855   3.011   7.103
28361WAT     H185325   9.869   2.993   7.005
28361WAT     H285326   9.822   2.928   7.147
28362WAT      O85327   3.607   3.298   8.349
28362WAT     H185328   3.544   3.374   8.369
28362WAT     H285329   3.674   3.291   8.423
28363WAT      O85330   4.141   5.086   9.421
28363WAT     H185331   4.124   4.989   9.435
28363WAT     H285332   4.107   5.114   9.331
28364WAT      O85333   0.220   7.231   7.917
28364WAT     H185334   0.134   7.206   7.961
28364WAT     H285335   0.201   7.288   7.837
28365WAT      O85336   5.109   3.592   6.458
28365WAT     H185337   5.185   3.632   6.407
28365WAT     H285338   5.052   3.537   6.397
28366WAT      O85339   7.159   2.000   1.529
28366WAT     H185340   7.145   2.090   1.486
28366WAT     H285341   7.074   1.969   1.571
28367WAT      O85342   7.902   6.082   0.269
28367WAT     H185343   7.856   6.123   0.190
28367WAT     H285344   7.882   6.135   0.351
28368WAT      O85345   4.403   2.956   5.643
28368WAT     H185346   4.356   3.009   5.714
28368WAT     H285347   4.407   2.860   5.670
28369WAT      O85348   8.632   8.003   1.047
28369WAT     H185349   8.539   7.983   1.077
28369WAT     H285350   8.633   8.089   0.995
28370WAT      O85351   2.757   5.450   5.947
28370WAT     H185352   2.687   5.434   6.017
28370WAT     H285353   2.838   5.491   5.989
28371WAT      O85354   3.298   3.193   0.689
28371WAT     H185355   3.253   3.203   0.600
28371WAT     H285356   3.344   3.279   0.712
28372WAT      O85357   2.533   2.821   8.347
28372WAT     H185358   2.436   2.809   8.368
28372WAT     H285359   2.565   2.745   8.291
28373WAT      O85360   5.022   6.947   7.610
28373WAT     H185361   4.967   7.030   7.606
28373WAT     H285362   5.119   6.970   7.603
28374WAT      O85363   6.998   2.053   0.848
28374WAT     H185364   6.968   2.115   0.776
28374WAT     H285365   7.064   1.988   0.810
28375WAT      O85366   5.906   8.427   2.907
28375WAT     H185367   5.859   8.393   2.825
28375WAT     H285368   5.949   8.350   2.955
28376WAT      O85369   6.663   1.738   5.985
28376WAT     H185370   6.716   1.774   6.062
28376WAT     H285371   6.708   1.657   5.949
28377WAT      O85372   2.051   7.860   0.583
28377WAT     H185373   2.056   7.768   0.622
28377WAT     H285374   2.125   7.916   0.620
28378WAT      O85375   2.879   2.650   2.690
28378WAT     H185376   2.871   2.712   2.768
28378WAT     H285377   2.961   2.673   2.637
28379WAT      O85378   1.868   5.841   9.884
28379WAT     H185379   1.838   5.746   9.876
28379WAT     H285380   1.932   5.849   9.960
28380WAT      O85381   7.209   4.136   9.890
28380WAT     H185382   7.280   4.153   9.821
28380WAT     H285383   7.174   4.043   9.879
28381WAT      O85384   0.619   1.805   6.098
28381WAT     H185385   0.715   1.824   6.120
28381WAT     H285386   0.604   1.706   6.098
28382WAT      O85387   2.882   1.049   7.011
28382WAT     H185388   2.847   0.956   7.013
28382WAT     H285389   2.900   1.080   7.104
28383WAT      O85390   5.749   5.833   3.304
28383WAT     H185391   5.712   5.839   3.397
28383WAT     H285392   5.689   5.880   3.240
28384WAT      O85393   4.624   3.077   2.213
28384WAT     H185394   4.552   3.016   2.244
28384WAT     H285395   4.708   3.059   2.265
28385WAT      O85396   8.645   2.251   4.678
28385WAT     H185397   8.691   2.217   4.760
28385WAT     H285398   8.582   2.325   4.703
28386WAT      O85399   0.480   2.430   9.845
28386WAT     H185400   0.411   2.363   9.819
28386WAT     H285401   0.436   2.518   9.866
28387WAT      O85402   2.826   6.667   2.913
28387WAT     H185403   2.794   6.702   2.825
28387WAT     H285404   2.832   6.742   2.979
28388WAT      O85405   8.649   6.888   2.952
28388WAT     H185406   8.720   6.957   2.941
28388WAT     H285407   8.670   6.832   3.033
28389WAT      O85408   5.781   6.609   0.802
28389WAT     H185409   5.819   6.522   0.833
28389WAT     H285410   5.723   6.593   0.722
28390WAT      O85411   5.209   2.823   5.688
28390WAT     H185412   5.267   2.896   5.651
28390WAT     H285413   5.179   2.764   5.613
28391WAT      O85414   2.438   7.791   9.552
28391WAT     H185415   2.369   7.759   9.487
28391WAT     H285416   2.524   7.742   9.536
28392WAT      O85417   3.199   0.357   3.972
28392WAT     H185418   3.109   0.380   3.936
28392WAT     H285419   3.198   0.265   4.010
28393WAT      O85420   2.051   1.693   8.832
28393WAT     H185421   1.991   1.770   8.851
28393WAT     H285422   2.145   1.716   8.859
28394WAT      O85423   6.044   1.230   6.201
28394WAT     H185424   5.961   1.233   6.256
28394WAT     H285425   6.025   1.184   6.115
28395WAT      O85426   0.428   2.895   2.668
28395WAT     H185427   0.377   2.920   2.585
28395WAT     H285428   0.421   2.970   2.735
28396WAT      O85429   1.249   9.661   6.240
28396WAT     H185430   1.227   9.627   6.332
28396WAT     H285431   1.237   9.760   6.237
28397WAT      O85432   3.018   6.469   3.668
28397WAT     H185433   3.094   6.434   3.723
28397WAT     H285434   3.012   6.569   3.679
28398WAT      O85435   9.112   7.889   6.503
28398WAT     H185436   9.058   7.867   6.422
28398WAT     H285437   9.054   7.881   6.584
28399WAT      O85438   5.425   5.609   8.527
28399WAT     H185439   5.361   5.564   8.464
28399WAT     H285440   5.393   5.702   8.546
28400WAT      O85441   6.019   7.085   0.455
28400WAT     H185442   6.118   7.100   0.447
28400WAT     H285443   5.988   7.115   0.545
28401WAT      O85444   2.043   7.318   3.946
28401WAT     H185445   2.065   7.252   3.875
28401WAT     H285446   2.071   7.282   4.035
28402WAT      O85447   1.184   0.294   7.361
28402WAT     H185448   1.135   0.381   7.356
28402WAT     H285449   1.136   0.226   7.305
28403WAT      O85450   2.002   8.671   3.601
28403WAT     H185451   2.099   8.664   3.625
28403WAT     H285452   1.958   8.739   3.659
28404WAT      O85453   3.781   6.561   4.109
28404WAT     H185454   3.836   6.560   4.193
28404WAT     H285455   3.686   6.581   4.131
28405WAT      O85456   2.693   8.930   6.304
28405WAT     H185457   2.670   8.889   6.216
28405WAT     H285458   2.793   8.940   6.311
28406WAT      O85459   3.078   7.448   5.508
28406WAT     H185460   3.098   7.482   5.600
28406WAT     H285461   3.162   7.442   5.455
28407WAT      O85462   4.744   1.623   0.133
28407WAT     H185463   4.671   1.584   0.190
28407WAT     H285464   4.735   1.590   0.039
28408WAT      O85465   2.187   7.262   5.718
28408WAT     H185466   2.187   7.236   5.622
28408WAT     H285467   2.281   7.276   5.749
28409WAT      O85468   2.576   3.190   4.748
28409WAT     H185469   2.673   3.179   4.727
28409WAT     H285470   2.526   3.208   4.663
28410WAT      O85471   7.308   6.953   7.393
28410WAT     H185472   7.257   6.936   7.477
28410WAT     H285473   7.351   7.043   7.398
28411WAT      O85474   8.526   1.897   9.055
28411WAT     H185475   8.478   1.817   9.090
28411WAT     H285476   8.624   1.878   9.050
28412WAT      O85477   8.897   4.323   8.789
28412WAT     H185478   8.937   4.354   8.703
28412WAT     H285479   8.823   4.384   8.815
28413WAT      O85480   7.645   4.186   6.793
28413WAT     H185481   7.587   4.243   6.736
28413WAT     H285482   7.733   4.231   6.807
28414WAT      O85483   7.950   5.430   5.005
28414WAT     H185484   7.903   5.515   4.981
28414WAT     H285485   7.890   5.374   5.063
28415WAT      O85486   6.938   0.095   2.348
28415WAT     H185487   6.881   0.052   2.418
28415WAT     H285488   6.994   0.166   2.389
28416WAT      O85489   4.824   0.726   3.156
28416WAT     H185490   4.809   0.641   3.105
28416WAT     H285491   4.904   0.716   3.214
28417WAT      O85492   6.621   6.392   9.110
28417WAT     H185493   6.564   6.311   9.113
28417WAT     H285494   6.679   6.389   9.029
28418WAT      O85495   5.980   2.485   5.780
28418WAT     H185496   5.955   2.440   5.694
28418WAT     H285497   6.070   2.527   5.770
28419WAT      O85498   0.853   4.022   3.599
28419WAT     H185499   0.913   3.986   3.528
28419WAT     H285500   0.906   4.076   3.664
28420WAT      O85501   1.211   0.563   7.702
28420WAT     H185502   1.237   0.659   7.694
28420WAT     H285503   1.293   0.506   7.707
28421WAT      O85504   9.198   1.247   2.678
28421WAT     H185505   9.182   1.206   2.589
28421WAT     H285506   9.144   1.200   2.747
28422WAT      O85507   8.751   2.790   4.739
28422WAT     H185508   8.752   2.881   4.779
28422WAT     H285509   8.661   2.771   4.701
28423WAT      O85510   0.334   5.715   3.261
28423WAT     H185511   0.259   5.773   3.231
28423WAT     H285512   0.366   5.659   3.185
28424WAT      O85513   9.867   2.770   6.221
28424WAT     H185514   9.879   2.851   6.163
28424WAT     H285515   9.827   2.696   6.167
28425WAT      O85516   1.298   6.724   6.887
28425WAT     H185517   1.213   6.725   6.833
28425WAT     H285518   1.281   6.766   6.976
28426WAT      O85519   3.928   0.090   6.768
28426WAT     H185520   3.862   0.057   6.701
28426WAT     H285521   4.003   0.137   6.722
28427WAT      O85522   0.022   3.244   9.290
28427WAT     H185523   0.031   3.209   9.197
28427WAT     H285524   0.044   3.341   9.292
28428WAT      O85525   6.280   4.760   3.321
28428WAT     H185526   6.235   4.833   3.372
28428WAT     H285527   6.359   4.727   3.373
28429WAT      O85528   1.425   5.080   0.727
28429WAT     H185529   1.496   5.011   0.741
28429WAT     H285530   1.364   5.081   0.806
28430WAT      O85531   1.680   9.577   6.480
28430WAT     H185532   1.657   9.489   6.438
28430WAT     H285533   1.601   9.638   6.476
28431WAT      O85534   8.058   1.545   3.300
28431WAT     H185535   7.992   1.609   3.339
28431WAT     H285536   8.151   1.579   3.317
28432WAT      O85537   9.773   9.559   6.970
28432WAT     H185538   9.859   9.543   7.019
28432WAT     H285539   9.702   9.582   7.037
28433WAT      O85540   5.410   5.640   0.175
28433WAT     H185541   5.407   5.616   0.272
28433WAT     H285542   5.374   5.732   0.162
28434WAT      O85543   9.580   0.439   6.539
28434WAT     H185544   9.481   0.448   6.551
28434WAT     H285545   9.619   0.528   6.513
28435WAT      O85546   4.768   0.542   8.418
28435WAT     H185547   4.690   0.575   8.364
28435WAT     H285548   4.736   0.514   8.509
28436WAT      O85549   5.976   4.399   0.839
28436WAT     H185550   6.018   4.479   0.881
28436WAT     H285551   6.022   4.316   0.871
28437WAT      O85552   8.537   0.575   3.498
28437WAT     H185553   8.454   0.545   3.450
28437WAT     H285554   8.516   0.587   3.595
28438WAT      O85555   1.412   2.157   2.825
28438WAT     H185556   1.503   2.173   2.787
28438WAT     H285557   1.362   2.244   2.829
28439WAT      O85558   8.561   1.452   0.383
28439WAT     H185559   8.659   1.449   0.365
28439WAT     H285560   8.513   1.396   0.316
28440WAT      O85561   6.967   6.202   3.823
28440WAT     H185562   6.888   6.141   3.812
28440WAT     H285563   6.938   6.296   3.809
28441WAT      O85564   6.690   2.109   1.137
28441WAT     H185565   6.648   2.087   1.225
28441WAT     H285566   6.628   2.082   1.063
28442WAT      O85567   1.245   8.857   8.713
28442WAT     H185568   1.270   8.760   8.708
28442WAT     H285569   1.186   8.872   8.792
28443WAT      O85570   8.538   4.290   0.238
28443WAT     H185571   8.496   4.379   0.224
28443WAT     H285572   8.468   4.219   0.239
28444WAT      O85573   7.833   3.853   5.800
28444WAT     H185574   7.859   3.891   5.712
28444WAT     H285575   7.881   3.767   5.815
28445WAT      O85576   9.602   5.925   9.644
28445WAT     H185577   9.579   5.905   9.549
28445WAT     H285578   9.527   5.978   9.686
28446WAT      O85579   0.475   6.839   3.070
28446WAT     H185580   0.399   6.775   3.084
28446WAT     H285581   0.444   6.932   3.087
28447WAT      O85582   9.363   3.218   2.580
28447WAT     H185583   9.442   3.245   2.526
28447WAT     H285584   9.393   3.182   2.668
28448WAT      O85585   3.866   8.266   2.957
28448WAT     H185586   3.874   8.239   3.053
28448WAT     H285587   3.802   8.205   2.910
28449WAT      O85588   6.179   4.096   1.522
28449WAT     H185589   6.084   4.068   1.505
28449WAT     H285590   6.217   4.041   1.596
28450WAT      O85591   8.133   6.088   3.007
28450WAT     H185592   8.049   6.115   3.055
28450WAT     H285593   8.120   5.999   2.964
28451WAT      O85594   6.830   6.143   1.153
28451WAT     H185595   6.887   6.225   1.159
28451WAT     H285596   6.734   6.169   1.161
28452WAT      O85597   0.763   1.087   1.827
28452WAT     H185598   0.856   1.120   1.813
28452WAT     H285599   0.699   1.164   1.822
28453WAT      O85600   8.399   4.650   2.864
28453WAT     H185601   8.357   4.685   2.780
28453WAT     H285602   8.497   4.636   2.848
28454WAT      O85603   9.071   0.101   8.003
28454WAT     H185604   9.041   0.022   7.950
28454WAT     H285605   9.169   0.096   8.019
28455WAT      O85606   7.276   4.084   9.349
28455WAT     H185607   7.288   4.023   9.428
28455WAT     H285608   7.207   4.045   9.288
28456WAT      O85609   6.190   8.636   5.692
28456WAT     H185610   6.174   8.686   5.777
28456WAT     H285611   6.190   8.538   5.711
28457WAT      O85612   4.973   1.816   3.815
28457WAT     H185613   4.991   1.720   3.793
28457WAT     H285614   4.914   1.855   3.745
28458WAT      O85615   7.762   8.182   2.215
28458WAT     H185616   7.831   8.123   2.257
28458WAT     H285617   7.736   8.254   2.279
28459WAT      O85618   5.968   8.800   6.073
28459WAT     H185619   5.933   8.887   6.106
28459WAT     H285620   5.946   8.728   6.139
28460WAT      O85621   5.228   0.296   4.730
28460WAT     H185622   5.165   0.225   4.762
28460WAT     H285623   5.250   0.357   4.806
28461WAT      O85624   5.283   5.458   4.418
28461WAT     H185625   5.227   5.531   4.458
28461WAT     H285626   5.244   5.429   4.331
28462WAT      O85627   4.282   8.212   6.748
28462WAT     H185628   4.316   8.231   6.840
28462WAT     H285629   4.267   8.113   6.738
28463WAT      O85630   6.380   9.313   0.740
28463WAT     H185631   6.451   9.352   0.799
28463WAT     H285632   6.296   9.367   0.750
28464WAT      O85633   8.889   3.007   0.490
28464WAT     H185634   8.822   2.938   0.462
28464WAT     H285635   8.887   3.083   0.425
28465WAT      O85636   4.448   7.073   6.921
28465WAT     H185637   4.518   7.002   6.912
28465WAT     H285638   4.427   7.111   6.831
28466WAT      O85639   9.662   2.801   0.815
28466WAT     H185640   9.684   2.705   0.833
28466WAT     H285641   9.569   2.809   0.779
28467WAT      O85642   7.998   2.472   1.575
28467WAT     H185643   8.047   2.413   1.511
28467WAT     H285644   8.011   2.438   1.668
28468WAT      O85645   8.517   5.202   1.166
28468WAT     H185646   8.521   5.154   1.078
28468WAT     H285647   8.609   5.231   1.192
28469WAT      O85648   7.786   3.415   4.171
28469WAT     H185649   7.883   3.429   4.191
28469WAT     H285650   7.736   3.404   4.257
28470WAT      O85651   7.179   4.278   6.547
28470WAT     H185652   7.121   4.211   6.500
28470WAT     H285653   7.134   4.367   6.546
28471WAT      O85654   2.967   4.100   3.483
28471WAT     H185655   2.900   4.033   3.515
28471WAT     H285656   3.040   4.109   3.551
28472WAT      O85657   5.088   0.872   6.681
28472WAT     H185658   5.057   0.916   6.597
28472WAT     H285659   5.069   0.774   6.675
28473WAT      O85660   3.312   7.618   7.134
28473WAT     H185661   3.301   7.591   7.230
28473WAT     H285662   3.305   7.538   7.075
28474WAT      O85663   0.442   2.631   7.789
28474WAT     H185664   0.475   2.596   7.701
28474WAT     H285665   0.485   2.719   7.809
28475WAT      O85666   0.935   8.755   1.453
28475WAT     H185667   0.999   8.680   1.471
28475WAT     H285668   0.842   8.723   1.468
28476WAT      O85669   4.778   3.571   3.035
28476WAT     H185670   4.717   3.648   3.021
28476WAT     H285671   4.776   3.512   2.954
28477WAT      O85672   7.899   7.009   3.016
28477WAT     H185673   7.815   6.965   2.985
28477WAT     H285674   7.882   7.056   3.102
28478WAT      O85675   8.128   3.391   6.972
28478WAT     H185676   8.063   3.319   6.951
28478WAT     H285677   8.135   3.402   7.071
28479WAT      O85678   6.368   7.569   1.735
28479WAT     H185679   6.437   7.535   1.798
28479WAT     H285680   6.304   7.496   1.713
28480WAT      O85681   5.354   6.044   9.519
28480WAT     H185682   5.398   6.094   9.445
28480WAT     H285683   5.282   5.986   9.482
28481WAT      O85684   5.159   4.034   5.191
28481WAT     H185685   5.124   3.995   5.276
28481WAT     H285686   5.254   4.005   5.178
28482WAT      O85687   5.089   9.499   0.543
28482WAT     H185688   5.103   9.491   0.642
28482WAT     H285689   5.175   9.524   0.499
28483WAT      O85690   4.759   2.951   6.804
28483WAT     H185691   4.806   3.039   6.811
28483WAT     H285692   4.824   2.879   6.782
28484WAT      O85693   0.488   9.343   5.907
28484WAT     H185694   0.467   9.411   5.838
28484WAT     H285695   0.479   9.251   5.868
28485WAT      O85696   1.873   4.217   8.581
28485WAT     H185697   1.898   4.235   8.486
28485WAT     H285698   1.775   4.233   8.593
28486WAT      O85699   0.249   7.942   0.500
28486WAT     H185700   0.348   7.957   0.488
28486WAT     H285701   0.229   7.931   0.597
28487WAT      O85702   4.109   8.385   1.187
28487WAT     H185703   4.049   8.443   1.242
28487WAT     H285704   4.198   8.378   1.232
28488WAT      O85705   5.650   4.229   5.087
28488WAT     H185706   5.621   4.168   5.160
28488WAT     H285707   5.571   4.282   5.055
28489WAT      O85708   2.069   3.335   2.684
28489WAT     H185709   2.154   3.333   2.737
28489WAT     H285710   1.992   3.312   2.743
28490WAT      O85711   9.033   4.019   5.477
28490WAT     H185712   9.031   4.024   5.377
28490WAT     H285713   9.092   3.943   5.504
28491WAT      O85714   3.750   5.124   0.736
28491WAT     H185715   3.817   5.071   0.788
28491WAT     H285716   3.658   5.104   0.769
28492WAT      O85717   9.662   5.298   0.389
28492WAT     H185718   9.602   5.360   0.338
28492WAT     H285719   9.694   5.344   0.472
28493WAT      O85720   0.258   8.376   5.989
28493WAT     H185721   0.324   8.451   5.998
28493WAT     H285722   0.209   8.386   5.903
28494WAT      O85723   7.589   0.393   0.825
28494WAT     H185724   7.584   0.374   0.923
28494WAT     H285725   7.534   0.474   0.804
28495WAT      O85726   2.078   5.832   4.541
28495WAT     H185727   1.995   5.783   4.567
28495WAT     H285728   2.121   5.786   4.463
28496WAT      O85729   4.549   5.281   4.836
28496WAT     H185730   4.458   5.239   4.838
28496WAT     H285731   4.616   5.215   4.869
28497WAT      O85732   3.914   1.178   5.315
28497WAT     H185733   3.897   1.218   5.225
28497WAT     H285734   3.871   1.088   5.321
28498WAT      O85735   0.018   6.384   6.632
28498WAT     H185736   0.077   6.336   6.697
28498WAT     H285737  -0.006   6.474   6.669
28499WAT      O85738   8.095   8.177   9.701
28499WAT     H185739   8.010   8.128   9.682
28499WAT     H285740   8.170   8.135   9.650
28500WAT      O85741   0.813   3.068   0.464
28500WAT     H185742   0.797   3.163   0.491
28500WAT     H285743   0.737   3.011   0.495
28501WAT      O85744   7.287   6.534   7.308
28501WAT     H185745   7.323   6.611   7.360
28501WAT     H285746   7.296   6.450   7.362
28502WAT      O85747   8.374   4.180   3.206
28502WAT     H185748   8.320   4.198   3.288
28502WAT     H285749   8.367   4.084   3.181
28503WAT      O85750   7.535   4.590   0.759
28503WAT     H185751   7.447   4.568   0.802
28503WAT     H285752   7.596   4.632   0.827
28504WAT      O85753   0.958   1.287   5.881
28504WAT     H185754   1.019   1.355   5.921
28504WAT     H285755   0.893   1.333   5.820
28505WAT      O85756   9.526   6.799   6.008
28505WAT     H185757   9.559   6.758   6.093
28505WAT     H285758   9.603   6.819   5.949
28506WAT      O85759   8.776   5.517   7.833
28506WAT     H185760   8.814   5.426   7.817
28506WAT     H285761   8.677   5.515   7.822
28507WAT      O85762   9.775   5.954   6.995
28507WAT     H185763   9.743   5.969   6.902
28507WAT     H285764   9.729   5.874   7.034
28508WAT      O85765   2.761   1.059   2.299
28508WAT     H185766   2.767   0.960   2.312
28508WAT     H285767   2.736   1.102   2.385
28509WAT      O85768   5.921   3.383   6.750
28509WAT     H185769   5.937   3.388   6.651
28509WAT     H285770   6.009   3.368   6.797
28510WAT      O85771   8.163   8.452   0.313
28510WAT     H185772   8.103   8.455   0.234
28510WAT     H285773   8.185   8.545   0.342
28511WAT      O85774   3.491   8.948   1.864
28511WAT     H185775   3.576   8.998   1.848
28511WAT     H285776   3.476   8.938   1.962
28512WAT      O85777   8.645   9.385   3.778
28512WAT     H185778   8.607   9.471   3.812
28512WAT     H285779   8.587   9.309   3.809
28513WAT      O85780   6.369   7.536   5.773
28513WAT     H185781   6.287   7.591   5.759
28513WAT     H285782   6.363   7.489   5.861
28514WAT      O85783   5.905   6.777   8.351
28514WAT     H185784   5.996   6.749   8.319
28514WAT     H285785   5.839   6.704   8.332
28515WAT      O85786   5.085   1.142   2.076
28515WAT     H185787   5.182   1.120   2.083
28515WAT     H285788   5.037   1.104   2.156
28516WAT      O85789   7.700   0.368   9.263
28516WAT     H185790   7.658   0.402   9.348
28516WAT     H285791   7.628   0.348   9.197
28517WAT      O85792   8.870   9.598   6.767
28517WAT     H185793   8.963   9.572   6.741
28517WAT     H285794   8.824   9.640   6.689
28518WAT      O85795   6.423   1.752   0.259
28518WAT     H185796   6.335   1.793   0.238
28518WAT     H285797   6.413   1.689   0.337
28519WAT      O85798   7.732   8.976   4.153
28519WAT     H185799   7.634   8.983   4.170
28519WAT     H285800   7.748   8.927   4.068
28520WAT      O85801   4.856   5.171   3.998
28520WAT     H185802   4.896   5.241   3.939
28520WAT     H285803   4.908   5.086   3.989
28521WAT      O85804   6.880   6.358   4.861
28521WAT     H185805   6.813   6.318   4.923
28521WAT     H285806   6.953   6.401   4.914
28522WAT      O85807   5.837   1.942   2.169
28522WAT     H185808   5.759   1.897   2.212
28522WAT     H285809   5.806   1.992   2.088
28523WAT      O85810   4.790   5.693   6.846
28523WAT     H185811   4.854   5.769   6.844
28523WAT     H285812   4.739   5.694   6.932
28524WAT      O85813   3.484   3.489   0.451
28524WAT     H185814   3.433   3.553   0.394
28524WAT     H285815   3.553   3.538   0.504
28525WAT      O85816   2.678   3.535   8.406
28525WAT     H185817   2.722   3.623   8.384
28525WAT     H285818   2.748   3.463   8.407
28526WAT      O85819   1.424   8.180   4.572
28526WAT     H185820   1.356   8.196   4.643
28526WAT     H285821   1.515   8.173   4.615
28527WAT      O85822   1.800   1.426   7.906
28527WAT     H185823   1.855   1.409   7.988
28527WAT     H285824   1.831   1.365   7.833
28528WAT      O85825   1.104   4.908   7.963
28528WAT     H185826   1.114   4.836   7.894
28528WAT     H285827   1.008   4.930   7.975
28529WAT      O85828   2.721   0.665   3.491
28529WAT     H185829   2.745   0.569   3.478
28529WAT     H285830   2.788   0.708   3.553
28530WAT      O85831   8.228   7.162   9.317
28530WAT     H185832   8.168   7.113   9.255
28530WAT     H285833   8.269   7.241   9.270
28531WAT      O85834   1.834   2.364   1.248
28531WAT     H185835   1.794   2.385   1.159
28531WAT     H285836   1.889   2.442   1.279
28532WAT      O85837   1.107   1.487   6.001
28532WAT     H185838   1.126   1.458   6.094
28532WAT     H285839   1.040   1.562   6.002
28533WAT      O85840   2.467   9.573   4.424
28533WAT     H185841   2.492   9.532   4.511
28533WAT     H285842   2.549   9.589   4.369
28534WAT      O85843   9.471   9.809   4.957
28534WAT     H185844   9.532   9.733   4.980
28534WAT     H285845   9.418   9.785   4.875
28535WAT      O85846   9.384   3.821   1.005
28535WAT     H185847   9.305   3.788   1.057
28535WAT     H285848   9.432   3.890   1.059
28536WAT      O85849   2.869   3.403   2.674
28536WAT     H185850   2.903   3.494   2.698
28536WAT     H285851   2.883   3.341   2.751
28537WAT      O85852   6.770   8.428   6.221
28537WAT     H185853   6.789   8.412   6.318
28537WAT     H285854   6.796   8.521   6.196
28538WAT      O85855   6.410   8.648   3.205
28538WAT     H185856   6.432   8.711   3.131
28538WAT     H285857   6.495   8.619   3.250
28539WAT      O85858   6.890   3.166   0.638
28539WAT     H185859   6.794   3.195   0.635
28539WAT     H285860   6.895   3.067   0.631
28540WAT      O85861   6.405   9.782   9.059
28540WAT     H185862   6.417   9.686   9.033
28540WAT     H285863   6.407   9.840   8.977
28541WAT      O85864   0.171   5.475   2.393
28541WAT     H185865   0.126   5.465   2.305
28541WAT     H285866   0.257   5.526   2.381
28542WAT      O85867   3.119   6.148   7.709
28542WAT     H185868   3.078   6.231   7.672
28542WAT     H285869   3.205   6.171   7.754
28543WAT      O85870   5.493   5.904   1.450
28543WAT     H185871   5.526   5.993   1.481
28543WAT     H285872   5.562   5.861   1.392
28544WAT      O85873   0.992   3.263   2.705
28544WAT     H185874   0.921   3.249   2.635
28544WAT     H285875   1.069   3.202   2.688
28545WAT      O85876   2.828   3.005   5.508
28545WAT     H185877   2.898   3.037   5.445
28545WAT     H285878   2.737   3.021   5.469
28546WAT      O85879   8.553   4.062   4.432
28546WAT     H185880   8.560   4.068   4.332
28546WAT     H285881   8.560   4.154   4.471
28547WAT      O85882   4.545   7.886   6.741
28547WAT     H185883   4.615   7.849   6.803
28547WAT     H285884   4.460   7.835   6.753
28548WAT      O85885   5.984   3.073   6.760
28548WAT     H185886   5.910   3.072   6.693
28548WAT     H285887   6.071   3.087   6.713
28549WAT      O85888   4.447   5.693   7.233
28549WAT     H185889   4.445   5.650   7.324
28549WAT     H285890   4.406   5.631   7.166
28550WAT      O85891   8.448   9.097   7.129
28550WAT     H185892   8.506   9.016   7.120
28550WAT     H285893   8.393   9.090   7.212
28551WAT      O85894   4.987   7.036   0.486
28551WAT     H185895   5.021   6.949   0.449
28551WAT     H285896   4.900   7.020   0.533
28552WAT      O85897   1.796   3.841   7.240
28552WAT     H185898   1.735   3.920   7.249
28552WAT     H285899   1.751   3.771   7.185
28553WAT      O85900   8.904   3.377   8.956
28553WAT     H185901   8.854   3.429   8.886
28553WAT     H285902   8.902   3.427   9.042
28554WAT      O85903   7.843   1.836   6.778
28554WAT     H185904   7.847   1.788   6.865
28554WAT     H285905   7.859   1.771   6.703
28555WAT      O85906   2.347   0.457   7.050
28555WAT     H185907   2.361   0.358   7.056
28555WAT     H285908   2.299   0.489   7.132
28556WAT      O85909   9.493   9.688   3.481
28556WAT     H185910   9.425   9.618   3.456
28556WAT     H285911   9.487   9.707   3.579
28557WAT      O85912   2.739   2.733   5.289
28557WAT     H185913   2.742   2.646   5.240
28557WAT     H285914   2.666   2.729   5.358
28558WAT      O85915   7.810   6.984   6.645
28558WAT     H185916   7.844   6.914   6.583
28558WAT     H285917   7.751   7.047   6.594
28559WAT      O85918   2.827   1.862   4.247
28559WAT     H185919   2.834   1.951   4.202
28559WAT     H285920   2.811   1.877   4.345
28560WAT      O85921   7.862   9.733   9.855
28560WAT     H185922   7.947   9.762   9.899
28560WAT     H285923   7.786   9.743   9.920
28561WAT      O85924   0.187   0.199   2.213
28561WAT     H185925   0.153   0.236   2.127
28561WAT     H285926   0.276   0.239   2.234
28562WAT      O85927   3.780   6.027   4.211
28562WAT     H185928   3.852   5.975   4.258
28562WAT     H285929   3.739   6.092   4.275
28563WAT      O85930   6.656   5.103   9.363
28563WAT     H185931   6.653   5.203   9.373
28563WAT     H285932   6.750   5.071   9.372
28564WAT      O85933   9.443   8.168   9.476
28564WAT     H185934   9.421   8.232   9.550
28564WAT     H285935   9.539   8.178   9.452
28565WAT      O85936   9.305   8.609   9.637
28565WAT     H185937   9.301   8.654   9.726
28565WAT     H285938   9.369   8.658   9.577
28566WAT      O85939   2.018   8.701   4.003
28566WAT     H185940   2.101   8.725   4.054
28566WAT     H285941   2.019   8.603   3.983
28567WAT      O85942   5.362   0.081   8.405
28567WAT     H185943   5.453   0.052   8.433
28567WAT     H285944   5.367   0.171   8.363
28568WAT      O85945   5.771   0.306   7.122
28568WAT     H185946   5.773   0.359   7.207
28568WAT     H285947   5.697   0.339   7.063
28569WAT      O85948   2.160   6.144   8.267
28569WAT     H185949   2.101   6.131   8.187
28569WAT     H285950   2.115   6.108   8.348
28570WAT      O85951   0.751   1.455   4.749
28570WAT     H185952   0.718   1.428   4.839
28570WAT     H285953   0.776   1.373   4.697
28571WAT      O85954   5.454   7.339   3.373
28571WAT     H185955   5.463   7.244   3.342
28571WAT     H285956   5.368   7.377   3.340
28572WAT      O85957   2.179   0.922   4.055
28572WAT     H185958   2.215   1.000   4.107
28572WAT     H285959   2.224   0.918   3.966
28573WAT      O85960   1.919   2.118   8.514
28573WAT     H185961   1.873   2.036   8.482
28573WAT     H285962   1.863   2.162   8.585
28574WAT      O85963   9.016   4.368   1.773
28574WAT     H185964   9.004   4.406   1.864
28574WAT     H285965   9.046   4.439   1.710
28575WAT      O85966   9.715   2.858   2.295
28575WAT     H185967   9.668   2.839   2.381
28575WAT     H285968   9.808   2.820   2.299
28576WAT      O85969   9.759   5.451   7.138
28576WAT     H185970   9.694   5.469   7.212
28576WAT     H285971   9.734   5.365   7.093
28577WAT      O85972   8.256   8.914   6.387
28577WAT     H185973   8.340   8.903   6.441
28577WAT     H285974   8.198   8.833   6.398
28578WAT      O85975   8.661   4.619   2.774
28578WAT     H185976   8.693   4.543   2.718
28578WAT     H285977   8.740   4.677   2.799
28579WAT      O85978   4.124   2.886   3.729
28579WAT     H185979   4.050   2.885   3.662
28579WAT     H285980   4.186   2.809   3.711
28580WAT      O85981   4.847   1.333   4.870
28580WAT     H185982   4.759   1.370   4.898
28580WAT     H285983   4.876   1.378   4.785
28581WAT      O85984   4.742   2.105   4.225
28581WAT     H185985   4.764   2.098   4.322
28581WAT     H285986   4.654   2.060   4.207
28582WAT      O85987   0.692   2.316   3.010
28582WAT     H185988   0.687   2.395   3.071
28582WAT     H285989   0.601   2.296   2.973
28583WAT      O85990   3.392   8.786   8.799
28583WAT     H185991   3.420   8.855   8.866
28583WAT     H285992   3.399   8.825   8.707
28584WAT      O85993   2.184   3.880   9.455
28584WAT     H185994   2.090   3.887   9.491
28584WAT     H285995   2.184   3.906   9.358
28585WAT      O85996   8.270   8.395   5.535
28585WAT     H185997   8.353   8.339   5.531
28585WAT     H285998   8.262   8.434   5.627
28586WAT      O85999   5.276   4.662   3.669
28586WAT     H186000   5.370   4.653   3.633
28586WAT     H286001   5.247   4.757   3.664
28587WAT      O86002   6.452   5.039   4.846
28587WAT     H186003   6.511   4.966   4.812
28587WAT     H286004   6.473   5.057   4.942
28588WAT      O86005   7.920   7.314   8.039
28588WAT     H186006   7.931   7.393   7.978
28588WAT     H286007   7.994   7.312   8.106
28589WAT      O86008   2.935   8.814   5.252
28589WAT     H186009   2.994   8.820   5.333
28589WAT     H286010   2.961   8.735   5.197
28590WAT      O86011   7.837   7.648   5.200
28590WAT     H186012   7.776   7.723   5.223
28590WAT     H286013   7.872   7.660   5.108
28591WAT      O86014   5.519   2.235   2.477
28591WAT     H186015   5.570   2.149   2.473
28591WAT     H286016   5.501   2.267   2.383
28592WAT      O86017   9.363   0.737   4.742
28592WAT     H186018   9.363   0.759   4.839
28592WAT     H286019   9.412   0.808   4.692
28593WAT      O86020   1.849   7.675   1.958
28593WAT     H186021   1.784   7.653   1.886
28593WAT     H286022   1.800   7.714   2.036
28594WAT      O86023   9.024   0.785   0.023
28594WAT     H186024   8.980   0.772   0.112
28594WAT     H286025   8.967   0.843  -0.035
28595WAT      O86026   4.173   0.419   2.152
28595WAT     H186027   4.128   0.505   2.180
28595WAT     H286028   4.272   0.431   2.158
28596WAT      O86029   9.513   2.101   2.411
28596WAT     H186030   9.537   2.197   2.395
28596WAT     H286031   9.581   2.041   2.369
28597WAT      O86032   6.845   6.975   0.282
28597WAT     H186033   6.876   6.998   0.190
28597WAT     H286034   6.750   6.943   0.278
28598WAT      O86035   3.516   1.833   2.531
28598WAT     H186036   3.420   1.857   2.516
28598WAT     H286037   3.535   1.829   2.629
28599WAT      O86038   8.336   1.813   5.338
28599WAT     H186039   8.275   1.878   5.384
28599WAT     H286040   8.431   1.840   5.353
28600WAT      O86041   8.938   2.729   7.697
28600WAT     H186042   8.967   2.727   7.793
28600WAT     H286043   9.008   2.687   7.639
28601WAT      O86044   2.375   5.466   0.998
28601WAT     H186045   2.447   5.413   1.043
28601WAT     H286046   2.329   5.409   0.930
28602WAT      O86047   5.646   1.615   7.628
28602WAT     H186048   5.609   1.591   7.538
28602WAT     H286049   5.593   1.568   7.699
28603WAT      O86050   2.999   4.375   8.215
28603WAT     H186051   3.089   4.386   8.171
28603WAT     H286052   2.939   4.450   8.187
28604WAT      O86053   4.030   3.431   5.515
28604WAT     H186054   3.983   3.483   5.587
28604WAT     H286055   4.071   3.348   5.555
28605WAT      O86056   0.299   1.349   8.930
28605WAT     H186057   0.324   1.372   9.024
28605WAT     H286058   0.269   1.254   8.926
28606WAT      O86059   6.678   9.625   1.922
28606WAT     H186060   6.753   9.581   1.873
28606WAT     H286061   6.692   9.724   1.923
28607WAT      O86062   7.968   0.689   8.642
28607WAT     H186063   7.924   0.640   8.566
28607WAT     H286064   7.901   0.703   8.715
28608WAT      O86065   4.082   9.557   6.835
28608WAT     H186066   4.160   9.560   6.772
28608WAT     H286067   3.997   9.559   6.784
28609WAT      O86068   5.698   5.508   2.734
28609WAT     H186069   5.726   5.572   2.662
28609WAT     H286070   5.600   5.491   2.727
28610WAT      O86071   0.856   1.689   0.265
28610WAT     H186072   0.818   1.619   0.325
28610WAT     H286073   0.802   1.773   0.275
28611WAT      O86074   4.052   3.271   5.202
28611WAT     H186075   4.020   3.177   5.194
28611WAT     H286076   4.152   3.273   5.206
28612WAT      O86077   8.268   9.393   8.165
28612WAT     H186078   8.310   9.397   8.074
28612WAT     H286079   8.319   9.328   8.222
28613WAT      O86080   1.318   1.946   1.475
28613WAT     H186081   1.267   1.957   1.390
28613WAT     H286082   1.283   2.010   1.544
28614WAT      O86083   3.263   6.690   8.852
28614WAT     H186084   3.248   6.743   8.768
28614WAT     H286085   3.223   6.739   8.930
28615WAT      O86086   6.780   4.928   1.254
28615WAT     H186087   6.740   4.882   1.333
28615WAT     H286088   6.810   5.020   1.280
28616WAT      O86089   1.169   7.555   8.926
28616WAT     H186090   1.093   7.583   8.985
28616WAT     H286091   1.145   7.470   8.879
28617WAT      O86092   3.331   0.982   7.086
28617WAT     H186093   3.322   1.037   7.003
28617WAT     H286094   3.330   1.041   7.166
28618WAT      O86095   4.941   0.929   3.343
28618WAT     H186096   4.959   0.840   3.387
28618WAT     H286097   4.880   0.983   3.401
28619WAT      O86098   9.600   6.110   4.361
28619WAT     H186099   9.596   6.207   4.335
28619WAT     H286100   9.685   6.071   4.326
28620WAT      O86101   8.406   0.002   0.996
28620WAT     H186102   8.319  -0.026   1.036
28620WAT     H286103   8.392   0.084   0.940
28621WAT      O86104   1.580   4.756   3.055
28621WAT     H186105   1.520   4.769   2.976
28621WAT     H286106   1.531   4.783   3.138
28622WAT      O86107   4.948   1.358   8.355
28622WAT     H186108   4.855   1.392   8.370
28622WAT     H286109   4.947   1.258   8.352
28623WAT      O86110   6.362   3.363   0.201
28623WAT     H186111   6.445   3.404   0.240
28623WAT     H286112   6.377   3.340   0.105
28624WAT      O86113   1.337   6.174   3.364
28624WAT     H186114   1.404   6.169   3.438
28624WAT     H286115   1.255   6.123   3.391
28625WAT      O86116   0.914   1.778   9.349
28625WAT     H186117   0.926   1.704   9.416
28625WAT     H286118   0.977   1.764   9.273
28626WAT      O86119   6.804   1.098   4.351
28626WAT     H186120   6.747   1.028   4.394
28626WAT     H286121   6.890   1.057   4.322
28627WAT      O86122   5.941   2.203   8.777
28627WAT     H186123   5.964   2.244   8.865
28627WAT     H286124   6.020   2.151   8.743
28628WAT      O86125   3.767   4.220   3.964
28628WAT     H186126   3.842   4.160   3.938
28628WAT     H286127   3.698   4.221   3.891
28629WAT      O86128   4.106   5.001   4.460
28629WAT     H186129   4.102   4.961   4.368
28629WAT     H286130   4.186   4.964   4.508
28630WAT      O86131   0.508   3.972   3.082
28630WAT     H186132   0.538   3.951   2.989
28630WAT     H286133   0.544   4.061   3.110
28631WAT      O86134   8.211   7.408   7.750
28631WAT     H186135   8.251   7.435   7.662
28631WAT     H286136   8.252   7.322   7.780
28632WAT      O86137   9.849   6.506   6.295
28632WAT     H186138   9.874   6.576   6.361
28632WAT     H286139   9.891   6.419   6.321
28633WAT      O86140   7.755   7.328   7.106
28633WAT     H186141   7.793   7.418   7.128
28633WAT     H286142   7.664   7.339   7.065
28634WAT      O86143   0.085   6.531   1.636
28634WAT     H186144   0.156   6.473   1.597
28634WAT     H286145   0.061   6.498   1.728
28635WAT      O86146   4.503   2.486   6.409
28635WAT     H186147   4.553   2.413   6.363
28635WAT     H286148   4.430   2.519   6.349
28636WAT      O86149   4.228   0.601   4.081
28636WAT     H186150   4.290   0.668   4.040
28636WAT     H286151   4.171   0.646   4.150
28637WAT      O86152   1.661   0.946   1.143
28637WAT     H186153   1.643   0.856   1.182
28637WAT     H286154   1.606   0.959   1.060
28638WAT      O86155   9.576   2.117   9.174
28638WAT     H186156   9.520   2.196   9.196
28638WAT     H286157   9.638   2.139   9.098
28639WAT      O86158   7.173   5.119   4.961
28639WAT     H186159   7.108   5.181   4.918
28639WAT     H286160   7.149   5.025   4.940
28640WAT      O86161   0.989   1.071   0.016
28640WAT     H186162   0.997   1.093   0.113
28640WAT     H286163   1.051   0.996  -0.007
28641WAT      O86164   3.446   1.458   2.934
28641WAT     H186165   3.361   1.448   2.882
28641WAT     H286166   3.458   1.378   2.994
28642WAT      O86167   4.450   4.224   7.269
28642WAT     H186168   4.522   4.257   7.208
28642WAT     H286169   4.478   4.138   7.311
28643WAT      O86170   6.326   4.663   1.752
28643WAT     H186171   6.247   4.637   1.697
28643WAT     H286172   6.323   4.617   1.840
28644WAT      O86173   1.349   0.557   6.126
28644WAT     H186174   1.288   0.478   6.122
28644WAT     H286175   1.408   0.558   6.045
28645WAT      O86176   9.280   0.162   4.821
28645WAT     H186177   9.251   0.248   4.778
28645WAT     H286178   9.211   0.134   4.888
28646WAT      O86179   5.501   6.088   1.124
28646WAT     H186180   5.493   6.155   1.199
28646WAT     H286181   5.435   6.014   1.138
28647WAT      O86182   8.345   3.498   5.497
28647WAT     H186183   8.289   3.475   5.417
28647WAT     H286184   8.433   3.533   5.466
28648WAT      O86185   0.946   6.196   0.471
28648WAT     H186186   0.965   6.292   0.450
28648WAT     H286187   0.862   6.167   0.426
28649WAT      O86188   0.042   6.990   9.449
28649WAT     H186189   0.100   6.984   9.369
28649WAT     H286190  -0.036   6.929   9.439
28650WAT      O86191   1.064   6.176   9.056
28650WAT     H186192   1.142   6.187   8.994
28650WAT     H286193   1.028   6.266   9.080
28651WAT      O86194   3.479   6.812   6.245
28651WAT     H186195   3.455   6.740   6.181
28651WAT     H286196   3.397   6.865   6.268
28652WAT      O86197   5.243   8.941   5.750
28652WAT     H186198   5.207   9.035   5.742
28652WAT     H286199   5.191   8.880   5.691
28653WAT      O86200   2.718   3.822   1.462
28653WAT     H186201   2.748   3.767   1.540
28653WAT     H286202   2.760   3.913   1.468
28654WAT      O86203   4.575   7.181   0.566
28654WAT     H186204   4.504   7.208   0.631
28654WAT     H286205   4.559   7.226   0.478
28655WAT      O86206   6.278   2.990   3.429
28655WAT     H186207   6.338   2.980   3.350
28655WAT     H286208   6.193   2.938   3.414
28656WAT      O86209   9.268   0.047   5.109
28656WAT     H186210   9.321   0.002   5.037
28656WAT     H286211   9.323   0.052   5.193
28657WAT      O86212   6.359   2.570   0.597
28657WAT     H186213   6.366   2.471   0.588
28657WAT     H286214   6.392   2.614   0.514
28658WAT      O86215   0.241   1.447   9.525
28658WAT     H186216   0.151   1.489   9.511
28658WAT     H286217   0.229   1.357   9.566
28659WAT      O86218   9.752   1.313   9.428
28659WAT     H186219   9.714   1.287   9.339
28659WAT     H286220   9.790   1.406   9.422
28660WAT      O86221   6.072   9.594   2.911
28660WAT     H186222   6.063   9.500   2.944
28660WAT     H286223   5.981   9.635   2.902
28661WAT      O86224   1.392   5.108   4.565
28661WAT     H186225   1.405   5.025   4.619
28661WAT     H286226   1.470   5.170   4.579
28662WAT      O86227   1.629   1.257   1.890
28662WAT     H186228   1.709   1.310   1.919
28662WAT     H286229   1.635   1.164   1.927
28663WAT      O86230   5.739   7.633   4.055
28663WAT     H186231   5.751   7.637   3.956
28663WAT     H286232   5.647   7.662   4.079
28664WAT      O86233   9.103   4.626   2.013
28664WAT     H186234   9.189   4.604   1.967
28664WAT     H286235   9.049   4.542   2.024
28665WAT      O86236   2.882   4.052   8.116
28665WAT     H186237   2.955   4.066   8.183
28665WAT     H286238   2.916   3.993   8.042
28666WAT      O86239   7.312   0.169   4.249
28666WAT     H186240   7.321   0.251   4.192
28666WAT     H286241   7.321   0.195   4.345
28667WAT      O86242   5.514   7.012   4.516
28667WAT     H186243   5.532   6.966   4.603
28667WAT     H286244   5.525   7.110   4.526
28668WAT      O86245   7.693   0.333   3.217
28668WAT     H186246   7.710   0.258   3.153
28668WAT     H286247   7.706   0.420   3.170
28669WAT      O86248   1.249   2.449   4.616
28669WAT     H186249   1.259   2.503   4.533
28669WAT     H286250   1.186   2.495   4.679
28670WAT      O86251   8.810   4.032   7.481
28670WAT     H186252   8.864   3.951   7.504
28670WAT     H286253   8.868   4.098   7.433
28671WAT      O86254   3.432   2.415   6.243
28671WAT     H186255   3.354   2.356   6.265
28671WAT     H286256   3.512   2.359   6.224
28672WAT      O86257   1.960   8.625   1.199
28672WAT     H186258   2.040   8.674   1.231
28672WAT     H286259   1.896   8.611   1.275
28673WAT      O86260   3.850   7.014   9.111
28673WAT     H186261   3.758   7.044   9.133
28673WAT     H286262   3.916   7.086   9.136
28674WAT      O86263   3.270   6.204   5.467
28674WAT     H186264   3.200   6.145   5.428
28674WAT     H286265   3.360   6.176   5.433
28675WAT      O86266   1.331   2.210   7.765
28675WAT     H186267   1.238   2.201   7.729
28675WAT     H286268   1.339   2.296   7.816
28676WAT      O86269   2.086   9.652   8.615
28676WAT     H186270   2.169   9.700   8.643
28676WAT     H286271   2.013   9.718   8.599
28677WAT      O86272   3.086   9.365   1.672
28677WAT     H186273   3.111   9.421   1.593
28677WAT     H286274   2.999   9.318   1.653
28678WAT      O86275   5.684   9.378   4.304
28678WAT     H186276   5.643   9.468   4.289
28678WAT     H286277   5.689   9.359   4.402
28679WAT      O86278   3.601   8.752   5.209
28679WAT     H186279   3.649   8.786   5.128
28679WAT     H286280   3.552   8.828   5.253
28680WAT      O86281   5.239   5.888   1.525
28680WAT     H186282   5.333   5.899   1.493
28680WAT     H286283   5.226   5.794   1.556
28681WAT      O86284   4.069   9.365   3.555
28681WAT     H186285   4.012   9.329   3.481
28681WAT     H286286   4.047   9.317   3.640
28682WAT      O86287   5.269   5.459   8.355
28682WAT     H186288   5.177   5.426   8.375
28682WAT     H286289   5.264   5.545   8.304
28683WAT      O86290   5.294   3.251   5.564
28683WAT     H186291   5.307   3.152   5.572
28683WAT     H286292   5.214   3.270   5.508
28684WAT      O86293   3.566   3.290   0.923
28684WAT     H186294   3.530   3.381   0.944
28684WAT     H286295   3.627   3.296   0.844
28685WAT      O86296   5.189   4.434   6.880
28685WAT     H186297   5.092   4.459   6.881
28685WAT     H286298   5.222   4.429   6.786
28686WAT      O86299   3.316   3.544   8.094
28686WAT     H186300   3.316   3.608   8.170
28686WAT     H286301   3.336   3.452   8.127
28687WAT      O86302   1.207   5.830   9.753
28687WAT     H186303   1.179   5.792   9.664
28687WAT     H286304   1.261   5.762   9.802
28688WAT      O86305   4.706   8.850   1.738
28688WAT     H186306   4.750   8.932   1.775
28688WAT     H286307   4.769   8.773   1.745
28689WAT      O86308   2.721   5.343   6.315
28689WAT     H186309   2.701   5.259   6.366
28689WAT     H286310   2.816   5.369   6.331
28690WAT      O86311   9.380   0.307   3.997
28690WAT     H186312   9.463   0.264   3.960
28690WAT     H286313   9.300   0.259   3.963
28691WAT      O86314   0.621   1.210   8.774
28691WAT     H186315   0.646   1.305   8.755
28691WAT     H286316   0.662   1.151   8.705
28692WAT      O86317   7.264   7.073   4.709
28692WAT     H186318   7.220   7.136   4.645
28692WAT     H286319   7.329   7.123   4.766
28693WAT      O86320   9.595   1.826   4.279
28693WAT     H186321   9.545   1.798   4.197
28693WAT     H286322   9.640   1.914   4.261
28694WAT      O86323   8.773   9.754   6.545
28694WAT     H186324   8.835   9.782   6.472
28694WAT     H286325   8.765   9.827   6.612
28695WAT      O86326   1.550   9.561   7.765
28695WAT     H186327   1.590   9.588   7.678
28695WAT     H286328   1.554   9.461   7.774
28696WAT      O86329   6.808   4.798   0.730
28696WAT     H186330   6.904   4.771   0.737
28696WAT     H286331   6.776   4.831   0.819
28697WAT      O86332   4.583   9.334   1.977
28697WAT     H186333   4.671   9.379   1.989
28697WAT     H286334   4.560   9.284   2.061
28698WAT      O86335   8.406   0.987   5.967
28698WAT     H186336   8.353   0.961   5.886
28698WAT     H286337   8.503   0.974   5.949
28699WAT      O86338   5.649   0.048   4.911
28699WAT     H186339   5.589   0.090   4.843
28699WAT     H286340   5.734   0.099   4.917
28700WAT      O86341   3.630   4.190   9.782
28700WAT     H186342   3.644   4.147   9.872
28700WAT     H286343   3.696   4.264   9.770
28701WAT      O86344   4.214   3.863   0.636
28701WAT     H186345   4.155   3.852   0.555
28701WAT     H286346   4.183   3.801   0.708
28702WAT      O86347   7.977   4.982   8.447
28702WAT     H186348   7.919   5.038   8.387
28702WAT     H286349   8.063   5.030   8.463
28703WAT      O86350   4.338   8.253   3.011
28703WAT     H186351   4.360   8.165   3.052
28703WAT     H286352   4.420   8.310   3.007
28704WAT      O86353   9.107   3.966   4.820
28704WAT     H186354   9.149   3.893   4.767
28704WAT     H286355   9.075   3.929   4.908
28705WAT      O86356   9.663   1.427   7.317
28705WAT     H186357   9.628   1.463   7.404
28705WAT     H286358   9.592   1.436   7.247
28706WAT      O86359   1.710   0.388   2.387
28706WAT     H186360   1.672   0.396   2.295
28706WAT     H286361   1.641   0.416   2.454
28707WAT      O86362   7.357   5.199   1.150
28707WAT     H186363   7.322   5.282   1.106
28707WAT     H286364   7.414   5.225   1.229
28708WAT      O86365   5.452   7.340   3.738
28708WAT     H186366   5.500   7.394   3.668
28708WAT     H286367   5.368   7.386   3.764
28709WAT      O86368   1.535   0.789   4.849
28709WAT     H186369   1.567   0.884   4.854
28709WAT     H286370   1.600   0.735   4.796
28710WAT      O86371   2.021   1.312   2.326
28710WAT     H186372   2.076   1.384   2.282
28710WAT     H286373   2.052   1.223   2.294
28711WAT      O86374   2.639   2.572   6.030
28711WAT     H186375   2.733   2.604   6.044
28711WAT     H286376   2.575   2.642   6.059
28712WAT      O86377   4.148   2.010   6.658
28712WAT     H186378   4.175   1.955   6.579
28712WAT     H286379   4.197   1.978   6.739
28713WAT      O86380   6.625   9.826   2.389
28713WAT     H186381   6.532   9.811   2.354
28713WAT     H286382   6.675   9.739   2.387
28714WAT      O86383   5.771   5.956   5.155
28714WAT     H186384   5.856   5.989   5.114
28714WAT     H286385   5.788   5.928   5.250
28715WAT      O86386   3.203   6.047   6.083
28715WAT     H186387   3.195   6.139   6.046
28715WAT     H286388   3.115   6.019   6.121
28716WAT      O86389   8.674   6.878   4.480
28716WAT     H186390   8.683   6.947   4.551
28716WAT     H286391   8.579   6.847   4.475
28717WAT      O86392   7.293   6.035   7.680
28717WAT     H186393   7.339   6.025   7.769
28717WAT     H286394   7.203   5.992   7.684
28718WAT      O86395   7.798   0.590   8.446
28718WAT     H186396   7.741   0.641   8.381
28718WAT     H286397   7.838   0.511   8.400
28719WAT      O86398   8.668   7.205   1.060
28719WAT     H186399   8.725   7.242   0.987
28719WAT     H286400   8.638   7.280   1.120
28720WAT      O86401   9.224   6.170   4.160
28720WAT     H186402   9.147   6.217   4.116
28720WAT     H286403   9.207   6.071   4.160
28721WAT      O86404   3.864   0.607   8.370
28721WAT     H186405   3.908   0.678   8.424
28721WAT     H286406   3.876   0.518   8.415
28722WAT      O86407   9.742   3.446   9.652
28722WAT     H186408   9.785   3.366   9.692
28722WAT     H286409   9.708   3.506   9.725
28723WAT      O86410   9.840   5.170   6.447
28723WAT     H186411   9.758   5.136   6.492
28723WAT     H286412   9.857   5.265   6.475
28724WAT      O86413   3.878   9.696   9.748
28724WAT     H186414   3.821   9.749   9.684
28724WAT     H286415   3.866   9.732   9.840
28725WAT      O86416   7.362   3.068   2.806
28725WAT     H186417   7.349   3.100   2.712
28725WAT     H286418   7.394   3.143   2.863
28726WAT      O86419   3.594   1.159   6.035
28726WAT     H186420   3.553   1.103   5.964
28726WAT     H286421   3.578   1.117   6.125
28727WAT      O86422   2.348   4.285   4.797
28727WAT     H186423   2.394   4.199   4.778
28727WAT     H286424   2.249   4.272   4.789
28728WAT      O86425   1.922   4.743   7.186
28728WAT     H186426   1.832   4.773   7.156
28728WAT     H286427   1.948   4.793   7.269
28729WAT      O86428   2.188   0.482   8.506
28729WAT     H186429   2.206   0.536   8.588
28729WAT     H286430   2.223   0.531   8.426
28730WAT      O86431   9.837   7.753   2.295
28730WAT     H186432   9.802   7.707   2.377
28730WAT     H286433   9.937   7.752   2.296
28731WAT      O86434   0.199   3.268   6.556
28731WAT     H186435   0.147   3.294   6.637
28731WAT     H286436   0.281   3.324   6.549
28732WAT      O86437   0.175   2.168   1.830
28732WAT     H186438   0.079   2.151   1.808
28732WAT     H286439   0.180   2.220   1.916
28733WAT      O86440   9.205   8.915   4.644
28733WAT     H186441   9.253   8.829   4.624
28733WAT     H286442   9.107   8.904   4.628
28734WAT      O86443   4.078   0.773   4.243
28734WAT     H186444   4.120   0.799   4.330
28734WAT     H286445   4.093   0.846   4.176
28735WAT      O86446   3.115   5.166   6.931
28735WAT     H186447   3.141   5.142   6.837
28735WAT     H286448   3.103   5.082   6.984
28736WAT      O86449   6.253   2.544   8.623
28736WAT     H186450   6.277   2.495   8.706
28736WAT     H286451   6.321   2.525   8.552
28737WAT      O86452   3.820   2.193   5.509
28737WAT     H186453   3.841   2.105   5.466
28737WAT     H286454   3.732   2.226   5.474
28738WAT      O86455   1.750   5.508   6.383
28738WAT     H186456   1.689   5.429   6.395
28738WAT     H286457   1.819   5.508   6.455
28739WAT      O86458   0.796   9.657   0.520
28739WAT     H186459   0.851   9.590   0.470
28739WAT     H286460   0.857   9.724   0.563
28740WAT      O86461   8.808   1.706   2.592
28740WAT     H186462   8.879   1.672   2.531
28740WAT     H286463   8.786   1.636   2.660
28741WAT      O86464   9.243   3.990   4.113
28741WAT     H186465   9.323   3.945   4.152
28741WAT     H286466   9.160   3.945   4.147
28742WAT      O86467   2.184   0.519   4.730
28742WAT     H186468   2.252   0.576   4.685
28742WAT     H286469   2.176   0.432   4.681
28743WAT      O86470   5.450   8.536   8.625
28743WAT     H186471   5.541   8.500   8.645
28743WAT     H286472   5.380   8.480   8.670
28744WAT      O86473   0.774   4.090   3.897
28744WAT     H186474   0.722   4.005   3.890
28744WAT     H286475   0.871   4.070   3.885
28745WAT      O86476   6.402   4.736   8.070
28745WAT     H186477   6.463   4.703   8.142
28745WAT     H286478   6.415   4.681   7.988
28746WAT      O86479   6.592   0.173   6.218
28746WAT     H186480   6.646   0.200   6.139
28746WAT     H286481   6.629   0.089   6.257
28747WAT      O86482   8.053   8.083   4.267
28747WAT     H186483   8.124   8.056   4.332
28747WAT     H286484   8.074   8.045   4.177
28748WAT      O86485   3.820   7.722   8.378
28748WAT     H186486   3.800   7.798   8.316
28748WAT     H286487   3.737   7.668   8.391
28749WAT      O86488   2.874   6.546   8.142
28749WAT     H186489   2.846   6.641   8.131
28749WAT     H286490   2.974   6.540   8.143
28750WAT      O86491   6.862   3.031   5.858
28750WAT     H186492   6.823   3.122   5.854
28750WAT     H286493   6.807   2.968   5.804
28751WAT      O86494   3.245   2.223   2.497
28751WAT     H186495   3.182   2.209   2.573
28751WAT     H286496   3.339   2.219   2.531
28752WAT      O86497   8.089   0.652   9.443
28752WAT     H186498   8.155   0.594   9.394
28752WAT     H286499   8.136   0.729   9.485
28753WAT      O86500   0.504   9.515   6.903
28753WAT     H186501   0.602   9.535   6.899
28753WAT     H286502   0.465   9.553   6.987
28754WAT      O86503   9.405   0.371   2.162
28754WAT     H186504   9.429   0.274   2.153
28754WAT     H286505   9.338   0.382   2.235
28755WAT      O86506   4.562   1.726   0.994
28755WAT     H186507   4.574   1.715   1.093
28755WAT     H286508   4.479   1.778   0.976
28756WAT      O86509   9.038   3.896   2.461
28756WAT     H186510   9.134   3.869   2.455
28756WAT     H286511   9.021   3.972   2.398
28757WAT      O86512   8.462   0.388   5.337
28757WAT     H186513   8.398   0.347   5.402
28757WAT     H286514   8.529   0.319   5.309
28758WAT      O86515   2.949   8.274   0.740
28758WAT     H186516   3.044   8.245   0.751
28758WAT     H286517   2.892   8.229   0.808
28759WAT      O86518   0.084   6.290   6.395
28759WAT     H186519   0.070   6.194   6.421
28759WAT     H286520   0.068   6.349   6.474
28760WAT      O86521   4.916   7.082   9.566
28760WAT     H186522   4.985   7.034   9.621
28760WAT     H286523   4.852   7.129   9.627
28761WAT      O86524   5.820   9.706   5.389
28761WAT     H186525   5.897   9.751   5.436
28761WAT     H286526   5.781   9.769   5.322
28762WAT      O86527   8.564   0.274   6.883
28762WAT     H186528   8.479   0.223   6.889
28762WAT     H286529   8.544   0.372   6.873
28763WAT      O86530   1.799   6.753   0.467
28763WAT     H186531   1.735   6.684   0.433
28763WAT     H286532   1.873   6.766   0.400
28764WAT      O86533   0.745   7.956   5.892
28764WAT     H186534   0.768   8.013   5.970
28764WAT     H286535   0.818   7.962   5.823
28765WAT      O86536   0.393   1.097   0.851
28765WAT     H186537   0.327   1.027   0.879
28765WAT     H286538   0.373   1.182   0.899
28766WAT      O86539   7.197   2.786   7.967
28766WAT     H186540   7.173   2.699   7.925
28766WAT     H286541   7.151   2.860   7.919
28767WAT      O86542   3.723   3.900   1.403
28767WAT     H186543   3.709   3.804   1.379
28767WAT     H286544   3.643   3.954   1.377
28768WAT      O86545   7.992   6.960   2.210
28768WAT     H186546   7.965   6.998   2.122
28768WAT     H286547   7.925   6.891   2.239
28769WAT      O86548   7.395   8.128   2.599
28769WAT     H186549   7.461   8.202   2.617
28769WAT     H286550   7.362   8.092   2.686
28770WAT      O86551   4.055   4.692   4.076
28770WAT     H186552   3.980   4.640   4.119
28770WAT     H286553   4.024   4.726   3.987
28771WAT      O86554   5.716   8.338   1.801
28771WAT     H186555   5.624   8.305   1.823
28771WAT     H286556   5.735   8.421   1.853
28772WAT      O86557   2.190   1.803   6.540
28772WAT     H186558   2.261   1.754   6.490
28772WAT     H286559   2.164   1.885   6.487
28773WAT      O86560   0.368   3.602   6.589
28773WAT     H186561   0.316   3.568   6.667
28773WAT     H286562   0.464   3.616   6.615
28774WAT      O86563   3.397   1.391   6.747
28774WAT     H186564   3.477   1.385   6.687
28774WAT     H286565   3.411   1.462   6.816
28775WAT      O86566   7.281   4.379   7.792
28775WAT     H186567   7.282   4.365   7.891
28775WAT     H286568   7.374   4.374   7.757
28776WAT      O86569   5.086   1.357   2.813
28776WAT     H186570   5.122   1.270   2.779
28776WAT     H286571   4.995   1.343   2.852
28777WAT      O86572   4.445   0.108   6.232
28777WAT     H186573   4.364   0.053   6.251
28777WAT     H286574   4.526   0.060   6.265
28778WAT      O86575   2.968   4.982   9.694
28778WAT     H186576   3.014   5.042   9.759
28778WAT     H286577   3.036   4.928   9.644
28779WAT      O86578   2.959   8.161   3.718
28779WAT     H186579   2.939   8.186   3.624
28779WAT     H286580   2.946   8.240   3.778
28780WAT      O86581   2.178   2.596   7.947
28780WAT     H186582   2.239   2.611   7.869
28780WAT     H286583   2.161   2.498   7.957
28781WAT      O86584   1.566   4.168   6.454
28781WAT     H186585   1.495   4.105   6.423
28781WAT     H286586   1.626   4.122   6.520
28782WAT      O86587   4.108   8.435   6.747
28782WAT     H186588   4.150   8.345   6.736
28782WAT     H286589   4.180   8.504   6.751
28783WAT      O86590   9.734   7.327   2.052
28783WAT     H186591   9.688   7.240   2.036
28783WAT     H286592   9.672   7.402   2.031
28784WAT      O86593   5.555   0.672   1.870
28784WAT     H186594   5.638   0.701   1.821
28784WAT     H286595   5.481   0.736   1.852
28785WAT      O86596   7.448   4.963   4.780
28785WAT     H186597   7.449   4.897   4.704
28785WAT     H286598   7.424   5.053   4.745
28786WAT      O86599   9.000   6.651   5.093
28786WAT     H186600   8.962   6.593   5.021
28786WAT     H286601   9.095   6.672   5.073
28787WAT      O86602   6.030   4.636   8.978
28787WAT     H186603   6.008   4.593   9.065
28787WAT     H286604   6.121   4.608   8.949
28788WAT      O86605   9.700   4.522   9.800
28788WAT     H186606   9.699   4.422   9.805
28788WAT     H286607   9.661   4.551   9.714
28789WAT      O86608   5.652   1.793   2.294
28789WAT     H186609   5.673   1.712   2.348
28789WAT     H286610   5.570   1.777   2.239
28790WAT      O86611   0.081   2.382   3.980
28790WAT     H186612   0.037   2.471   3.983
28790WAT     H286613   0.012   2.311   3.967
28791WAT      O86614   8.471   1.580   8.578
28791WAT     H186615   8.567   1.584   8.606
28791WAT     H286616   8.412   1.587   8.658
28792WAT      O86617   5.935   0.916   6.802
28792WAT     H186618   5.852   0.874   6.837
28792WAT     H286619   5.951   0.886   6.708
28793WAT      O86620   8.504   5.487   7.806
28793WAT     H186621   8.416   5.484   7.855
28793WAT     H286622   8.487   5.498   7.708
28794WAT      O86623   4.257   3.930   3.608
28794WAT     H186624   4.274   3.835   3.584
28794WAT     H286625   4.332   3.987   3.575
28795WAT      O86626   1.720   5.418   1.289
28795WAT     H186627   1.805   5.382   1.249
28795WAT     H286628   1.687   5.495   1.235
28796WAT      O86629   6.522   0.958   9.523
28796WAT     H186630   6.482   0.878   9.568
28796WAT     H286631   6.459   1.035   9.529
28797WAT      O86632   0.996   8.983   4.708
28797WAT     H186633   1.055   9.052   4.666
28797WAT     H286634   1.051   8.924   4.767
28798WAT      O86635   4.431   7.800   3.867
28798WAT     H186636   4.425   7.900   3.865
28798WAT     H286637   4.422   7.765   3.774
28799WAT      O86638   6.099   5.986   1.028
28799WAT     H186639   6.087   5.925   1.105
28799WAT     H286640   6.024   5.973   0.963
28800WAT      O86641   9.252   8.287   9.254
28800WAT     H186642   9.302   8.219   9.307
28800WAT     H286643   9.242   8.371   9.308
28801WAT      O86644   5.321   1.110   7.120
28801WAT     H186645   5.374   1.142   7.041
28801WAT     H286646   5.259   1.183   7.150
28802WAT      O86647   9.228   9.110   3.001
28802WAT     H186648   9.235   9.011   2.987
28802WAT     H286649   9.169   9.128   3.081
28803WAT      O86650   7.666   1.896   3.396
28803WAT     H186651   7.634   1.945   3.315
28803WAT     H286652   7.614   1.811   3.406
28804WAT      O86653   4.844   4.769   7.617
28804WAT     H186654   4.814   4.699   7.553
28804WAT     H286655   4.943   4.783   7.609
28805WAT      O86656   8.236   4.318   0.998
28805WAT     H186657   8.185   4.238   1.031
28805WAT     H286658   8.173   4.385   0.961
28806WAT      O86659   0.493   0.677   9.255
28806WAT     H186660   0.513   0.739   9.330
28806WAT     H286661   0.489   0.728   9.169
28807WAT      O86662   1.535   6.431   7.210
28807WAT     H186663   1.620   6.478   7.234
28807WAT     H286664   1.542   6.334   7.232
28808WAT      O86665   7.343   2.085   6.927
28808WAT     H186666   7.442   2.097   6.933
28808WAT     H286667   7.312   2.022   6.998
28809WAT      O86668   2.540   4.311   4.502
28809WAT     H186669   2.470   4.247   4.470
28809WAT     H286670   2.617   4.310   4.438
28810WAT      O86671   0.130   7.565   2.815
28810WAT     H186672   0.184   7.487   2.781
28810WAT     H286673   0.177   7.650   2.791
28811WAT      O86674   0.884   1.147   4.345
28811WAT     H186675   0.962   1.091   4.372
28811WAT     H286676   0.913   1.242   4.331
28812WAT      O86677   1.406   6.367   3.698
28812WAT     H186678   1.388   6.274   3.729
28812WAT     H286679   1.457   6.366   3.613
28813WAT      O86680   8.411   8.113   2.315
28813WAT     H186681   8.347   8.103   2.392
28813WAT     H286682   8.362   8.150   2.236
28814WAT      O86683   5.073   0.746   9.166
28814WAT     H186684   4.985   0.709   9.194
28814WAT     H286685   5.077   0.752   9.067
28815WAT      O86686   3.721   1.216   8.325
28815WAT     H186687   3.761   1.129   8.297
28815WAT     H286688   3.669   1.203   8.410
28816WAT      O86689   8.723   4.525   6.780
28816WAT     H186690   8.729   4.552   6.684
28816WAT     H286691   8.775   4.440   6.794
28817WAT      O86692   9.137   3.350   9.314
28817WAT     H186693   9.206   3.284   9.285
28817WAT     H286694   9.180   3.424   9.366
28818WAT      O86695   6.892   2.779   3.402
28818WAT     H186696   6.951   2.712   3.358
28818WAT     H286697   6.805   2.736   3.427
28819WAT      O86698   2.717   3.238   4.451
28819WAT     H186699   2.637   3.195   4.408
28819WAT     H286700   2.763   3.170   4.508
28820WAT      O86701   4.953   3.478   9.845
28820WAT     H186702   5.021   3.505   9.776
28820WAT     H286703   4.887   3.416   9.803
28821WAT      O86704   3.293   9.785   8.613
28821WAT     H186705   3.354   9.710   8.588
28821WAT     H286706   3.223   9.796   8.542
28822WAT      O86707   7.588   5.604   9.407
28822WAT     H186708   7.583   5.504   9.396
28822WAT     H286709   7.602   5.647   9.318
28823WAT      O86710   3.623   4.298   6.065
28823WAT     H186711   3.578   4.219   6.107
28823WAT     H286712   3.668   4.270   5.981
28824WAT      O86713   9.769   4.680   6.172
28824WAT     H186714   9.735   4.617   6.103
28824WAT     H286715   9.754   4.775   6.142
28825WAT      O86716   2.914   1.597   8.851
28825WAT     H186717   2.881   1.631   8.763
28825WAT     H286718   3.006   1.560   8.840
28826WAT      O86719   7.807   6.694   8.692
28826WAT     H186720   7.867   6.614   8.690
28826WAT     H286721   7.827   6.753   8.614
28827WAT      O86722   2.041   1.427   7.613
28827WAT     H186723   2.046   1.509   7.669
28827WAT     H286724   2.038   1.452   7.516
28828WAT      O86725   7.629   4.795   3.345
28828WAT     H186726   7.669   4.884   3.368
28828WAT     H286727   7.542   4.809   3.297
28829WAT      O86728   1.052   0.166   1.045
28829WAT     H186729   1.042   0.150   1.144
28829WAT     H286730   1.145   0.142   1.017
28830WAT      O86731   5.847   4.399   7.989
28830WAT     H186732   5.817   4.487   7.952
28830WAT     H286733   5.889   4.413   8.078
28831WAT      O86734   6.455   8.591   4.268
28831WAT     H186735   6.405   8.649   4.333
28831WAT     H286736   6.412   8.501   4.263
28832WAT      O86737   9.714   7.084   1.578
28832WAT     H186738   9.622   7.121   1.570
28832WAT     H286739   9.714   7.006   1.641
28833WAT      O86740   5.605   5.038   1.543
28833WAT     H186741   5.547   4.957   1.538
28833WAT     H286742   5.700   5.010   1.561
28834WAT      O86743   2.630   2.652   9.469
28834WAT     H186744   2.572   2.665   9.389
28834WAT     H286745   2.691   2.730   9.480
28835WAT      O86746   6.036   6.532   4.565
28835WAT     H186747   5.986   6.486   4.492
28835WAT     H286748   5.973   6.560   4.637
28836WAT      O86749   9.458   0.913   5.847
28836WAT     H186750   9.417   0.918   5.756
28836WAT     H286751   9.483   0.819   5.867
28837WAT      O86752   5.748   1.647   1.619
28837WAT     H186753   5.824   1.691   1.573
28837WAT     H286754   5.680   1.715   1.646
28838WAT      O86755   5.786   3.757   0.112
28838WAT     H186756   5.802   3.839   0.056
28838WAT     H286757   5.803   3.779   0.208
28839WAT      O86758   0.591   4.272   2.736
28839WAT     H186759   0.498   4.290   2.768
28839WAT     H286760   0.591   4.266   2.636
28840WAT      O86761   0.398   6.331   6.747
28840WAT     H186762   0.321   6.279   6.784
28840WAT     H286763   0.437   6.281   6.669
28841WAT      O86764   6.583   0.181   4.298
28841WAT     H186765   6.679   0.155   4.298
28841WAT     H286766   6.531   0.119   4.357
28842WAT      O86767   7.875   2.706   0.671
28842WAT     H186768   7.861   2.686   0.574
28842WAT     H286769   7.969   2.682   0.696
28843WAT      O86770   7.198   9.260   9.242
28843WAT     H186771   7.194   9.204   9.325
28843WAT     H286772   7.107   9.296   9.222
28844WAT      O86773   1.788   3.682   4.496
28844WAT     H186774   1.745   3.601   4.537
28844WAT     H286775   1.719   3.735   4.447
28845WAT      O86776   6.251   4.278   4.674
28845WAT     H186777   6.274   4.203   4.737
28845WAT     H286778   6.204   4.350   4.725
28846WAT      O86779   1.893   8.189   5.816
28846WAT     H186780   1.869   8.242   5.734
28846WAT     H286781   1.887   8.249   5.896
28847WAT      O86782   5.303   3.225   8.382
28847WAT     H186783   5.214   3.202   8.421
28847WAT     H286784   5.364   3.255   8.455
28848WAT      O86785   4.459   4.796   1.162
28848WAT     H186786   4.526   4.747   1.217
28848WAT     H286787   4.504   4.835   1.081
28849WAT      O86788   6.335   1.203   1.022
28849WAT     H186789   6.313   1.197   1.119
28849WAT     H286790   6.434   1.214   1.011
28850WAT      O86791   6.152   0.970   0.553
28850WAT     H186792   6.186   0.922   0.634
28850WAT     H286793   6.162   0.911   0.473
28851WAT      O86794   6.808   6.761   9.400
28851WAT     H186795   6.752   6.837   9.367
28851WAT     H286796   6.825   6.697   9.325
28852WAT      O86797   7.042   8.402   5.185
28852WAT     H186798   7.064   8.472   5.253
28852WAT     H286799   7.019   8.316   5.230
28853WAT      O86800   6.996   9.731   8.544
28853WAT     H186801   7.072   9.794   8.526
28853WAT     H286802   7.025   9.663   8.611
28854WAT      O86803   4.527   1.953   2.502
28854WAT     H186804   4.623   1.925   2.493
28854WAT     H286805   4.473   1.913   2.428
28855WAT      O86806   7.838   4.070   7.217
28855WAT     H186807   7.843   3.971   7.203
28855WAT     H286808   7.755   4.093   7.268
28856WAT      O86809   5.490   7.484   0.828
28856WAT     H186810   5.549   7.555   0.866
28856WAT     H286811   5.546   7.409   0.792
28857WAT      O86812   4.045   2.592   6.838
28857WAT     H186813   3.978   2.666   6.847
28857WAT     H286814   4.011   2.522   6.776
28858WAT      O86815   2.989   1.273   8.894
28858WAT     H186816   3.045   1.282   8.812
28858WAT     H286817   2.896   1.247   8.867
28859WAT      O86818   1.027   6.767   7.444
28859WAT     H186819   0.991   6.858   7.464
28859WAT     H286820   1.016   6.748   7.346
28860WAT      O86821   2.203   8.635   4.586
28860WAT     H186822   2.191   8.700   4.511
28860WAT     H286823   2.217   8.543   4.548
28861WAT      O86824   9.664   9.543   0.161
28861WAT     H186825   9.586   9.546   0.224
28861WAT     H286826   9.738   9.599   0.198
28862WAT      O86827   2.643   4.376   3.643
28862WAT     H186828   2.608   4.283   3.640
28862WAT     H286829   2.668   4.406   3.551
28863WAT      O86830   2.755   1.529   9.049
28863WAT     H186831   2.821   1.554   8.977
28863WAT     H286832   2.731   1.433   9.040
28864WAT      O86833   8.985   4.984   2.666
28864WAT     H186834   8.994   4.926   2.585
28864WAT     H286835   9.069   4.982   2.719
28865WAT      O86836   2.572   4.613   2.335
28865WAT     H186837   2.582   4.682   2.406
28865WAT     H286838   2.588   4.654   2.245
28866WAT      O86839   9.774   4.575   8.613
28866WAT     H186840   9.838   4.500   8.631
28866WAT     H286841   9.765   4.589   8.515
28867WAT      O86842   0.963   7.714   2.065
28867WAT     H186843   0.927   7.801   2.030
28867WAT     H286844   0.891   7.645   2.062
28868WAT      O86845   4.685   5.085   4.941
28868WAT     H186846   4.644   5.060   5.029
28868WAT     H286847   4.673   5.010   4.876
28869WAT      O86848   6.037   3.502   9.715
28869WAT     H186849   6.017   3.458   9.627
28869WAT     H286850   5.983   3.460   9.787
28870WAT      O86851   7.116   0.572   5.364
28870WAT     H186852   7.167   0.546   5.282
28870WAT     H286853   7.116   0.672   5.374
28871WAT      O86854   8.419   8.676   5.672
28871WAT     H186855   8.388   8.622   5.750
28871WAT     H286856   8.519   8.676   5.669
28872WAT      O86857   8.610   3.922   6.475
28872WAT     H186858   8.528   3.899   6.528
28872WAT     H286859   8.584   3.936   6.379
28873WAT      O86860   6.433   8.554   4.601
28873WAT     H186861   6.485   8.609   4.666
28873WAT     H286862   6.400   8.611   4.526
28874WAT      O86863   3.197   6.433   8.723
28874WAT     H186864   3.239   6.391   8.803
28874WAT     H286865   3.204   6.532   8.730
28875WAT      O86866   7.138   1.700   4.003
28875WAT     H186867   7.135   1.647   3.919
28875WAT     H286868   7.060   1.676   4.061
28876WAT      O86869   9.243   5.784   9.326
28876WAT     H186870   9.233   5.690   9.294
28876WAT     H286871   9.152   5.823   9.341
28877WAT      O86872   6.839   7.897   3.717
28877WAT     H186873   6.932   7.909   3.751
28877WAT     H286874   6.775   7.903   3.794
28878WAT      O86875   7.229   4.923   6.849
28878WAT     H186876   7.289   4.884   6.919
28878WAT     H286877   7.242   5.022   6.845
28879WAT      O86878   0.717   7.765   2.377
28879WAT     H186879   0.715   7.737   2.473
28879WAT     H286880   0.677   7.692   2.321
28880WAT      O86881   0.372   1.470   5.725
28880WAT     H186882   0.412   1.527   5.654
28880WAT     H286883   0.296   1.518   5.769
28881WAT      O86884   5.380   8.505   4.594
28881WAT     H186885   5.416   8.598   4.600
28881WAT     H286886   5.452   8.440   4.619
28882WAT      O86887   1.993   4.751   4.321
28882WAT     H186888   2.067   4.688   4.344
28882WAT     H286889   1.942   4.717   4.242
28883WAT      O86890   5.918   3.561   2.081
28883WAT     H186891   5.987   3.624   2.046
28883WAT     H286892   5.840   3.558   2.018
28884WAT      O86893   1.770   5.266   0.574
28884WAT     H186894   1.690   5.235   0.524
28884WAT     H286895   1.741   5.316   0.656
28885WAT      O86896   8.254   8.001   1.818
28885WAT     H186897   8.167   8.026   1.775
28885WAT     H286898   8.280   8.073   1.883
28886WAT      O86899   7.142   4.747   3.038
28886WAT     H186900   7.187   4.835   3.020
28886WAT     H286901   7.193   4.673   2.995
28887WAT      O86902   7.551   3.715   8.617
28887WAT     H186903   7.537   3.696   8.520
28887WAT     H286904   7.511   3.641   8.672
28888WAT      O86905   6.008   0.253   5.432
28888WAT     H186906   6.019   0.308   5.515
28888WAT     H286907   5.928   0.284   5.381
28889WAT      O86908   9.724   0.311   7.749
28889WAT     H186909   9.753   0.384   7.811
28889WAT     H286910   9.788   0.234   7.756
28890WAT      O86911   8.567   1.917   7.993
28890WAT     H186912   8.582   1.937   7.896
28890WAT     H286913   8.609   1.989   8.049
28891WAT      O86914   2.543   2.174   5.607
28891WAT     H186915   2.508   2.081   5.620
28891WAT     H286916   2.556   2.216   5.697
28892WAT      O86917   2.452   0.372   3.715
28892WAT     H186918   2.513   0.300   3.681
28892WAT     H286919   2.459   0.377   3.814
28893WAT      O86920   8.262   0.148   2.069
28893WAT     H186921   8.281   0.174   2.164
28893WAT     H286922   8.344   0.165   2.014
28894WAT      O86923   1.787   0.187   0.166
28894WAT     H186924   1.841   0.229   0.093
28894WAT     H286925   1.777   0.089   0.148
28895WAT      O86926   9.880   4.496   7.048
28895WAT     H186927   9.834   4.502   6.959
28895WAT     H286928   9.830   4.432   7.107
28896WAT      O86929   6.528   2.406   5.580
28896WAT     H186930   6.460   2.408   5.506
28896WAT     H286931   6.489   2.360   5.660
28897WAT      O86932   1.215   0.655   9.699
28897WAT     H186933   1.137   0.716   9.709
28897WAT     H286934   1.222   0.595   9.779
28898WAT      O86935   9.113   0.719   4.119
28898WAT     H186936   9.126   0.771   4.203
28898WAT     H286937   9.193   0.660   4.104
28899WAT      O86938   6.883   9.200   3.090
28899WAT     H186939   6.980   9.184   3.107
28899WAT     H286940   6.873   9.272   3.021
28900WAT      O86941   4.822   1.617   5.373
28900WAT     H186942   4.885   1.540   5.363
28900WAT     H286943   4.746   1.606   5.308
28901WAT      O86944   3.113   6.567   1.746
28901WAT     H186945   3.160   6.642   1.792
28901WAT     H286946   3.173   6.487   1.743
28902WAT      O86947   1.583   7.885   0.648
28902WAT     H186948   1.531   7.922   0.571
28902WAT     H286949   1.661   7.945   0.667
28903WAT      O86950   1.240   1.926   3.753
28903WAT     H186951   1.154   1.879   3.732
28903WAT     H286952   1.223   2.024   3.762
28904WAT      O86953   9.487   0.140   0.685
28904WAT     H186954   9.496   0.231   0.644
28904WAT     H286955   9.527   0.072   0.623
28905WAT      O86956   6.874   2.496   7.229
28905WAT     H186957   6.893   2.409   7.275
28905WAT     H286958   6.801   2.544   7.277
28906WAT      O86959   0.724   7.329   4.050
28906WAT     H186960   0.809   7.334   3.997
28906WAT     H286961   0.728   7.252   4.113
28907WAT      O86962   4.996   4.825   3.587
28907WAT     H186963   4.974   4.796   3.680
28907WAT     H286964   4.984   4.749   3.524
28908WAT      O86965   2.224   7.083   6.482
28908WAT     H186966   2.222   7.053   6.386
28908WAT     H286967   2.311   7.057   6.523
28909WAT      O86968   9.554   5.185   6.230
28909WAT     H186969   9.570   5.091   6.262
28909WAT     H286970   9.465   5.190   6.185
28910WAT      O86971   5.766   7.483   9.403
28910WAT     H186972   5.840   7.466   9.338
28910WAT     H286973   5.795   7.456   9.495
28911WAT      O86974   7.689   4.377   9.585
28911WAT     H186975   7.776   4.399   9.541
28911WAT     H286976   7.704   4.308   9.656
28912WAT      O86977   3.664   6.368   7.154
28912WAT     H186978   3.750   6.319   7.168
28912WAT     H286979   3.589   6.316   7.194
28913WAT      O86980   4.591   3.925   0.378
28913WAT     H186981   4.674   3.959   0.421
28913WAT     H286982   4.512   3.973   0.416
28914WAT      O86983   1.081   4.400   4.418
28914WAT     H186984   1.178   4.414   4.437
28914WAT     H286985   1.026   4.457   4.479
28915WAT      O86986   1.270   5.500   7.860
28915WAT     H186987   1.257   5.432   7.788
28915WAT     H286988   1.328   5.574   7.826
28916WAT      O86989   6.329   1.500   3.898
28916WAT     H186990   6.379   1.554   3.965
28916WAT     H286991   6.385   1.488   3.816
28917WAT      O86992   8.930   6.800   4.376
28917WAT     H186993   8.905   6.760   4.288
28917WAT     H286994   8.847   6.824   4.426
28918WAT      O86995   2.756   5.512   8.599
28918WAT     H186996   2.818   5.511   8.677
28918WAT     H286997   2.709   5.600   8.596
28919WAT      O86998   6.011   5.553   4.297
28919WAT     H186999   6.028   5.620   4.225
28919WAT     H287000   6.076   5.477   4.289
28920WAT      O87001   5.063   4.995   1.593
28920WAT     H187002   5.089   5.086   1.626
28920WAT     H287003   5.137   4.931   1.610
28921WAT      O87004   6.836   2.286   8.440
28921WAT     H187005   6.788   2.374   8.448
28921WAT     H287006   6.768   2.213   8.431
28922WAT      O87007   3.573   3.136   2.757
28922WAT     H187008   3.577   3.126   2.657
28922WAT     H287009   3.637   3.073   2.799
28923WAT      O87010   4.849   8.567   8.621
28923WAT     H187011   4.838   8.508   8.541
28923WAT     H287012   4.943   8.601   8.625
28924WAT      O87013   3.576   7.316   7.153
28924WAT     H187014   3.542   7.248   7.218
28924WAT     H287015   3.578   7.406   7.198
28925WAT      O87016   6.647   7.841   2.523
28925WAT     H187017   6.665   7.805   2.431
28925WAT     H287018   6.622   7.765   2.584
28926WAT      O87019   0.061   6.823   2.540
28926WAT     H187020   0.036   6.851   2.633
28926WAT     H287021   0.152   6.783   2.541
28927WAT      O87022   0.488   8.632   2.110
28927WAT     H187023   0.525   8.555   2.164
28927WAT     H287024   0.390   8.620   2.099
28928WAT      O87025   6.950   6.226   2.100
28928WAT     H187026   6.879   6.178   2.152
28928WAT     H287027   6.976   6.309   2.149
28929WAT      O87028   1.420   9.453   2.759
28929WAT     H187029   1.471   9.428   2.841
28929WAT     H287030   1.475   9.434   2.678
28930WAT      O87031   0.296   2.814   7.927
28930WAT     H187032   0.264   2.726   7.889
28930WAT     H287033   0.227   2.850   7.990
28931WAT      O87034   2.566   8.045   3.397
28931WAT     H187035   2.468   8.041   3.413
28931WAT     H287036   2.599   8.138   3.416
28932WAT      O87037   7.958   2.308   3.711
28932WAT     H187038   7.993   2.229   3.660
28932WAT     H287039   7.873   2.283   3.756
28933WAT      O87040   1.719   5.401   0.816
28933WAT     H187041   1.630   5.413   0.860
28933WAT     H287042   1.790   5.446   0.871
28934WAT      O87043   3.412   1.549   8.066
28934WAT     H187044   3.482   1.603   8.114
28934WAT     H287045   3.425   1.452   8.086
28935WAT      O87046   5.925   8.982   8.746
28935WAT     H187047   5.945   8.955   8.840
28935WAT     H287048   5.886   8.904   8.697
28936WAT      O87049   0.087   0.835   3.995
28936WAT     H187050   0.075   0.823   4.093
28936WAT     H287051   0.001   0.817   3.948
28937WAT      O87052   6.329   4.745   2.498
28937WAT     H187053   6.352   4.774   2.591
28937WAT     H287054   6.343   4.821   2.435
28938WAT      O87055   4.452   4.883   4.221
28938WAT     H187056   4.355   4.907   4.222
28938WAT     H287057   4.480   4.853   4.312
28939WAT      O87058   0.948   8.600   3.806
28939WAT     H187059   0.970   8.505   3.784
28939WAT     H287060   1.006   8.632   3.880
28940WAT      O87061   0.882   0.636   6.483
28940WAT     H187062   0.878   0.566   6.554
28940WAT     H287063   0.808   0.702   6.497
28941WAT      O87064   5.872   9.722   2.392
28941WAT     H187065   5.876   9.817   2.423
28941WAT     H287066   5.873   9.661   2.471
28942WAT      O87067   3.258   4.469   0.607
28942WAT     H187068   3.353   4.476   0.579
28942WAT     H287069   3.248   4.397   0.677
28943WAT      O87070   8.077   2.832   4.656
28943WAT     H187071   8.085   2.806   4.752
28943WAT     H287072   7.988   2.873   4.640
28944WAT      O87073   1.785   6.560   7.256
28944WAT     H187074   1.768   6.657   7.240
28944WAT     H287075   1.810   6.545   7.352
28945WAT      O87076   4.887   8.067   0.117
28945WAT     H187077   4.820   8.012   0.166
28945WAT     H287078   4.913   8.021   0.032
28946WAT      O87079   2.032   1.925   4.368
28946WAT     H187080   1.939   1.957   4.349
28946WAT     H287081   2.094   2.003   4.366
28947WAT      O87082   4.694   8.581   4.761
28947WAT     H187083   4.794   8.582   4.755
28947WAT     H287084   4.655   8.617   4.676
28948WAT      O87085   5.929   3.235   6.170
28948WAT     H187086   5.875   3.277   6.243
28948WAT     H287087   5.869   3.183   6.109
28949WAT      O87088   6.799   6.611   7.423
28949WAT     H187089   6.843   6.632   7.510
28949WAT     H287090   6.779   6.696   7.375
28950WAT      O87091   0.699   1.019   9.171
28950WAT     H187092   0.777   1.062   9.216
28950WAT     H287093   0.646   0.967   9.238
28951WAT      O87094   2.466   4.839   2.003
28951WAT     H187095   2.451   4.936   2.026
28951WAT     H287096   2.384   4.802   1.961
28952WAT      O87097   1.538   6.404   7.649
28952WAT     H187098   1.594   6.369   7.725
28952WAT     H287099   1.507   6.327   7.593
28953WAT      O87100   6.675   3.718   0.241
28953WAT     H187101   6.613   3.795   0.226
28953WAT     H287102   6.750   3.723   0.174
28954WAT      O87103   2.741   9.605   3.413
28954WAT     H187104   2.786   9.546   3.347
28954WAT     H287105   2.683   9.671   3.365
28955WAT      O87106   2.703   5.249   4.214
28955WAT     H187107   2.715   5.167   4.270
28955WAT     H287108   2.792   5.275   4.176
28956WAT      O87109   7.452   0.836   4.909
28956WAT     H187110   7.374   0.780   4.936
28956WAT     H287111   7.456   0.844   4.810
28957WAT      O87112   4.199   8.059   1.908
28957WAT     H187113   4.142   8.116   1.967
28957WAT     H287114   4.283   8.108   1.885
28958WAT      O87115   7.386   5.219   4.754
28958WAT     H187116   7.424   5.268   4.675
28958WAT     H287117   7.323   5.280   4.803
28959WAT      O87118   0.037   5.088   1.922
28959WAT     H187119   0.057   5.032   1.841
28959WAT     H287120  -0.058   5.119   1.919
28960WAT      O87121   2.263   4.446   6.479
28960WAT     H187122   2.287   4.404   6.567
28960WAT     H287123   2.341   4.437   6.416
28961WAT      O87124   6.924   7.527   5.274
28961WAT     H187125   6.864   7.508   5.352
28961WAT     H287126   6.871   7.524   5.189
28962WAT      O87127   0.584   6.666   9.852
28962WAT     H187128   0.522   6.733   9.894
28962WAT     H287129   0.664   6.653   9.911
28963WAT      O87130   8.017   2.166   1.908
28963WAT     H187131   8.066   2.175   1.822
28963WAT     H287132   8.017   2.070   1.937
28964WAT      O87133   9.539   7.546   0.191
28964WAT     H187134   9.616   7.607   0.207
28964WAT     H287135   9.521   7.492   0.274
28965WAT      O87136   1.610   4.874   0.738
28965WAT     H187137   1.637   4.842   0.829
28965WAT     H287138   1.568   4.799   0.687
28966WAT      O87139   5.761   2.588   8.792
28966WAT     H187140   5.812   2.671   8.770
28966WAT     H287141   5.766   2.570   8.890
28967WAT      O87142   5.474   4.042   5.743
28967WAT     H187143   5.565   4.081   5.724
28967WAT     H287144   5.434   4.088   5.822
28968WAT      O87145   3.586   2.929   9.603
28968WAT     H187146   3.572   2.878   9.688
28968WAT     H287147   3.605   3.024   9.624
28969WAT      O87148   0.686   2.832   9.209
28969WAT     H187149   0.681   2.818   9.308
28969WAT     H287150   0.674   2.929   9.189
28970WAT      O87151   3.657   3.908   4.930
28970WAT     H187152   3.631   3.998   4.964
28970WAT     H287153   3.622   3.837   4.990
28971WAT      O87154   9.063   2.891   3.940
28971WAT     H187155   9.106   2.844   4.018
28971WAT     H287156   9.114   2.868   3.857
28972WAT      O87157   6.282   9.137   8.810
28972WAT     H187158   6.343   9.217   8.807
28972WAT     H287159   6.194   9.163   8.850
28973WAT      O87160   1.128   4.982   4.794
28973WAT     H187161   1.197   4.945   4.857
28973WAT     H287162   1.051   4.918   4.787
28974WAT      O87163   3.925   2.239   4.495
28974WAT     H187164   4.015   2.248   4.538
28974WAT     H287165   3.857   2.291   4.547
28975WAT      O87166   4.704   7.084   1.009
28975WAT     H187167   4.798   7.084   1.042
28975WAT     H287168   4.685   7.170   0.962
28976WAT      O87169   3.483   3.627   4.233
28976WAT     H187170   3.471   3.561   4.158
28976WAT     H287171   3.477   3.579   4.321
28977WAT      O87172   4.633   0.240   0.628
28977WAT     H187173   4.644   0.248   0.528
28977WAT     H287174   4.681   0.158   0.660
28978WAT      O87175   4.461   5.835   0.370
28978WAT     H187176   4.493   5.821   0.464
28978WAT     H287177   4.508   5.914   0.331
28979WAT      O87178   7.397   8.539   0.967
28979WAT     H187179   7.349   8.536   0.880
28979WAT     H287180   7.382   8.628   1.010
28980WAT      O87181   1.295   0.107   2.912
28980WAT     H187182   1.307   0.192   2.861
28980WAT     H287183   1.285   0.031   2.848
28981WAT      O87184   6.203   1.904   4.651
28981WAT     H187185   6.194   1.855   4.565
28981WAT     H287186   6.299   1.923   4.669
28982WAT      O87187   0.406   5.841   3.530
28982WAT     H187188   0.461   5.915   3.569
28982WAT     H287189   0.396   5.856   3.431
28983WAT      O87190   1.740   0.406   0.321
28983WAT     H187191   1.822   0.411   0.378
28983WAT     H287192   1.751   0.331   0.255
28984WAT      O87193   1.301   7.631   1.419
28984WAT     H187194   1.400   7.639   1.425
28984WAT     H287195   1.259   7.720   1.440
28985WAT      O87196   8.058   7.343   2.159
28985WAT     H187197   8.139   7.384   2.202
28985WAT     H287198   7.983   7.340   2.225
28986WAT      O87199   6.330   1.058   6.729
28986WAT     H187200   6.314   1.146   6.686
28986WAT     H287201   6.318   0.985   6.663
28987WAT      O87202   4.466   2.305   7.536
28987WAT     H187203   4.529   2.234   7.505
28987WAT     H287204   4.407   2.268   7.609
28988WAT      O87205   7.074   8.771   7.435
28988WAT     H187206   7.010   8.696   7.446
28988WAT     H287207   7.085   8.793   7.338
28989WAT      O87208   2.523   3.433   6.692
28989WAT     H187209   2.484   3.372   6.623
28989WAT     H287210   2.615   3.460   6.665
28990WAT      O87211   5.574   2.817   7.408
28990WAT     H187212   5.630   2.800   7.326
28990WAT     H287213   5.617   2.889   7.462
28991WAT      O87214   2.765   4.172   5.334
28991WAT     H187215   2.667   4.153   5.345
28991WAT     H287216   2.813   4.088   5.309
28992WAT      O87217   5.761   5.565   7.658
28992WAT     H187218   5.784   5.662   7.658
28992WAT     H287219   5.729   5.539   7.567
28993WAT      O87220   7.401   3.691   6.942
28993WAT     H187221   7.474   3.689   6.875
28993WAT     H287222   7.366   3.785   6.951
28994WAT      O87223   9.808   0.694   8.758
28994WAT     H187224   9.805   0.720   8.662
28994WAT     H287225   9.721   0.717   8.802
28995WAT      O87226   4.805   5.863   1.647
28995WAT     H187227   4.835   5.793   1.712
28995WAT     H287228   4.859   5.945   1.660
28996WAT      O87229   4.201   0.384   9.847
28996WAT     H187230   4.274   0.321   9.874
28996WAT     H287231   4.122   0.371   9.906
28997WAT      O87232   7.061   7.085   3.413
28997WAT     H187233   7.024   7.161   3.467
28997WAT     H287234   7.004   7.004   3.427
28998WAT      O87235   4.157   0.699   5.786
28998WAT     H187236   4.183   0.767   5.854
28998WAT     H287237   4.239   0.667   5.738
28999WAT      O87238   4.191   8.505   1.456
28999WAT     H187239   4.175   8.530   1.552
28999WAT     H287240   4.287   8.516   1.434
29000WAT      O87241   9.339   4.827   3.674
29000WAT     H187242   9.290   4.742   3.653
29000WAT     H287243   9.329   4.849   3.771
29001WAT      O87244   8.707   8.715   7.397
29001WAT     H187245   8.675   8.623   7.421
29001WAT     H287246   8.767   8.710   7.318
29002WAT      O87247   0.341   5.631   2.604
29002WAT     H187248   0.438   5.637   2.578
29002WAT     H287249   0.329   5.553   2.666
29003WAT      O87250   8.980   0.502   6.064
29003WAT     H187251   9.009   0.569   6.131
29003WAT     H287252   8.952   0.418   6.110
29004WAT      O87253   9.767   9.685   0.837
29004WAT     H187254   9.765   9.676   0.737
29004WAT     H287255   9.785   9.595   0.877
29005WAT      O87256   7.421   0.797   2.499
29005WAT     H187257   7.400   0.895   2.500
29005WAT     H287258   7.520   0.784   2.501
29006WAT      O87259   3.897   6.810   5.654
29006WAT     H187260   3.958   6.845   5.584
29006WAT     H287261   3.914   6.712   5.667
29007WAT      O87262   4.410   1.031   0.264
29007WAT     H187263   4.347   1.001   0.193
29007WAT     H287264   4.425   1.130   0.255
29008WAT      O87265   5.890   0.813   0.103
29008WAT     H187266   5.859   0.724   0.069
29008WAT     H287267   5.982   0.831   0.069
29009WAT      O87268   5.066   5.456   5.670
29009WAT     H187269   5.064   5.357   5.663
29009WAT     H287270   5.078   5.483   5.765
29010WAT      O87271   8.064   7.329   2.453
29010WAT     H187272   7.971   7.335   2.418
29010WAT     H287273   8.078   7.397   2.525
29011WAT      O87274   7.838   3.476   9.669
29011WAT     H187275   7.885   3.389   9.678
29011WAT     H287276   7.869   3.539   9.740
29012WAT      O87277   5.105   7.846   6.681
29012WAT     H187278   5.035   7.800   6.625
29012WAT     H287279   5.157   7.778   6.733
29013WAT      O87280   8.470   5.723   4.156
29013WAT     H187281   8.410   5.644   4.171
29013WAT     H287282   8.531   5.735   4.234
29014WAT      O87283   6.736   6.446   9.492
29014WAT     H187284   6.751   6.347   9.494
29014WAT     H287285   6.824   6.493   9.488
29015WAT      O87286   5.832   3.079   7.769
29015WAT     H187287   5.901   3.151   7.780
29015WAT     H287288   5.821   3.058   7.672
29016WAT      O87289   7.842   0.339   0.041
29016WAT     H187290   7.765   0.389   0.079
29016WAT     H287291   7.817   0.300  -0.048
29017WAT      O87292   4.860   2.099   4.502
29017WAT     H187293   4.931   2.164   4.527
29017WAT     H287294   4.770   2.143   4.510
29018WAT      O87295   6.205   6.567   8.582
29018WAT     H187296   6.234   6.482   8.538
29018WAT     H287297   6.105   6.573   8.582
29019WAT      O87298   2.125   0.343   4.490
29019WAT     H187299   2.174   0.259   4.466
29019WAT     H287300   2.030   0.321   4.511
29020WAT      O87301   4.881   5.701   5.622
29020WAT     H187302   4.962   5.739   5.666
29020WAT     H287303   4.804   5.764   5.632
29021WAT      O87304   8.645   6.356   2.876
29021WAT     H187305   8.549   6.382   2.873
29021WAT     H287306   8.693   6.411   2.944
29022WAT      O87307   0.990   7.129   6.409
29022WAT     H187308   1.013   7.214   6.457
29022WAT     H287309   1.074   7.083   6.380
29023WAT      O87310   6.580   7.682   6.936
29023WAT     H187311   6.534   7.617   6.997
29023WAT     H287312   6.670   7.646   6.910
29024WAT      O87313   4.481   8.336   3.719
29024WAT     H187314   4.502   8.239   3.735
29024WAT     H287315   4.554   8.393   3.757
29025WAT      O87316   1.625   6.305   0.565
29025WAT     H187317   1.562   6.229   0.548
29025WAT     H287318   1.689   6.313   0.488
29026WAT      O87319   6.840   6.897   0.810
29026WAT     H187320   6.786   6.931   0.888
29026WAT     H287321   6.920   6.848   0.844
29027WAT      O87322   4.903   3.819   2.805
29027WAT     H187323   4.808   3.842   2.823
29027WAT     H287324   4.962   3.893   2.838
29028WAT      O87325   9.543   5.498   1.757
29028WAT     H187326   9.475   5.570   1.767
29028WAT     H287327   9.621   5.518   1.816
29029WAT      O87328   6.984   9.795   0.712
29029WAT     H187329   7.043   9.714   0.707
29029WAT     H287330   6.977   9.825   0.807
29030WAT      O87331   9.851   6.886   6.053
29030WAT     H187332   9.830   6.900   6.149
29030WAT     H287333   9.867   6.789   6.036
29031WAT      O87334   0.485   6.135   6.446
29031WAT     H187335   0.545   6.095   6.377
29031WAT     H287336   0.393   6.095   6.436
29032WAT      O87337   2.213   5.638   8.106
29032WAT     H187338   2.245   5.689   8.026
29032WAT     H287339   2.291   5.612   8.162
29033WAT      O87340   7.173   2.146   1.813
29033WAT     H187341   7.128   2.159   1.724
29033WAT     H287342   7.192   2.236   1.854
29034WAT      O87343   9.124   4.651   5.789
29034WAT     H187344   9.052   4.699   5.838
29034WAT     H287345   9.084   4.599   5.713
29035WAT      O87346   5.801   2.209   4.196
29035WAT     H187347   5.834   2.151   4.271
29035WAT     H287348   5.786   2.302   4.229
29036WAT      O87349   1.459   7.071   0.031
29036WAT     H187350   1.523   7.106   0.099
29036WAT     H287351   1.430   7.146  -0.029
29037WAT      O87352   2.722   1.666   1.888
29037WAT     H187353   2.700   1.686   1.792
29037WAT     H287354   2.641   1.627   1.932
29038WAT      O87355   4.076   8.470   3.934
29038WAT     H187356   4.026   8.472   3.848
29038WAT     H287357   4.153   8.534   3.929
29039WAT      O87358   1.472   5.693   5.398
29039WAT     H187359   1.476   5.646   5.310
29039WAT     H287360   1.484   5.628   5.473
29040WAT      O87361   9.095   2.598   3.878
29040WAT     H187362   9.156   2.565   3.950
29040WAT     H287363   9.005   2.555   3.888
29041WAT      O87364   1.458   0.199   3.804
29041WAT     H187365   1.427   0.134   3.873
29041WAT     H287366   1.427   0.291   3.827
29042WAT      O87367   8.610   5.602   0.599
29042WAT     H187368   8.602   5.651   0.686
29042WAT     H287369   8.613   5.504   0.617
29043WAT      O87370   8.581   2.338   0.808
29043WAT     H187371   8.627   2.253   0.786
29043WAT     H287372   8.630   2.385   0.881
29044WAT      O87373   5.162   1.052   6.210
29044WAT     H187374   5.174   1.007   6.121
29044WAT     H287375   5.163   1.151   6.197
29045WAT      O87376   7.372   2.290   4.239
29045WAT     H187377   7.442   2.218   4.238
29045WAT     H287378   7.284   2.250   4.215
29046WAT      O87379   7.729   9.492   7.028
29046WAT     H187380   7.658   9.465   6.962
29046WAT     H287381   7.691   9.558   7.093
29047WAT      O87382   3.966   8.874   5.277
29047WAT     H187383   3.964   8.857   5.178
29047WAT     H287384   4.028   8.809   5.320
29048WAT      O87385   2.580   0.640   7.707
29048WAT     H187386   2.482   0.640   7.687
29048WAT     H287387   2.627   0.704   7.647
29049WAT      O87388   7.488   8.945   5.475
29049WAT     H187389   7.482   8.846   5.482
29049WAT     H287390   7.421   8.987   5.537
29050WAT      O87391   0.270   3.453   8.603
29050WAT     H187392   0.294   3.522   8.671
29050WAT     H287393   0.194   3.485   8.547
29051WAT      O87394   8.370   3.795   4.115
29051WAT     H187395   8.329   3.760   4.031
29051WAT     H287396   8.390   3.719   4.176
29052WAT      O87397   5.266   6.310   6.661
29052WAT     H187398   5.216   6.375   6.718
29052WAT     H287399   5.202   6.257   6.606
29053WAT      O87400   0.667   2.728   0.351
29053WAT     H187401   0.610   2.666   0.297
29053WAT     H287402   0.685   2.687   0.441
29054WAT      O87403   8.531   3.816   1.458
29054WAT     H187404   8.622   3.845   1.487
29054WAT     H287405   8.462   3.864   1.513
29055WAT      O87406   4.994   7.650   4.307
29055WAT     H187407   5.053   7.726   4.333
29055WAT     H287408   4.923   7.682   4.245
29056WAT      O87409   7.904   4.357   7.756
29056WAT     H187410   7.881   4.304   7.675
29056WAT     H287411   7.843   4.332   7.831
29057WAT      O87412   8.422   9.597   8.577
29057WAT     H187413   8.511   9.554   8.564
29057WAT     H287414   8.376   9.605   8.488
29058WAT      O87415   6.149   3.278   6.935
29058WAT     H187416   6.168   3.194   6.885
29058WAT     H287417   6.101   3.257   7.020
29059WAT      O87418   5.697   2.295   4.694
29059WAT     H187419   5.629   2.344   4.639
29059WAT     H287420   5.657   2.211   4.730
29060WAT      O87421   4.599   8.888   8.720
29060WAT     H187422   4.598   8.797   8.679
29060WAT     H287423   4.693   8.914   8.742
29061WAT      O87424   4.397   5.052   0.703
29061WAT     H187425   4.461   5.038   0.778
29061WAT     H287426   4.354   4.965   0.679
29062WAT      O87427   7.783   5.874   5.524
29062WAT     H187428   7.792   5.818   5.607
29062WAT     H287429   7.825   5.826   5.447
29063WAT      O87430   3.090   4.012   6.215
29063WAT     H187431   3.000   4.019   6.258
29063WAT     H287432   3.160   4.006   6.287
29064WAT      O87433   4.764   6.119   4.845
29064WAT     H187434   4.689   6.105   4.909
29064WAT     H287435   4.827   6.188   4.881
29065WAT      O87436   0.663   9.683   0.279
29065WAT     H187437   0.726   9.698   0.355
29065WAT     H287438   0.635   9.587   0.278
29066WAT      O87439   3.336   8.587   4.895
29066WAT     H187440   3.261   8.644   4.861
29066WAT     H287441   3.417   8.643   4.911
29067WAT      O87442   6.249   2.370   2.348
29067WAT     H187443   6.272   2.398   2.255
29067WAT     H287444   6.251   2.270   2.354
29068WAT      O87445   5.559   8.085   9.527
29068WAT     H187446   5.509   8.000   9.507
29068WAT     H287447   5.632   8.066   9.593
29069WAT      O87448   5.525   4.069   6.486
29069WAT     H187449   5.575   3.987   6.512
29069WAT     H287450   5.561   4.103   6.399
29070WAT      O87451   9.738   0.607   5.564
29070WAT     H187452   9.804   0.533   5.577
29070WAT     H287453   9.646   0.568   5.552
29071WAT      O87454   4.642   6.333   4.427
29071WAT     H187455   4.562   6.291   4.385
29071WAT     H287456   4.619   6.363   4.520
29072WAT      O87457   5.590   1.217   6.091
29072WAT     H187458   5.669   1.173   6.134
29072WAT     H287459   5.543   1.151   6.033
29073WAT      O87460   5.768   6.156   5.813
29073WAT     H187461   5.764   6.062   5.847
29073WAT     H287462   5.817   6.213   5.880
29074WAT      O87463   3.153   3.245   0.455
29074WAT     H187464   3.201   3.296   0.383
29074WAT     H287465   3.096   3.175   0.414
29075WAT      O87466   0.096   3.893   2.510
29075WAT     H187467   0.011   3.855   2.473
29075WAT     H287468   0.162   3.820   2.525
29076WAT      O87469   1.323   8.595   9.019
29076WAT     H187470   1.374   8.516   8.986
29076WAT     H287471   1.321   8.594   9.119
29077WAT      O87472   8.356   5.750   7.301
29077WAT     H187473   8.350   5.650   7.311
29077WAT     H287474   8.264   5.788   7.306
29078WAT      O87475   4.546   6.359   6.454
29078WAT     H187476   4.524   6.455   6.474
29078WAT     H287477   4.622   6.356   6.389
29079WAT      O87478   4.544   3.717   6.180
29079WAT     H187479   4.475   3.687   6.114
29079WAT     H287480   4.635   3.710   6.139
29080WAT      O87481   7.761   3.138   0.728
29080WAT     H187482   7.793   3.069   0.792
29080WAT     H287483   7.667   3.117   0.700
29081WAT      O87484   7.738   9.832   9.056
29081WAT     H187485   7.701   9.792   9.140
29081WAT     H287486   7.827   9.791   9.035
29082WAT      O87487   5.075   8.272   6.601
29082WAT     H187488   5.070   8.362   6.644
29082WAT     H287489   4.987   8.225   6.610
29083WAT      O87490   1.090   3.123   9.743
29083WAT     H187491   1.132   3.086   9.826
29083WAT     H287492   1.154   3.113   9.667
29084WAT      O87493   5.362   5.170   8.203
29084WAT     H187494   5.442   5.119   8.235
29084WAT     H287495   5.364   5.262   8.240
29085WAT      O87496   2.352   8.938   6.124
29085WAT     H187497   2.332   8.842   6.140
29085WAT     H287498   2.343   8.959   6.026
29086WAT      O87499   2.261   5.054   1.134
29086WAT     H187500   2.278   5.082   1.229
29086WAT     H287501   2.206   4.970   1.135
29087WAT      O87502   2.844   3.043   7.989
29087WAT     H187503   2.938   3.021   8.016
29087WAT     H287504   2.822   2.996   7.903
29088WAT      O87505   3.804   7.636   7.168
29088WAT     H187506   3.845   7.720   7.204
29088WAT     H287507   3.737   7.601   7.233
29089WAT      O87508   7.283   2.076   9.432
29089WAT     H187509   7.262   2.008   9.502
29089WAT     H287510   7.294   2.030   9.343
29090WAT      O87511   7.979   7.841   1.024
29090WAT     H187512   8.011   7.758   1.070
29090WAT     H287513   7.883   7.830   0.998
29091WAT      O87514   7.082   6.833   5.513
29091WAT     H187515   7.020   6.831   5.435
29091WAT     H287516   7.030   6.848   5.597
29092WAT      O87517   7.188   7.038   8.989
29092WAT     H187518   7.270   6.985   9.006
29092WAT     H287519   7.194   7.080   8.899
29093WAT      O87520   4.430   0.370   0.195
29093WAT     H187521   4.339   0.327   0.195
29093WAT     H287522   4.422   0.464   0.162
29094WAT      O87523   5.021   7.045   1.492
29094WAT     H187524   5.118   7.024   1.496
29094WAT     H287525   4.970   6.979   1.548
29095WAT      O87526   3.805   7.755   1.507
29095WAT     H187527   3.726   7.782   1.451
29095WAT     H287528   3.813   7.656   1.508
29096WAT      O87529   7.856   3.447   2.170
29096WAT     H187530   7.837   3.541   2.198
29096WAT     H287531   7.945   3.419   2.208
29097WAT      O87532   9.210   9.410   9.081
29097WAT     H187533   9.218   9.510   9.089
29097WAT     H287534   9.242   9.381   8.991
29098WAT      O87535   1.089   7.264   9.396
29098WAT     H187536   1.079   7.332   9.324
29098WAT     H287537   0.998   7.238   9.430
29099WAT      O87538   9.343   2.886   4.311
29099WAT     H187539   9.429   2.935   4.320
29099WAT     H287540   9.266   2.950   4.318
29100WAT      O87541   0.830   9.587   5.413
29100WAT     H187542   0.916   9.543   5.387
29100WAT     H287543   0.759   9.562   5.346
29101WAT      O87544   7.971   8.531   3.154
29101WAT     H187545   7.979   8.511   3.057
29101WAT     H287546   7.905   8.605   3.167
29102WAT      O87547   1.135   7.800   7.334
29102WAT     H187548   1.069   7.727   7.352
29102WAT     H287549   1.101   7.885   7.374
29103WAT      O87550   7.858   9.691   7.680
29103WAT     H187551   7.917   9.662   7.604
29103WAT     H287552   7.796   9.616   7.704
29104WAT      O87553   0.308   6.636   8.970
29104WAT     H187554   0.284   6.543   8.942
29104WAT     H287555   0.251   6.702   8.921
29105WAT      O87556   3.864   4.143   8.272
29105WAT     H187557   3.779   4.180   8.310
29105WAT     H287558   3.936   4.211   8.281
29106WAT      O87559   8.794   9.663   4.840
29106WAT     H187560   8.829   9.583   4.889
29106WAT     H287561   8.720   9.634   4.779
29107WAT      O87562   5.757   1.625   3.964
29107WAT     H187563   5.675   1.573   3.939
29107WAT     H287564   5.742   1.722   3.947
29108WAT      O87565   3.066   2.403   5.746
29108WAT     H187566   3.107   2.312   5.754
29108WAT     H287567   3.044   2.421   5.650
29109WAT      O87568   5.411   3.756   0.853
29109WAT     H187569   5.476   3.795   0.788
29109WAT     H287570   5.442   3.774   0.946
29110WAT      O87571   6.189   3.389   7.412
29110WAT     H187572   6.106   3.386   7.357
29110WAT     H287573   6.264   3.424   7.356
29111WAT      O87574   7.959   6.152   8.726
29111WAT     H187575   7.859   6.154   8.731
29111WAT     H287576   7.991   6.058   8.733
29112WAT      O87577   4.683   4.042   3.389
29112WAT     H187578   4.636   4.025   3.476
29112WAT     H287579   4.781   4.048   3.404
29113WAT      O87580   6.828   2.336   3.898
29113WAT     H187581   6.843   2.433   3.920
29113WAT     H287582   6.829   2.325   3.798
29114WAT      O87583   5.513   3.116   5.058
29114WAT     H187584   5.544   3.166   4.977
29114WAT     H287585   5.420   3.084   5.044
29115WAT      O87586   7.167   4.654   8.041
29115WAT     H187587   7.250   4.710   8.036
29115WAT     H287588   7.192   4.557   8.040
29116WAT      O87589   5.959   9.210   0.756
29116WAT     H187590   5.937   9.291   0.701
29116WAT     H287591   6.046   9.171   0.725
29117WAT      O87592   4.724   6.834   9.222
29117WAT     H187593   4.786   6.831   9.301
29117WAT     H287594   4.737   6.753   9.166
29118WAT      O87595   3.202   0.005   9.082
29118WAT     H187596   3.210  -0.055   9.002
29118WAT     H287597   3.127  -0.026   9.140
29119WAT      O87598   1.733   6.626   3.191
29119WAT     H187599   1.686   6.545   3.156
29119WAT     H287600   1.827   6.602   3.216
29120WAT      O87601   3.082   1.956   5.732
29120WAT     H187602   3.123   2.042   5.762
29120WAT     H287603   2.991   1.946   5.772
29121WAT      O87604   6.074   4.411   2.334
29121WAT     H187605   6.026   4.429   2.420
29121WAT     H287606   6.119   4.322   2.339
29122WAT      O87607   1.087   6.354   6.172
29122WAT     H187608   1.136   6.435   6.137
29122WAT     H287609   1.122   6.272   6.126
29123WAT      O87610   4.939   4.966   6.532
29123WAT     H187611   4.956   5.028   6.456
29123WAT     H287612   5.011   4.977   6.601
29124WAT      O87613   9.186   7.146   9.852
29124WAT     H187614   9.285   7.141   9.840
29124WAT     H287615   9.150   7.226   9.804
29125WAT      O87616   0.993   1.984   9.039
29125WAT     H187617   1.011   2.082   9.044
29125WAT     H287618   0.903   1.968   8.998
29126WAT      O87619   7.190   1.699   8.453
29126WAT     H187620   7.185   1.737   8.360
29126WAT     H287621   7.148   1.763   8.517
29127WAT      O87622   5.124   1.643   2.952
29127WAT     H187623   5.093   1.616   2.861
29127WAT     H287624   5.217   1.608   2.967
29128WAT      O87625   0.930   0.824   1.166
29128WAT     H187626   0.906   0.860   1.076
29128WAT     H287627   1.028   0.833   1.181
29129WAT      O87628   8.279   5.762   0.815
29129WAT     H187629   8.230   5.807   0.889
29129WAT     H287630   8.374   5.792   0.815
29130WAT      O87631   7.848   0.741   7.563
29130WAT     H187632   7.885   0.819   7.615
29130WAT     H287633   7.749   0.740   7.572
29131WAT      O87634   1.211   9.144   0.163
29131WAT     H187635   1.247   9.079   0.097
29131WAT     H287636   1.187   9.229   0.117
29132WAT      O87637   8.261   1.542   4.840
29132WAT     H187638   8.207   1.463   4.869
29132WAT     H287639   8.323   1.569   4.914
29133WAT      O87640   2.041   3.183   7.027
29133WAT     H187641   2.021   3.228   6.940
29133WAT     H287642   2.007   3.089   7.025
29134WAT      O87643   4.038   6.737   7.036
29134WAT     H187644   4.118   6.748   6.977
29134WAT     H287645   4.029   6.817   7.096
29135WAT      O87646   9.726   9.437   6.074
29135WAT     H187647   9.780   9.500   6.019
29135WAT     H287648   9.780   9.403   6.150
29136WAT      O87649   4.200   4.906   6.885
29136WAT     H187650   4.160   4.862   6.805
29136WAT     H287651   4.267   4.974   6.856
29137WAT      O87652   9.880   7.224   5.727
29137WAT     H187653   9.926   7.135   5.727
29137WAT     H287654   9.785   7.212   5.756
29138WAT      O87655   8.405   9.241   0.583
29138WAT     H187656   8.409   9.158   0.639
29138WAT     H287657   8.313   9.250   0.545
29139WAT      O87658   3.678   8.397   0.258
29139WAT     H187659   3.582   8.400   0.232
29139WAT     H287660   3.711   8.490   0.276
29140WAT      O87661   8.341   2.567   3.926
29140WAT     H187662   8.245   2.574   3.902
29140WAT     H287663   8.393   2.531   3.848
29141WAT      O87664   5.145   0.217   5.799
29141WAT     H187665   5.059   0.216   5.748
29141WAT     H287666   5.217   0.174   5.744
29142WAT      O87667   1.828   8.150   3.542
29142WAT     H187668   1.912   8.180   3.496
29142WAT     H287669   1.751   8.160   3.480
29143WAT      O87670   0.559   2.685   4.789
29143WAT     H187671   0.643   2.630   4.783
29143WAT     H287672   0.513   2.666   4.876
29144WAT      O87673   2.849   6.068   7.759
29144WAT     H187674   2.943   6.093   7.734
29144WAT     H287675   2.828   5.977   7.722
29145WAT      O87676   1.282   4.173   7.350
29145WAT     H187677   1.266   4.251   7.411
29145WAT     H287678   1.337   4.105   7.397
29146WAT      O87679   2.817   4.794   9.024
29146WAT     H187680   2.741   4.854   9.047
29146WAT     H287681   2.898   4.849   9.006
29147WAT      O87682   9.122   0.498   3.592
29147WAT     H187683   9.106   0.543   3.680
29147WAT     H287684   9.174   0.413   3.607
29148WAT      O87685   7.364   2.285   5.410
29148WAT     H187686   7.407   2.220   5.347
29148WAT     H287687   7.322   2.359   5.358
29149WAT      O87688   7.641   4.360   4.897
29149WAT     H187689   7.697   4.377   4.978
29149WAT     H287690   7.648   4.438   4.834
29150WAT      O87691   1.726   4.960   7.036
29150WAT     H187692   1.696   5.034   6.976
29150WAT     H287693   1.688   4.873   7.005
29151WAT      O87694   4.078   1.376   2.466
29151WAT     H187695   4.124   1.317   2.532
29151WAT     H287696   4.144   1.437   2.422
29152WAT      O87697   5.307   8.455   6.715
29152WAT     H187698   5.327   8.421   6.623
29152WAT     H287699   5.211   8.485   6.719
29153WAT      O87700   7.391   3.560   8.761
29153WAT     H187701   7.327   3.594   8.830
29153WAT     H287702   7.343   3.550   8.673
29154WAT      O87703   8.903   3.195   2.387
29154WAT     H187704   8.983   3.176   2.445
29154WAT     H287705   8.847   3.266   2.431
29155WAT      O87706   2.687   6.744   9.791
29155WAT     H187707   2.598   6.742   9.745
29155WAT     H287708   2.759   6.742   9.722
29156WAT      O87709   5.442   1.956   0.748
29156WAT     H187710   5.469   2.042   0.791
29156WAT     H287711   5.474   1.955   0.653
29157WAT      O87712   3.988   6.242   0.138
29157WAT     H187713   3.907   6.238   0.196
29157WAT     H287714   4.059   6.182   0.175
29158WAT      O87715   3.271   1.379   4.626
29158WAT     H187716   3.351   1.320   4.639
29158WAT     H287717   3.296   1.459   4.572
29159WAT      O87718   7.651   7.739   9.767
29159WAT     H187719   7.579   7.752   9.699
29159WAT     H287720   7.610   7.728   9.858
29160WAT      O87721   4.389   8.510   2.575
29160WAT     H187722   4.420   8.568   2.500
29160WAT     H287723   4.430   8.541   2.661
29161WAT      O87724   7.365   8.841   4.283
29161WAT     H187725   7.441   8.777   4.296
29161WAT     H287726   7.283   8.805   4.328
29162WAT      O87727   2.094   0.548   1.987
29162WAT     H187728   2.139   0.619   1.933
29162WAT     H287729   2.060   0.588   2.072
29163WAT      O87730   8.516   4.364   8.641
29163WAT     H187731   8.573   4.342   8.562
29163WAT     H287732   8.567   4.424   8.703
29164WAT      O87733   3.745   5.340   0.577
29164WAT     H187734   3.744   5.253   0.626
29164WAT     H287735   3.823   5.343   0.514
29165WAT      O87736   1.063   9.030   5.276
29165WAT     H187737   0.989   9.015   5.341
29165WAT     H287738   1.097   8.942   5.242
29166WAT      O87739   6.648   4.944   3.664
29166WAT     H187740   6.638   4.983   3.572
29166WAT     H287741   6.745   4.944   3.690
29167WAT      O87742   7.136   8.332   9.893
29167WAT     H187743   7.078   8.251   9.888
29167WAT     H287744   7.163   8.359   9.800
29168WAT      O87745   7.632   9.056   3.515
29168WAT     H187746   7.592   9.006   3.592
29168WAT     H287747   7.575   9.043   3.434
29169WAT      O87748   0.156   1.368   6.026
29169WAT     H187749   0.152   1.276   6.064
29169WAT     H287750   0.115   1.368   5.934
29170WAT      O87751   0.447   5.689   1.374
29170WAT     H187752   0.451   5.781   1.335
29170WAT     H287753   0.456   5.695   1.473
29171WAT      O87754   5.251   2.479   0.645
29171WAT     H187755   5.275   2.512   0.737
29171WAT     H287756   5.327   2.495   0.583
29172WAT      O87757   7.022   0.829   4.887
29172WAT     H187758   7.011   0.927   4.874
29172WAT     H287759   7.055   0.787   4.803
29173WAT      O87760   5.664   6.202   2.390
29173WAT     H187761   5.582   6.182   2.337
29173WAT     H287762   5.714   6.117   2.407
29174WAT      O87763   8.328   3.431   0.235
29174WAT     H187764   8.267   3.473   0.302
29174WAT     H287765   8.417   3.475   0.239
29175WAT      O87766   9.735   3.205   1.299
29175WAT     H187767   9.824   3.197   1.343
29175WAT     H287768   9.728   3.293   1.253
29176WAT      O87769   9.369   3.117   9.510
29176WAT     H187770   9.417   3.029   9.505
29176WAT     H287771   9.318   3.132   9.426
29177WAT      O87772   8.142   3.958   6.539
29177WAT     H187773   8.075   3.999   6.600
29177WAT     H287774   8.107   3.957   6.445
29178WAT      O87775   7.887   1.716   9.795
29178WAT     H187776   7.881   1.638   9.733
29178WAT     H287777   7.966   1.772   9.769
29179WAT      O87778   1.387   4.451   2.675
29179WAT     H187779   1.462   4.402   2.631
29179WAT     H287780   1.336   4.389   2.735
29180WAT      O87781   4.710   2.604   8.378
29180WAT     H187782   4.704   2.692   8.331
29180WAT     H287783   4.644   2.540   8.338
29181WAT      O87784   7.696   4.600   8.925
29181WAT     H187785   7.608   4.569   8.959
29181WAT     H287786   7.691   4.610   8.825
29182WAT      O87787   6.099   0.182   7.865
29182WAT     H187788   6.053   0.193   7.954
29182WAT     H287789   6.151   0.265   7.845
29183WAT      O87790   0.346   8.240   6.631
29183WAT     H187791   0.292   8.158   6.651
29183WAT     H287792   0.307   8.319   6.679
29184WAT      O87793   8.058   2.130   2.657
29184WAT     H187794   8.071   2.206   2.720
29184WAT     H287795   8.143   2.112   2.607
29185WAT      O87796   8.449   7.997   9.309
29185WAT     H187797   8.517   7.962   9.372
29185WAT     H287798   8.494   8.032   9.227
29186WAT      O87799   2.383   4.002   3.047
29186WAT     H187800   2.365   4.045   3.136
29186WAT     H287801   2.444   4.061   2.993
29187WAT      O87802   9.434   3.360   1.185
29187WAT     H187803   9.459   3.428   1.116
29187WAT     H287804   9.371   3.401   1.251
29188WAT      O87805   2.198   2.147   1.521
29188WAT     H187806   2.106   2.172   1.492
29188WAT     H287807   2.242   2.092   1.451
29189WAT      O87808   4.051   5.607   4.229
29189WAT     H187809   4.137   5.571   4.194
29189WAT     H287810   3.984   5.533   4.236
29190WAT      O87811   8.878   0.972   9.783
29190WAT     H187812   8.800   1.032   9.801
29190WAT     H287813   8.937   1.013   9.713
29191WAT      O87814   3.403   5.519   2.555
29191WAT     H187815   3.378   5.422   2.544
29191WAT     H287816   3.456   5.530   2.638
29192WAT      O87817   1.745   9.207   3.589
29192WAT     H187818   1.661   9.171   3.630
29192WAT     H287819   1.824   9.163   3.630
29193WAT      O87820   1.518   8.097   2.225
29193WAT     H187821   1.615   8.098   2.202
29193WAT     H287822   1.507   8.103   2.324
29194WAT      O87823   9.752   8.686   3.009
29194WAT     H187824   9.778   8.654   2.918
29194WAT     H287825   9.752   8.786   3.011
29195WAT      O87826   8.277   1.482   9.776
29195WAT     H187827   8.318   1.420   9.709
29195WAT     H287828   8.261   1.571   9.733
29196WAT      O87829   3.553   3.750   1.109
29196WAT     H187830   3.584   3.837   1.070
29196WAT     H287831   3.576   3.747   1.207
29197WAT      O87832   6.689   9.250   0.324
29197WAT     H187833   6.731   9.340   0.306
29197WAT     H287834   6.661   9.209   0.237
29198WAT      O87835   3.265   3.241   5.688
29198WAT     H187836   3.198   3.224   5.760
29198WAT     H287837   3.218   3.246   5.599
29199WAT      O87838   0.851   7.994   1.342
29199WAT     H187839   0.833   7.931   1.266
29199WAT     H287840   0.947   8.021   1.342
29200WAT      O87841   0.890   3.615   6.627
29200WAT     H187842   0.874   3.669   6.545
29200WAT     H287843   0.925   3.674   6.700
29201WAT      O87844   1.134   7.392   6.427
29201WAT     H187845   1.213   7.350   6.470
29201WAT     H287846   1.157   7.483   6.394
29202WAT      O87847   8.565   1.974   0.970
29202WAT     H187848   8.603   1.996   1.060
29202WAT     H287849   8.521   1.885   0.973
29203WAT      O87850   6.474   2.680   6.893
29203WAT     H187851   6.403   2.685   6.822
29203WAT     H287852   6.499   2.773   6.921
29204WAT      O87853   0.614   4.999   2.366
29204WAT     H187854   0.572   5.083   2.330
29204WAT     H287855   0.567   4.919   2.327
29205WAT      O87856   8.917   7.690   0.702
29205WAT     H187857   8.961   7.777   0.684
29205WAT     H287858   8.856   7.699   0.781
29206WAT      O87859   3.694   6.346   1.186
29206WAT     H187860   3.670   6.250   1.195
29206WAT     H287861   3.716   6.384   1.276
29207WAT      O87862   5.394   3.412   5.757
29207WAT     H187863   5.371   3.363   5.673
29207WAT     H287864   5.317   3.405   5.821
29208WAT      O87865   7.355   3.588   0.829
29208WAT     H187866   7.405   3.588   0.743
29208WAT     H287867   7.259   3.567   0.812
29209WAT      O87868   1.683   5.012   5.319
29209WAT     H187869   1.615   5.079   5.346
29209WAT     H287870   1.773   5.057   5.311
29210WAT      O87871   2.917   0.447   1.185
29210WAT     H187872   2.944   0.455   1.281
29210WAT     H287873   2.821   0.474   1.175
29211WAT      O87874   5.702   3.956   5.237
29211WAT     H187875   5.757   4.023   5.287
29211WAT     H287876   5.719   3.865   5.274
29212WAT      O87877   7.102   3.501   0.715
29212WAT     H187878   7.110   3.411   0.757
29212WAT     H287879   7.160   3.505   0.634
29213WAT      O87880   1.343   7.803   0.748
29213WAT     H187881   1.436   7.830   0.726
29213WAT     H287882   1.336   7.782   0.845
29214WAT      O87883   9.024   9.543   9.463
29214WAT     H187884   9.064   9.467   9.411
29214WAT     H287885   8.998   9.617   9.400
29215WAT      O87886   6.598   3.934   3.103
29215WAT     H187887   6.593   3.846   3.152
29215WAT     H287888   6.578   4.008   3.166
29216WAT      O87889   7.689   1.102   3.047
29216WAT     H187890   7.700   1.022   3.107
29216WAT     H287891   7.643   1.074   2.963
29217WAT      O87892   2.638   2.959   1.739
29217WAT     H187893   2.694   2.960   1.822
29217WAT     H287894   2.542   2.946   1.763
29218WAT      O87895   5.519   9.706   3.930
29218WAT     H187896   5.445   9.772   3.942
29218WAT     H287897   5.603   9.743   3.970
29219WAT      O87898   2.143   2.549   4.864
29219WAT     H187899   2.069   2.594   4.813
29219WAT     H287900   2.155   2.456   4.831
29220WAT      O87901   7.536   2.323   8.035
29220WAT     H187902   7.547   2.324   8.135
29220WAT     H287903   7.488   2.239   8.008
29221WAT      O87904   0.067   2.105   7.402
29221WAT     H187905   0.147   2.076   7.454
29221WAT     H287906   0.084   2.095   7.304
29222WAT      O87907   2.431   5.680   7.164
29222WAT     H187908   2.387   5.766   7.137
29222WAT     H287909   2.529   5.685   7.145
29223WAT      O87910   1.135   7.691   2.269
29223WAT     H187911   1.092   7.713   2.182
29223WAT     H287912   1.221   7.740   2.277
29224WAT      O87913   4.913   8.069   4.315
29224WAT     H187914   4.894   8.154   4.265
29224WAT     H287915   4.867   7.992   4.269
29225WAT      O87916   7.546   7.566   3.192
29225WAT     H187917   7.479   7.547   3.120
29225WAT     H287918   7.627   7.609   3.152
29226WAT      O87919   1.394   4.026   5.971
29226WAT     H187920   1.439   4.115   5.977
29226WAT     H287921   1.307   4.029   6.022
29227WAT      O87922   5.084   5.956   0.417
29227WAT     H187923   5.098   5.858   0.435
29227WAT     H287924   5.068   5.970   0.319
29228WAT      O87925   9.082   4.083   5.179
29228WAT     H187926   9.153   4.136   5.132
29228WAT     H287927   9.064   3.999   5.127
29229WAT      O87928   8.805   1.695   3.767
29229WAT     H187929   8.793   1.771   3.702
29229WAT     H287930   8.721   1.684   3.820
29230WAT      O87931   0.671   1.307   9.702
29230WAT     H187932   0.721   1.304   9.616
29230WAT     H287933   0.670   1.401   9.737
29231WAT      O87934   8.291   2.163   6.236
29231WAT     H187935   8.340   2.163   6.323
29231WAT     H287936   8.218   2.232   6.239
29232WAT      O87937   7.221   5.951   4.245
29232WAT     H187938   7.194   5.880   4.180
29232WAT     H287939   7.141   6.008   4.267
29233WAT      O87940   4.885   7.553   4.775
29233WAT     H187941   4.928   7.627   4.827
29233WAT     H287942   4.947   7.524   4.702
29234WAT      O87943   4.445   7.259   1.694
29234WAT     H187944   4.374   7.217   1.750
29234WAT     H287945   4.452   7.209   1.607
29235WAT      O87946   5.356   4.822   2.622
29235WAT     H187947   5.371   4.735   2.668
29235WAT     H287948   5.431   4.884   2.642
29236WAT      O87949   0.072   6.106   0.047
29236WAT     H187950   0.170   6.086   0.043
29236WAT     H287951   0.043   6.114   0.142
29237WAT      O87952   1.603   2.896   7.090
29237WAT     H187953   1.692   2.872   7.131
29237WAT     H287954   1.571   2.821   7.033
29238WAT      O87955   2.982   4.345   4.414
29238WAT     H187956   3.081   4.356   4.423
29238WAT     H287957   2.950   4.403   4.339
29239WAT      O87958   0.694   1.384   2.066
29239WAT     H187959   0.637   1.412   2.143
29239WAT     H287960   0.636   1.356   1.989
29240WAT      O87961   5.682   2.240   7.645
29240WAT     H187962   5.713   2.326   7.685
29240WAT     H287963   5.748   2.168   7.666
29241WAT      O87964   0.711   4.269   3.099
29241WAT     H187965   0.672   4.271   3.191
29241WAT     H287966   0.788   4.205   3.097
29242WAT      O87967   2.502   5.572   9.854
29242WAT     H187968   2.454   5.488   9.830
29242WAT     H287969   2.600   5.556   9.853
29243WAT      O87970   2.450   2.923   5.211
29243WAT     H187971   2.432   2.825   5.216
29243WAT     H287972   2.509   2.942   5.133
29244WAT      O87973   9.576   0.759   8.926
29244WAT     H187974   9.476   0.762   8.931
29244WAT     H287975   9.615   0.837   8.974
29245WAT      O87976   8.348   0.045   3.854
29245WAT     H187977   8.382  -0.031   3.909
29245WAT     H287978   8.288   0.011   3.782
29246WAT      O87979   5.478   2.557   7.178
29246WAT     H187980   5.485   2.589   7.272
29246WAT     H287981   5.449   2.461   7.177
29247WAT      O87982   5.862   6.120   5.558
29247WAT     H187983   5.838   6.115   5.655
29247WAT     H287984   5.792   6.073   5.504
29248WAT      O87985   5.552   1.136   3.836
29248WAT     H187986   5.629   1.192   3.805
29248WAT     H287987   5.494   1.113   3.757
29249WAT      O87988   7.605   3.140   4.300
29249WAT     H187989   7.536   3.199   4.258
29249WAT     H287990   7.647   3.083   4.229
29250WAT      O87991   3.767   3.740   4.058
29250WAT     H187992   3.708   3.683   4.116
29250WAT     H287993   3.772   3.832   4.097
29251WAT      O87994   4.687   2.652   2.562
29251WAT     H187995   4.607   2.604   2.598
29251WAT     H287996   4.725   2.711   2.632
29252WAT      O87997   5.072   4.376   9.105
29252WAT     H187998   4.981   4.342   9.129
29252WAT     H287999   5.140   4.308   9.132
29253WAT      O88000   4.493   0.553   2.957
29253WAT     H188001   4.463   0.491   2.884
29253WAT     H288002   4.427   0.627   2.967
29254WAT      O88003   0.168   2.780   4.623
29254WAT     H188004   0.146   2.692   4.665
29254WAT     H288005   0.178   2.769   4.524
29255WAT      O88006   0.503   7.297   0.119
29255WAT     H188007   0.553   7.383   0.131
29255WAT     H288008   0.565   7.221   0.135
29256WAT      O88009   8.136   3.603   1.791
29256WAT     H188010   8.137   3.517   1.842
29256WAT     H288011   8.154   3.679   1.853
29257WAT      O88012   3.382   4.690   8.807
29257WAT     H188013   3.298   4.640   8.789
29257WAT     H288014   3.366   4.760   8.876
29258WAT      O88015   4.142   9.540   7.165
29258WAT     H188016   4.086   9.619   7.190
29258WAT     H288017   4.172   9.493   7.248
29259WAT      O88018   4.836   8.903   5.437
29259WAT     H188019   4.756   8.842   5.440
29259WAT     H288020   4.904   8.865   5.374
29260WAT      O88021   0.488   4.382   6.117
29260WAT     H188022   0.445   4.435   6.043
29260WAT     H288023   0.580   4.417   6.133
29261WAT      O88024   7.638   0.751   0.534
29261WAT     H188025   7.668   0.697   0.455
29261WAT     H288026   7.550   0.795   0.512
29262WAT      O88027   3.496   2.916   7.530
29262WAT     H188028   3.421   2.912   7.596
29262WAT     H288029   3.583   2.903   7.579
29263WAT      O88030   2.736   6.186   0.620
29263WAT     H188031   2.698   6.239   0.544
29263WAT     H288032   2.831   6.164   0.600
29264WAT      O88033   3.087   6.890   3.328
29264WAT     H188034   3.085   6.980   3.370
29264WAT     H288035   3.024   6.829   3.377
29265WAT      O88036   8.768   3.289   8.037
29265WAT     H188037   8.824   3.358   8.083
29265WAT     H288038   8.692   3.263   8.098
29266WAT      O88039   3.966   7.461   3.225
29266WAT     H188040   3.993   7.375   3.268
29266WAT     H288041   3.978   7.454   3.126
29267WAT      O88042   5.592   5.172   0.537
29267WAT     H188043   5.617   5.264   0.508
29267WAT     H288044   5.620   5.106   0.467
29268WAT      O88045   7.935   1.157   8.587
29268WAT     H188046   8.029   1.162   8.553
29268WAT     H288047   7.929   1.084   8.655
29269WAT      O88048   1.850   3.219   5.970
29269WAT     H188049   1.769   3.278   5.960
29269WAT     H288050   1.831   3.146   6.036
29270WAT      O88051   7.552   0.748   5.475
29270WAT     H188052   7.490   0.738   5.553
29270WAT     H288053   7.573   0.845   5.461
29271WAT      O88054   6.517   0.377   5.857
29271WAT     H188055   6.552   0.283   5.860
29271WAT     H288056   6.566   0.429   5.787
29272WAT      O88057   8.934   8.926   7.118
29272WAT     H188058   9.005   8.886   7.060
29272WAT     H288059   8.975   8.958   7.204
29273WAT      O88060   2.656   3.335   4.983
29273WAT     H188061   2.711   3.386   4.918
29273WAT     H288062   2.577   3.295   4.937
29274WAT      O88063   7.769   3.565   9.155
29274WAT     H188064   7.819   3.651   9.148
29274WAT     H288065   7.685   3.580   9.207
29275WAT      O88066   6.218   9.034   3.611
29275WAT     H188067   6.290   9.081   3.560
29275WAT     H288068   6.129   9.060   3.573
29276WAT      O88069   7.658   5.658   9.113
29276WAT     H188070   7.657   5.725   9.039
29276WAT     H288071   7.659   5.566   9.074
29277WAT      O88072   5.771   9.608   8.619
29277WAT     H188073   5.717   9.546   8.562
29277WAT     H288074   5.793   9.562   8.706
29278WAT      O88075   9.592   6.082   5.142
29278WAT     H188076   9.505   6.039   5.119
29278WAT     H288077   9.575   6.165   5.195
29279WAT      O88078   8.944   2.696   6.382
29279WAT     H188079   8.920   2.737   6.471
29279WAT     H288080   9.043   2.688   6.375
29280WAT      O88081   1.383   5.596   8.544
29280WAT     H188082   1.315   5.524   8.531
29280WAT     H288083   1.472   5.554   8.566
29281WAT      O88084   8.527   6.227   1.985
29281WAT     H188085   8.590   6.188   1.919
29281WAT     H288086   8.572   6.236   2.074
29282WAT      O88087   3.227   3.079   7.878
29282WAT     H188088   3.182   3.157   7.834
29282WAT     H288089   3.171   3.047   7.955
29283WAT      O88090   5.956   3.424   8.768
29283WAT     H188091   6.021   3.366   8.720
29283WAT     H288092   5.984   3.520   8.759
29284WAT      O88093   8.471   6.480   0.901
29284WAT     H188094   8.522   6.565   0.891
29284WAT     H288095   8.530   6.403   0.877
29285WAT      O88096   4.291   3.637   9.000
29285WAT     H188097   4.345   3.553   8.999
29285WAT     H288098   4.194   3.615   9.004
29286WAT      O88099   4.804   6.113   0.379
29286WAT     H188100   4.883   6.068   0.339
29286WAT     H288101   4.831   6.161   0.462
29287WAT      O88102   6.234   2.863   2.044
29287WAT     H188103   6.151   2.879   1.991
29287WAT     H288104   6.219   2.786   2.106
29288WAT      O88105   3.890   1.899   6.098
29288WAT     H188106   3.912   1.864   6.190
29288WAT     H288107   3.809   1.958   6.103
29289WAT      O88108   2.245   8.797   4.131
29289WAT     H188109   2.333   8.812   4.175
29289WAT     H288110   2.216   8.881   4.085
29290WAT      O88111   8.669   2.304   6.909
29290WAT     H188112   8.690   2.207   6.918
29290WAT     H288113   8.679   2.332   6.813
29291WAT      O88114   8.774   3.580   7.915
29291WAT     H188115   8.776   3.484   7.946
29291WAT     H288116   8.693   3.625   7.952
29292WAT      O88117   2.622   0.956   8.396
29292WAT     H188118   2.581   0.978   8.307
29292WAT     H288119   2.549   0.941   8.462
29293WAT      O88120   9.575   3.635   9.846
29293WAT     H188121   9.643   3.675   9.784
29293WAT     H288122   9.599   3.656   9.940
29294WAT      O88123   6.143   2.371   7.150
29294WAT     H188124   6.177   2.300   7.088
29294WAT     H288125   6.183   2.459   7.124
29295WAT      O88126   9.465   6.231   6.657
29295WAT     H188127   9.442   6.148   6.707
29295WAT     H288128   9.382   6.286   6.645
29296WAT      O88129   8.792   7.907   2.513
29296WAT     H188130   8.840   7.926   2.427
29296WAT     H288131   8.717   7.971   2.524
29297WAT      O88132   6.856   9.428   2.319
29297WAT     H188133   6.820   9.389   2.235
29297WAT     H288134   6.947   9.466   2.301
29298WAT      O88135   9.265   7.876   4.113
29298WAT     H188136   9.228   7.791   4.151
29298WAT     H288137   9.262   7.872   4.013
29299WAT      O88138   9.883   8.009   5.769
29299WAT     H188139   9.957   8.019   5.834
29299WAT     H288140   9.799   7.982   5.817
29300WAT      O88141   3.791   4.267   4.614
29300WAT     H188142   3.884   4.276   4.578
29300WAT     H288143   3.790   4.294   4.710
29301WAT      O88144   5.636   0.456   1.039
29301WAT     H188145   5.591   0.521   1.100
29301WAT     H288146   5.735   0.474   1.038
29302WAT      O88147   0.182   7.176   3.330
29302WAT     H188148   0.172   7.141   3.423
29302WAT     H288149   0.137   7.115   3.266
29303WAT      O88150   1.497   1.462   6.005
29303WAT     H188151   1.499   1.397   5.929
29303WAT     H288152   1.495   1.411   6.092
29304WAT      O88153   8.994   0.031   9.657
29304WAT     H188154   8.910   0.052   9.608
29304WAT     H288155   9.047   0.114   9.671
29305WAT      O88156   8.858   8.175   3.595
29305WAT     H188157   8.824   8.269   3.608
29305WAT     H288158   8.859   8.128   3.683
29306WAT      O88159   4.695   2.164   8.466
29306WAT     H188160   4.664   2.121   8.382
29306WAT     H288161   4.638   2.243   8.487
29307WAT      O88162   4.337   7.410   1.101
29307WAT     H188163   4.360   7.405   1.198
29307WAT     H288164   4.317   7.504   1.076
29308WAT      O88165   4.148   4.670   9.641
29308WAT     H188166   4.116   4.702   9.730
29308WAT     H288167   4.248   4.665   9.642
29309WAT      O88168   8.800   3.819   3.651
29309WAT     H188169   8.806   3.814   3.751
29309WAT     H288170   8.833   3.908   3.620
29310WAT      O88171   0.183   4.181   3.673
29310WAT     H188172   0.168   4.278   3.658
29310WAT     H288173   0.259   4.168   3.736
29311WAT      O88174   3.823   6.999   4.235
29311WAT     H188175   3.885   6.994   4.313
29311WAT     H288176   3.741   6.945   4.255
29312WAT      O88177   4.834   5.080   0.525
29312WAT     H188178   4.896   5.158   0.516
29312WAT     H288179   4.740   5.112   0.522
29313WAT      O88180   9.338   8.635   8.217
29313WAT     H188181   9.386   8.642   8.304
29313WAT     H288182   9.316   8.539   8.198
29314WAT      O88183   8.112   8.116   2.145
29314WAT     H188184   8.039   8.061   2.105
29314WAT     H288185   8.078   8.163   2.226
29315WAT      O88186   2.919   1.355   3.188
29315WAT     H188187   3.004   1.404   3.168
29315WAT     H288188   2.843   1.399   3.140
29316WAT      O88189   3.318   0.408   7.324
29316WAT     H188190   3.341   0.385   7.418
29316WAT     H288191   3.338   0.330   7.264
29317WAT      O88192   2.124   0.276   1.138
29317WAT     H188193   2.184   0.206   1.099
29317WAT     H288194   2.035   0.271   1.094
29318WAT      O88195   2.259   2.068   4.923
29318WAT     H188196   2.257   2.107   5.015
29318WAT     H288197   2.215   1.978   4.925
29319WAT      O88198   4.675   6.564   0.780
29319WAT     H188199   4.686   6.507   0.861
29319WAT     H288200   4.674   6.506   0.699
29320WAT      O88201   7.102   0.532   1.742
29320WAT     H188202   7.136   0.466   1.808
29320WAT     H288203   7.007   0.512   1.720
29321WAT      O88204   0.935   6.303   1.669
29321WAT     H188205   1.022   6.280   1.712
29321WAT     H288206   0.860   6.260   1.720
29322WAT      O88207   6.460   8.681   2.057
29322WAT     H188208   6.388   8.719   1.999
29322WAT     H288209   6.425   8.601   2.105
29323WAT      O88210   6.090   1.713   8.009
29323WAT     H188211   6.134   1.761   7.934
29323WAT     H288212   6.159   1.661   8.060
29324WAT      O88213   5.428   1.051   0.736
29324WAT     H188214   5.463   1.133   0.689
29324WAT     H288215   5.329   1.060   0.748
29325WAT      O88216   1.119   9.389   2.751
29325WAT     H188217   1.204   9.426   2.715
29325WAT     H288218   1.139   9.310   2.810
29326WAT      O88219   2.646   7.650   8.557
29326WAT     H188220   2.700   7.570   8.582
29326WAT     H288221   2.570   7.622   8.499
29327WAT      O88222   9.097   6.704   3.913
29327WAT     H188223   9.090   6.775   3.843
29327WAT     H288224   9.176   6.722   3.972
29328WAT      O88225   2.754   2.930   8.256
29328WAT     H188226   2.767   2.978   8.170
29328WAT     H288227   2.656   2.917   8.273
29329WAT      O88228   4.565   3.544   4.474
29329WAT     H188229   4.542   3.502   4.386
29329WAT     H288230   4.595   3.638   4.459
29330WAT      O88231   1.520   4.278   3.581
29330WAT     H188232   1.515   4.187   3.540
29330WAT     H288233   1.569   4.340   3.521
29331WAT      O88234   3.412   5.104   3.989
29331WAT     H188235   3.407   5.147   3.899
29331WAT     H288236   3.411   5.175   4.060
29332WAT      O88237   1.337   5.362   1.155
29332WAT     H188238   1.240   5.359   1.178
29332WAT     H288239   1.391   5.320   1.228
29333WAT      O88240   7.751   6.904   9.037
29333WAT     H188241   7.661   6.902   9.082
29333WAT     H288242   7.782   6.810   9.023
29334WAT      O88243   7.496   4.509   2.784
29334WAT     H188244   7.418   4.497   2.844
29334WAT     H288245   7.478   4.465   2.695
29335WAT      O88246   3.875   2.606   5.613
29335WAT     H188247   3.923   2.673   5.557
29335WAT     H288248   3.808   2.652   5.671
29336WAT      O88249   4.192   1.390   4.085
29336WAT     H188250   4.190   1.294   4.113
29336WAT     H288251   4.107   1.435   4.114
29337WAT      O88252   5.032   5.966   4.769
29337WAT     H188253   4.968   5.945   4.695
29337WAT     H288254   5.070   6.057   4.756
29338WAT      O88255   7.659   6.296   3.632
29338WAT     H188256   7.683   6.231   3.560
29338WAT     H288257   7.565   6.328   3.619
29339WAT      O88258   1.787   7.365   0.017
29339WAT     H188259   1.841   7.287  -0.016
29339WAT     H288260   1.826   7.450  -0.018
29340WAT      O88261   8.362   5.843   0.302
29340WAT     H188262   8.383   5.760   0.250
29340WAT     H288263   8.291   5.894   0.253
29341WAT      O88264   4.538   7.966   0.900
29341WAT     H188265   4.585   7.879   0.888
29341WAT     H288266   4.596   8.040   0.867
29342WAT      O88267   9.415   5.388   8.921
29342WAT     H188268   9.491   5.419   8.863
29342WAT     H288269   9.384   5.464   8.978
29343WAT      O88270   1.690   2.477   5.408
29343WAT     H188271   1.682   2.576   5.398
29343WAT     H288272   1.713   2.454   5.502
29344WAT      O88273   9.502   3.374   9.487
29344WAT     H188274   9.588   3.374   9.538
29344WAT     H288275   9.461   3.283   9.491
29345WAT      O88276   6.725   0.276   9.077
29345WAT     H188277   6.639   0.328   9.083
29345WAT     H288278   6.710   0.184   9.114
29346WAT      O88279   0.594   7.577   9.254
29346WAT     H188280   0.621   7.639   9.328
29346WAT     H288281   0.494   7.568   9.253
29347WAT      O88282   2.267   6.328   1.411
29347WAT     H188283   2.263   6.293   1.318
29347WAT     H288284   2.362   6.326   1.443
29348WAT      O88285   5.198   3.842   3.239
29348WAT     H188286   5.124   3.787   3.202
29348WAT     H288287   5.170   3.938   3.243
29349WAT      O88288   1.963   4.692   6.848
29349WAT     H188289   1.868   4.669   6.863
29349WAT     H288290   2.011   4.614   6.808
29350WAT      O88291   3.677   0.845   3.866
29350WAT     H188292   3.635   0.883   3.784
29350WAT     H288293   3.772   0.877   3.873
29351WAT      O88294   9.880   6.612   9.416
29351WAT     H188295   9.806   6.679   9.416
29351WAT     H288296   9.870   6.551   9.494
29352WAT      O88297   6.416   1.690   6.147
29352WAT     H188298   6.417   1.591   6.131
29352WAT     H288299   6.483   1.734   6.087
29353WAT      O88300   7.195   1.037   0.342
29353WAT     H188301   7.191   1.127   0.386
29353WAT     H288302   7.290   1.017   0.317
29354WAT      O88303   6.087   7.320   7.469
29354WAT     H188304   6.021   7.335   7.396
29354WAT     H288305   6.106   7.408   7.515
29355WAT      O88306   3.163   8.127   1.351
29355WAT     H188307   3.147   8.132   1.449
29355WAT     H288308   3.220   8.047   1.330
29356WAT      O88309   6.646   4.423   3.454
29356WAT     H188310   6.699   4.401   3.536
29356WAT     H288311   6.708   4.435   3.377
29357WAT      O88312   8.897   6.726   4.109
29357WAT     H188313   8.974   6.718   4.045
29357WAT     H288314   8.812   6.701   4.063
29358WAT      O88315   7.666   6.268   1.928
29358WAT     H188316   7.616   6.353   1.912
29358WAT     H288317   7.762   6.281   1.904
29359WAT      O88318   7.176   6.072   4.878
29359WAT     H188319   7.245   6.124   4.929
29359WAT     H288320   7.221   6.010   4.814
29360WAT      O88321   5.098   7.120   5.428
29360WAT     H188322   5.130   7.203   5.381
29360WAT     H288323   5.176   7.061   5.448
29361WAT      O88324   2.337   8.082   9.799
29361WAT     H188325   2.427   8.080   9.755
29361WAT     H288326   2.322   8.173   9.838
29362WAT      O88327   5.520   6.253   5.985
29362WAT     H188328   5.543   6.349   6.002
29362WAT     H288329   5.603   6.204   5.960
29363WAT      O88330   0.886   8.826   6.696
29363WAT     H188331   0.879   8.816   6.597
29363WAT     H288332   0.918   8.918   6.718
29364WAT      O88333   2.987   4.305   4.922
29364WAT     H188334   2.996   4.391   4.871
29364WAT     H288335   2.930   4.241   4.871
29365WAT      O88336   0.581   6.018   8.699
29365WAT     H188337   0.614   6.108   8.671
29365WAT     H288338   0.612   5.998   8.792
29366WAT      O88339   2.083   7.046   9.128
29366WAT     H188340   2.136   7.041   9.044
29366WAT     H288341   2.018   7.122   9.122
29367WAT      O88342   4.353   8.577   3.788
29367WAT     H188343   4.392   8.488   3.763
29367WAT     H288344   4.391   8.607   3.875
29368WAT      O88345   4.567   4.714   2.025
29368WAT     H188346   4.526   4.630   2.059
29368WAT     H288347   4.629   4.692   1.949
29369WAT      O88348   6.168   8.365   5.741
29369WAT     H188349   6.113   8.285   5.717
29369WAT     H288350   6.141   8.398   5.831
29370WAT      O88351   1.614   8.748   9.185
29370WAT     H188352   1.680   8.776   9.253
29370WAT     H288353   1.555   8.825   9.162
29371WAT      O88354   0.455   4.951   5.699
29371WAT     H188355   0.432   4.949   5.796
29371WAT     H288356   0.531   5.015   5.685
29372WAT      O88357   5.974   5.194   6.808
29372WAT     H188358   5.981   5.292   6.791
29372WAT     H288359   6.042   5.167   6.876
29373WAT      O88360   8.737   9.581   2.842
29373WAT     H188361   8.677   9.564   2.763
29373WAT     H288362   8.823   9.622   2.810
29374WAT      O88363   4.371   3.101   6.188
29374WAT     H188364   4.411   3.083   6.278
29374WAT     H288365   4.428   3.167   6.139
29375WAT      O88366   8.460   9.275   8.349
29375WAT     H188367   8.504   9.340   8.412
29375WAT     H288368   8.529   9.230   8.294
29376WAT      O88369   7.424   3.860   6.223
29376WAT     H188370   7.406   3.798   6.300
29376WAT     H288371   7.339   3.904   6.195
29377WAT      O88372   9.718   6.843   9.401
29377WAT     H188373   9.679   6.834   9.309
29377WAT     H288374   9.645   6.858   9.467
29378WAT      O88375   3.985   2.216   9.210
29378WAT     H188376   4.079   2.248   9.218
29378WAT     H288377   3.979   2.120   9.237
29379WAT      O88378   6.666   7.240   1.745
29379WAT     H188379   6.636   7.227   1.651
29379WAT     H288380   6.765   7.256   1.746
29380WAT      O88381   8.103   4.324   4.645
29380WAT     H188382   8.125   4.288   4.735
29380WAT     H288383   8.120   4.254   4.576
29381WAT      O88384   1.888   0.221   0.731
29381WAT     H188385   1.844   0.285   0.668
29381WAT     H288386   1.958   0.169   0.682
29382WAT      O88387   9.725   8.916   6.586
29382WAT     H188388   9.749   8.965   6.502
29382WAT     H288389   9.714   8.981   6.661
29383WAT      O88390   3.626   2.519   7.788
29383WAT     H188391   3.577   2.605   7.778
29383WAT     H288392   3.578   2.460   7.853
29384WAT      O88393   9.622   6.259   2.611
29384WAT     H188394   9.659   6.233   2.700
29384WAT     H288395   9.693   6.304   2.557
29385WAT      O88396   6.407   1.251   4.636
29385WAT     H188397   6.428   1.205   4.723
29385WAT     H288398   6.492   1.269   4.587
29386WAT      O88399   3.104   7.956   8.872
29386WAT     H188400   3.204   7.953   8.870
29386WAT     H288401   3.068   7.905   8.794
29387WAT      O88402   5.225   2.029   7.828
29387WAT     H188403   5.272   2.117   7.820
29387WAT     H288404   5.293   1.956   7.824
29388WAT      O88405   1.525   5.427   4.131
29388WAT     H188406   1.543   5.524   4.120
29388WAT     H288407   1.444   5.413   4.187
29389WAT      O88408   4.047   4.269   7.794
29389WAT     H188409   3.998   4.267   7.707
29389WAT     H288410   3.993   4.319   7.862
29390WAT      O88411   0.954   6.198   3.218
29390WAT     H188412   0.878   6.176   3.157
29390WAT     H288413   1.011   6.268   3.176
29391WAT      O88414   5.098   8.600   8.149
29391WAT     H188415   5.002   8.617   8.170
29391WAT     H288416   5.106   8.567   8.055
29392WAT      O88417   0.393   9.453   3.312
29392WAT     H188418   0.364   9.538   3.356
29392WAT     H288419   0.451   9.402   3.376
29393WAT      O88420   7.916   1.943   5.912
29393WAT     H188421   7.869   1.964   5.826
29393WAT     H288422   7.990   1.878   5.894
29394WAT      O88423   6.822   5.000   2.258
29394WAT     H188424   6.797   5.069   2.326
29394WAT     H288425   6.741   4.975   2.204
29395WAT      O88426   2.738   5.890   1.611
29395WAT     H188427   2.740   5.857   1.517
29395WAT     H288428   2.692   5.823   1.669
29396WAT      O88429   2.260   0.606   5.858
29396WAT     H188430   2.264   0.506   5.856
29396WAT     H288431   2.339   0.641   5.908
29397WAT      O88432   8.697   2.831   0.398
29397WAT     H188433   8.634   2.774   0.345
29397WAT     H288434   8.646   2.888   0.462
29398WAT      O88435   6.351   8.746   5.484
29398WAT     H188436   6.382   8.668   5.430
29398WAT     H288437   6.322   8.715   5.575
29399WAT      O88438   7.444   1.386   1.860
29399WAT     H188439   7.403   1.446   1.791
29399WAT     H288440   7.374   1.359   1.926
29400WAT      O88441   8.450   0.237   1.155
29400WAT     H188442   8.469   0.155   1.100
29400WAT     H288443   8.487   0.317   1.110
29401WAT      O88444   7.170   0.046   0.515
29401WAT     H188445   7.228   0.034   0.595
29401WAT     H288446   7.075   0.058   0.545
29402WAT      O88447   1.731   3.887   1.529
29402WAT     H188448   1.736   3.854   1.434
29402WAT     H288449   1.662   3.834   1.578
29403WAT      O88450   4.791   6.051   8.432
29403WAT     H188451   4.741   5.972   8.466
29403WAT     H288452   4.768   6.131   8.487
29404WAT      O88453   5.061   1.879   3.307
29404WAT     H188454   5.112   1.800   3.340
29404WAT     H288455   4.972   1.882   3.352
29405WAT      O88456   1.204   7.482   0.126
29405WAT     H188457   1.297   7.485   0.090
29405WAT     H288458   1.198   7.539   0.208
29406WAT      O88459   1.278   2.120   9.890
29406WAT     H188460   1.324   2.111   9.802
29406WAT     H288461   1.267   2.030   9.932
29407WAT      O88462   6.483   5.151   1.450
29407WAT     H188463   6.398   5.106   1.422
29407WAT     H288464   6.548   5.151   1.374
29408WAT      O88465   7.883   6.573   6.142
29408WAT     H188466   7.943   6.494   6.129
29408WAT     H288467   7.798   6.559   6.090
29409WAT      O88468   1.803   1.993   7.386
29409WAT     H188469   1.709   1.969   7.409
29409WAT     H288470   1.855   2.010   7.470
29410WAT      O88471   8.350   4.867   0.708
29410WAT     H188472   8.383   4.806   0.780
29410WAT     H288473   8.256   4.896   0.729
29411WAT      O88474   7.702   5.233   0.108
29411WAT     H188475   7.729   5.322   0.147
29411WAT     H288476   7.657   5.179   0.178
29412WAT      O88477   9.424   7.658   9.222
29412WAT     H188478   9.410   7.754   9.248
29412WAT     H288479   9.457   7.652   9.128
29413WAT      O88480   8.673   3.506   6.288
29413WAT     H188481   8.609   3.463   6.352
29413WAT     H288482   8.715   3.435   6.231
29414WAT      O88483   0.842   5.384   3.686
29414WAT     H188484   0.836   5.483   3.693
29414WAT     H288485   0.789   5.353   3.607
29415WAT      O88486   3.912   7.265   6.305
29415WAT     H188487   4.005   7.290   6.278
29415WAT     H288488   3.854   7.262   6.223
29416WAT      O88489   9.381   2.386   9.563
29416WAT     H188490   9.316   2.392   9.639
29416WAT     H288491   9.332   2.359   9.480
29417WAT      O88492   4.642   0.344   7.046
29417WAT     H188493   4.546   0.314   7.049
29417WAT     H288494   4.645   0.441   7.022
29418WAT      O88495   9.664   6.418   6.009
29418WAT     H188496   9.754   6.377   6.020
29418WAT     H288497   9.602   6.382   6.078
29419WAT      O88498   6.556   5.105   0.934
29419WAT     H188499   6.464   5.134   0.958
29419WAT     H288500   6.572   5.122   0.837
29420WAT      O88501   4.097   9.178   0.649
29420WAT     H188502   4.168   9.244   0.671
29420WAT     H288503   4.041   9.161   0.731
29421WAT      O88504   9.190   6.424   3.263
29421WAT     H188505   9.137   6.351   3.305
29421WAT     H288506   9.287   6.411   3.284
29422WAT      O88507   6.120   0.307   0.327
29422WAT     H188508   6.091   0.365   0.402
29422WAT     H288509   6.109   0.211   0.353
29423WAT      O88510   2.859   9.415   7.434
29423WAT     H188511   2.803   9.462   7.366
29423WAT     H288512   2.927   9.479   7.472
29424WAT      O88513   4.110   4.011   2.127
29424WAT     H188514   4.174   4.077   2.166
29424WAT     H288515   4.155   3.922   2.119
29425WAT      O88516   3.945   3.175   4.748
29425WAT     H188517   3.996   3.259   4.730
29425WAT     H288518   3.852   3.197   4.776
29426WAT      O88519   5.898   4.293   9.285
29426WAT     H188520   5.963   4.247   9.345
29426WAT     H288521   5.806   4.257   9.301
29427WAT      O88522   9.592   4.922   6.432
29427WAT     H188523   9.663   4.851   6.438
29427WAT     H288524   9.511   4.884   6.387
29428WAT      O88525   7.935   7.741   9.823
29428WAT     H188526   7.945   7.792   9.908
29428WAT     H288527   7.838   7.728   9.803
29429WAT      O88528   0.487   6.019   0.053
29429WAT     H188529   0.397   5.976   0.050
29429WAT     H288530   0.552   5.957   0.096
29430WAT      O88531   3.476   1.160   1.777
29430WAT     H188532   3.465   1.085   1.712
29430WAT     H288533   3.386   1.188   1.811
29431WAT      O88534   2.518   6.970   0.899
29431WAT     H188535   2.582   6.955   0.823
29431WAT     H288536   2.451   7.039   0.872
29432WAT      O88537   7.860   9.277   1.251
29432WAT     H188538   7.920   9.354   1.271
29432WAT     H288539   7.848   9.222   1.333
29433WAT      O88540   1.975   1.046   0.572
29433WAT     H188541   1.979   0.974   0.502
29433WAT     H288542   2.037   1.023   0.647
29434WAT      O88543   9.364   1.651   9.305
29434WAT     H188544   9.414   1.699   9.233
29434WAT     H288545   9.426   1.632   9.381
29435WAT      O88546   4.059   7.413   4.261
29435WAT     H188547   3.960   7.399   4.250
29435WAT     H288548   4.102   7.325   4.282
29436WAT      O88549   2.667   6.061   6.052
29436WAT     H188550   2.587   6.114   6.078
29436WAT     H288551   2.678   5.983   6.114
29437WAT      O88552   7.195   2.396   3.202
29437WAT     H188553   7.169   2.363   3.293
29437WAT     H288554   7.290   2.425   3.203
29438WAT      O88555   0.141   5.536   4.016
29438WAT     H188556   0.177   5.523   4.108
29438WAT     H288557   0.116   5.447   3.977
29439WAT      O88558   5.924   1.042   8.049
29439WAT     H188559   6.014   1.061   8.010
29439WAT     H288560   5.859   1.113   8.020
29440WAT      O88561   9.864   3.185   0.595
29440WAT     H188562   9.871   3.234   0.508
29440WAT     H288563   9.956   3.162   0.627
29441WAT      O88564   3.571   7.262   2.759
29441WAT     H188565   3.550   7.357   2.782
29441WAT     H288566   3.628   7.260   2.677
29442WAT      O88567   1.265   9.779   5.500
29442WAT     H188568   1.285   9.736   5.588
29442WAT     H288569   1.316   9.864   5.492
29443WAT      O88570   1.493   8.530   9.537
29443WAT     H188571   1.571   8.552   9.595
29443WAT     H288572   1.493   8.432   9.517
29444WAT      O88573   4.849   6.025   4.228
29444WAT     H188574   4.787   6.061   4.159
29444WAT     H288575   4.848   6.084   4.308
29445WAT      O88576   8.497   1.536   6.581
29445WAT     H188577   8.558   1.463   6.613
29445WAT     H288578   8.478   1.523   6.483
29446WAT      O88579   6.730   6.585   2.408
29446WAT     H188580   6.710   6.588   2.506
29446WAT     H288581   6.820   6.623   2.391
29447WAT      O88582   2.392   3.915   0.544
29447WAT     H188583   2.435   3.915   0.634
29447WAT     H288584   2.391   3.822   0.508
29448WAT      O88585   7.042   0.266   8.221
29448WAT     H188586   7.000   0.293   8.308
29448WAT     H288587   7.065   0.168   8.225
29449WAT      O88588   7.235   2.000   3.324
29449WAT     H188589   7.298   1.998   3.247
29449WAT     H288590   7.148   1.957   3.297
29450WAT      O88591   7.402   4.424   1.256
29450WAT     H188592   7.399   4.375   1.169
29450WAT     H288593   7.313   4.420   1.301
29451WAT      O88594   4.984   7.223   2.034
29451WAT     H188595   4.925   7.300   2.012
29451WAT     H288596   5.003   7.171   1.950
29452WAT      O88597   5.319   6.294   9.653
29452WAT     H188598   5.343   6.377   9.602
29452WAT     H288599   5.344   6.213   9.599
29453WAT      O88600   2.295   2.820   4.309
29453WAT     H188601   2.234   2.824   4.229
29453WAT     H288602   2.390   2.832   4.279
29454WAT      O88603   2.749   0.490   5.168
29454WAT     H188604   2.649   0.482   5.166
29454WAT     H288605   2.790   0.401   5.146
29455WAT      O88606   7.986   0.544   1.198
29455WAT     H188607   8.051   0.496   1.138
29455WAT     H288608   8.034   0.575   1.280
29456WAT      O88609   3.273   0.081   6.236
29456WAT     H188610   3.239   0.078   6.143
29456WAT     H288611   3.202   0.050   6.299
29457WAT      O88612   9.259   4.885   8.327
29457WAT     H188613   9.175   4.836   8.301
29457WAT     H288614   9.335   4.851   8.271
29458WAT      O88615   5.414   9.097   4.203
29458WAT     H188616   5.370   9.057   4.283
29458WAT     H288617   5.513   9.093   4.214
29459WAT      O88618   5.980   8.896   0.200
29459WAT     H188619   5.903   8.854   0.151
29459WAT     H288620   5.957   8.991   0.222
29460WAT      O88621   4.245   4.788   1.862
29460WAT     H188622   4.268   4.747   1.774
29460WAT     H288623   4.248   4.718   1.933
29461WAT      O88624   5.401   8.940   3.924
29461WAT     H188625   5.477   8.967   3.865
29461WAT     H288626   5.407   8.990   4.011
29462WAT      O88627   6.146   1.794   4.407
29462WAT     H188628   6.108   1.743   4.330
29462WAT     H288629   6.199   1.871   4.373
29463WAT      O88630   8.204   2.051   1.160
29463WAT     H188631   8.144   1.978   1.126
29463WAT     H288632   8.188   2.134   1.107
29464WAT      O88633   8.614   7.230   5.093
29464WAT     H188634   8.657   7.162   5.151
29464WAT     H288635   8.587   7.309   5.148
29465WAT      O88636   1.628   0.992   3.381
29465WAT     H188637   1.636   1.090   3.361
29465WAT     H288638   1.661   0.939   3.302
29466WAT      O88639   1.792   3.671   6.101
29466WAT     H188640   1.795   3.750   6.040
29466WAT     H288641   1.758   3.699   6.191
29467WAT      O88642   4.422   4.712   6.935
29467WAT     H188643   4.497   4.777   6.944
29467WAT     H288644   4.348   4.753   6.882
29468WAT      O88645   9.495   5.476   0.262
29468WAT     H188646   9.502   5.574   0.246
29468WAT     H288647   9.416   5.457   0.320
29469WAT      O88648   0.549   5.899   9.355
29469WAT     H188649   0.567   5.836   9.280
29469WAT     H288650   0.633   5.914   9.407
29470WAT      O88651   8.135   4.051   5.659
29470WAT     H188652   8.125   4.112   5.738
29470WAT     H288653   8.230   4.021   5.651
29471WAT      O88654   3.292   8.652   7.501
29471WAT     H188655   3.367   8.686   7.444
29471WAT     H288656   3.250   8.573   7.458
29472WAT      O88657   6.736   1.474   5.922
29472WAT     H188658   6.811   1.453   5.860
29472WAT     H288659   6.766   1.461   6.016
29473WAT      O88660   3.958   3.582   2.159
29473WAT     H188661   3.927   3.673   2.187
29473WAT     H288662   3.955   3.576   2.059
29474WAT      O88663   5.017   9.440   8.502
29474WAT     H188664   5.083   9.434   8.578
29474WAT     H288665   5.060   9.483   8.423
29475WAT      O88666   3.367   5.217   6.251
29475WAT     H188667   3.401   5.311   6.246
29475WAT     H288668   3.441   5.157   6.278
29476WAT      O88669   6.511   6.948   3.847
29476WAT     H188670   6.438   7.009   3.880
29476WAT     H288671   6.583   6.943   3.916
29477WAT      O88672   7.159   6.916   7.613
29477WAT     H188673   7.118   6.825   7.610
29477WAT     H288674   7.172   6.943   7.709
29478WAT      O88675   2.346   4.862   3.067
29478WAT     H188676   2.269   4.823   3.016
29478WAT     H288677   2.413   4.790   3.086
29479WAT      O88678   0.073   7.938   3.322
29479WAT     H188679   0.088   8.000   3.245
29479WAT     H288680  -0.013   7.962   3.367
29480WAT      O88681   6.445   9.047   2.435
29480WAT     H188682   6.530   9.047   2.487
29480WAT     H288683   6.375   9.097   2.486
29481WAT      O88684   3.477   0.780   2.059
29481WAT     H188685   3.550   0.832   2.014
29481WAT     H288686   3.504   0.684   2.068
29482WAT      O88687   6.017   3.000   9.475
29482WAT     H188688   6.044   3.086   9.431
29482WAT     H288689   5.998   2.931   9.404
29483WAT      O88690   6.981   7.582   8.861
29483WAT     H188691   7.002   7.540   8.773
29483WAT     H288692   7.064   7.623   8.899
29484WAT      O88693   9.078   6.530   7.663
29484WAT     H188694   9.108   6.618   7.700
29484WAT     H288695   9.122   6.456   7.715
29485WAT      O88696   7.680   9.096   7.073
29485WAT     H188697   7.668   9.057   6.982
29485WAT     H288698   7.772   9.135   7.081
29486WAT      O88699   8.624   9.387   5.423
29486WAT     H188700   8.684   9.351   5.494
29486WAT     H288701   8.532   9.400   5.459
29487WAT      O88702   3.937   2.503   1.583
29487WAT     H188703   4.036   2.498   1.596
29487WAT     H288704   3.917   2.551   1.497
29488WAT      O88705   6.198   2.198   6.036
29488WAT     H188706   6.297   2.205   6.043
29488WAT     H288707   6.161   2.155   6.119
29489WAT      O88708   8.574   9.683   2.005
29489WAT     H188709   8.608   9.625   1.930
29489WAT     H288710   8.591   9.637   2.092
29490WAT      O88711   3.175   5.154   6.430
29490WAT     H188712   3.095   5.184   6.379
29490WAT     H288713   3.258   5.174   6.377
29491WAT      O88714   4.768   0.005   4.279
29491WAT     H188715   4.719  -0.014   4.194
29491WAT     H288716   4.717  -0.035   4.356
29492WAT      O88717   7.591   8.920   5.190
29492WAT     H188718   7.578   8.885   5.282
29492WAT     H288719   7.683   8.959   5.182
29493WAT      O88720   1.453   0.782   5.100
29493WAT     H188721   1.492   0.782   5.008
29493WAT     H288722   1.375   0.846   5.102
29494WAT      O88723   4.714   0.148   3.595
29494WAT     H188724   4.705   0.057   3.636
29494WAT     H288725   4.698   0.217   3.666
29495WAT      O88726   1.604   5.258   5.406
29495WAT     H188727   1.661   5.338   5.388
29495WAT     H288728   1.629   5.218   5.494
29496WAT      O88729   6.988   9.321   0.658
29496WAT     H188730   7.023   9.414   0.663
29496WAT     H288731   6.966   9.299   0.563
29497WAT      O88732   7.627   2.678   9.603
29497WAT     H188733   7.541   2.678   9.655
29497WAT     H288734   7.680   2.597   9.627
29498WAT      O88735   6.925   4.768   7.215
29498WAT     H188736   6.851   4.755   7.149
29498WAT     H288737   6.886   4.793   7.304
29499WAT      O88738   6.863   1.772   5.186
29499WAT     H188739   6.806   1.739   5.261
29499WAT     H288740   6.959   1.759   5.208
29500WAT      O88741   1.781   7.034   4.047
29500WAT     H188742   1.856   7.011   3.984
29500WAT     H288743   1.714   6.960   4.048
29501WAT      O88744   1.522   4.623   4.355
29501WAT     H188745   1.530   4.583   4.265
29501WAT     H288746   1.609   4.666   4.381
29502WAT      O88747   7.092   1.590   4.849
29502WAT     H188748   7.168   1.648   4.820
29502WAT     H288749   7.006   1.625   4.811
29503WAT      O88750   6.637   5.923   7.341
29503WAT     H188751   6.629   6.017   7.374
29503WAT     H288752   6.553   5.873   7.362
29504WAT      O88753   3.245   0.783   1.035
29504WAT     H188754   3.162   0.739   1.069
29504WAT     H288755   3.323   0.722   1.046
29505WAT      O88756   0.288   8.559   1.657
29505WAT     H188757   0.303   8.655   1.683
29505WAT     H288758   0.278   8.552   1.558
29506WAT      O88759   0.850   2.333   5.633
29506WAT     H188760   0.914   2.385   5.576
29506WAT     H288761   0.852   2.368   5.726
29507WAT      O88762   4.510   8.587   0.499
29507WAT     H188763   4.446   8.657   0.530
29507WAT     H288764   4.599   8.600   0.543
29508WAT      O88765   4.750   1.519   8.662
29508WAT     H188766   4.663   1.489   8.700
29508WAT     H288767   4.768   1.470   8.577
29509WAT      O88768   3.483   1.168   0.099
29509WAT     H188769   3.421   1.202   0.170
29509WAT     H288770   3.573   1.212   0.110
29510WAT      O88771   1.238   7.358   3.657
29510WAT     H188772   1.154   7.311   3.630
29510WAT     H288773   1.217   7.454   3.675
29511WAT      O88774   4.474   8.894   0.124
29511WAT     H188775   4.486   8.800   0.157
29511WAT     H288776   4.428   8.949   0.194
29512WAT      O88777   5.498   4.005   8.802
29512WAT     H188778   5.504   4.046   8.893
29512WAT     H288779   5.403   4.007   8.771
29513WAT      O88780   7.175   9.105   2.120
29513WAT     H188781   7.111   9.129   2.193
29513WAT     H288782   7.148   9.151   2.036
29514WAT      O88783   3.064   8.857   1.206
29514WAT     H188784   2.977   8.831   1.164
29514WAT     H288785   3.073   8.810   1.295
29515WAT      O88786   8.443   5.042   7.749
29515WAT     H188787   8.375   5.004   7.687
29515WAT     H288788   8.534   5.012   7.720
29516WAT      O88789   0.405   7.910   6.297
29516WAT     H188790   0.487   7.881   6.346
29516WAT     H288791   0.410   8.008   6.278
29517WAT      O88792   5.029   2.583   2.962
29517WAT     H188793   5.110   2.529   2.986
29517WAT     H288794   5.007   2.645   3.037
29518WAT      O88795   1.891   6.728   0.791
29518WAT     H188796   1.932   6.699   0.705
29518WAT     H288797   1.954   6.709   0.866
29519WAT      O88798   9.276   3.353   9.687
29519WAT     H188799   9.346   3.284   9.667
29519WAT     H288800   9.272   3.420   9.613
29520WAT      O88801   3.086   8.843   3.189
29520WAT     H188802   3.020   8.799   3.250
29520WAT     H288803   3.162   8.780   3.171
29521WAT      O88804   2.986   9.418   7.756
29521WAT     H188805   2.998   9.512   7.725
29521WAT     H288806   2.905   9.412   7.815
29522WAT      O88807   5.871   8.617   1.137
29522WAT     H188808   5.819   8.697   1.109
29522WAT     H288809   5.965   8.626   1.104
29523WAT      O88810   8.726   1.500   2.734
29523WAT     H188811   8.655   1.446   2.689
29523WAT     H288812   8.783   1.440   2.791
29524WAT      O88813   0.310   4.870   7.578
29524WAT     H188814   0.290   4.801   7.647
29524WAT     H288815   0.409   4.883   7.571
29525WAT      O88816   9.082   1.707   9.428
29525WAT     H188817   9.153   1.673   9.366
29525WAT     H288818   9.116   1.788   9.475
29526WAT      O88819   8.911   7.174   6.403
29526WAT     H188820   8.960   7.143   6.484
29526WAT     H288821   8.976   7.215   6.339
29527WAT      O88822   0.227   6.625   8.274
29527WAT     H188823   0.174   6.544   8.248
29527WAT     H288824   0.267   6.612   8.364
29528WAT      O88825   9.208   2.280   6.810
29528WAT     H188826   9.288   2.260   6.754
29528WAT     H288827   9.143   2.205   6.804
29529WAT      O88828   3.659   0.791   3.257
29529WAT     H188829   3.624   0.720   3.196
29529WAT     H288830   3.719   0.749   3.325
29530WAT      O88831   4.025   6.297   2.390
29530WAT     H188832   4.052   6.392   2.404
29530WAT     H288833   4.043   6.244   2.472
29531WAT      O88834   1.077   3.456   3.613
29531WAT     H188835   1.117   3.508   3.538
29531WAT     H288836   0.984   3.490   3.631
29532WAT      O88837   2.420   9.584   0.717
29532WAT     H188838   2.342   9.543   0.763
29532WAT     H288839   2.388   9.644   0.643
29533WAT      O88840   1.309   8.068   4.297
29533WAT     H188841   1.409   8.070   4.300
29533WAT     H288842   1.272   8.121   4.373
29534WAT      O88843   9.154   1.795   1.077
29534WAT     H188844   9.094   1.875   1.078
29534WAT     H288845   9.100   1.714   1.056
29535WAT      O88846   0.434   8.035   4.841
29535WAT     H188847   0.365   7.964   4.827
29535WAT     H288848   0.465   8.069   4.752
29536WAT      O88849   8.555   5.814   4.781
29536WAT     H188850   8.526   5.795   4.875
29536WAT     H288851   8.479   5.795   4.719
29537WAT      O88852   2.236   6.530   6.296
29537WAT     H188853   2.301   6.604   6.277
29537WAT     H288854   2.227   6.519   6.395
29538WAT      O88855   2.152   5.683   4.795
29538WAT     H188856   2.187   5.749   4.729
29538WAT     H288857   2.142   5.594   4.751
29539WAT      O88858   6.214   2.375   0.278
29539WAT     H188859   6.144   2.413   0.338
29539WAT     H288860   6.174   2.301   0.223
29540WAT      O88861   4.796   2.303   5.105
29540WAT     H188862   4.734   2.380   5.095
29540WAT     H288863   4.744   2.219   5.122
29541WAT      O88864   2.843   8.253   4.027
29541WAT     H188865   2.915   8.313   4.062
29541WAT     H288866   2.754   8.299   4.038
29542WAT      O88867   5.273   5.786   1.946
29542WAT     H188868   5.309   5.768   2.038
29542WAT     H288869   5.216   5.710   1.917
29543WAT      O88870   8.917   0.293   0.005
29543WAT     H188871   8.829   0.270   0.048
29543WAT     H288872   8.983   0.220   0.022
29544WAT      O88873   5.935   0.383   2.121
29544WAT     H188874   5.959   0.466   2.172
29544WAT     H288875   5.841   0.358   2.140
29545WAT      O88876   0.011   8.796   3.514
29545WAT     H188877   0.024   8.731   3.589
29545WAT     H288878   0.096   8.846   3.498
29546WAT      O88879   2.758   1.830   1.178
29546WAT     H188880   2.788   1.838   1.274
29546WAT     H288881   2.758   1.920   1.136
29547WAT      O88882   1.532   2.564   8.437
29547WAT     H188883   1.561   2.657   8.457
29547WAT     H288884   1.512   2.516   8.522
29548WAT      O88885   2.504   4.282  -0.003
29548WAT     H188886   2.551   4.251   0.079
29548WAT     H288887   2.408   4.302   0.019
29549WAT      O88888   7.981   2.106   3.547
29549WAT     H188889   8.025   2.035   3.492
29549WAT     H288890   7.933   2.170   3.486
29550WAT      O88891   3.004   0.641   9.862
29550WAT     H188892   2.964   0.650   9.771
29550WAT     H288893   3.043   0.549   9.872
29551WAT      O88894   5.692   4.105   0.602
29551WAT     H188895   5.652   4.195   0.585
29551WAT     H288896   5.781   4.116   0.645
29552WAT      O88897   5.736   9.459   7.033
29552WAT     H188898   5.637   9.461   7.020
29552WAT     H288899   5.763   9.528   7.100
29553WAT      O88900   4.345   1.128   7.665
29553WAT     H188901   4.340   1.205   7.601
29553WAT     H288902   4.278   1.059   7.640
29554WAT      O88903   2.713   6.474   4.467
29554WAT     H188904   2.652   6.492   4.544
29554WAT     H288905   2.743   6.560   4.427
29555WAT      O88906   2.003   3.010   2.493
29555WAT     H188907   2.102   3.020   2.496
29555WAT     H288908   1.971   2.971   2.580
29556WAT      O88909   6.204   8.437   8.526
29556WAT     H188910   6.267   8.360   8.518
29556WAT     H288911   6.217   8.500   8.449
29557WAT      O88912   3.496   6.941   7.532
29557WAT     H188913   3.567   6.996   7.488
29557WAT     H288914   3.411   6.948   7.480
29558WAT      O88915   3.777   9.746   3.458
29558WAT     H188916   3.778   9.664   3.515
29558WAT     H288917   3.839   9.815   3.498
29559WAT      O88918   7.847   6.664   9.066
29559WAT     H188919   7.798   6.609   9.133
29559WAT     H288920   7.902   6.604   9.008
29560WAT      O88921   9.116   4.740   0.675
29560WAT     H188922   9.113   4.766   0.772
29560WAT     H288923   9.067   4.808   0.621
29561WAT      O88924   7.493   1.626   9.761
29561WAT     H188925   7.415   1.631   9.823
29561WAT     H288926   7.575   1.658   9.808
29562WAT      O88927   0.147   2.464   8.723
29562WAT     H188928   0.101   2.518   8.793
29562WAT     H288929   0.245   2.483   8.725
29563WAT      O88930   9.663   0.148   5.131
29563WAT     H188931   9.683   0.148   5.229
29563WAT     H288932   9.727   0.088   5.083
29564WAT      O88933   6.261   5.970   1.592
29564WAT     H188934   6.293   5.887   1.547
29564WAT     H288935   6.340   6.025   1.621
29565WAT      O88936   8.669   9.746   0.969
29565WAT     H188937   8.581   9.793   0.972
29565WAT     H288938   8.682   9.693   1.053
29566WAT      O88939   8.154   3.565   0.425
29566WAT     H188940   8.065   3.543   0.465
29566WAT     H288941   8.156   3.662   0.399
29567WAT      O88942   4.198   8.120   7.770
29567WAT     H188943   4.216   8.178   7.691
29567WAT     H288944   4.100   8.119   7.789
29568WAT      O88945   5.651   6.788   1.753
29568WAT     H188946   5.683   6.796   1.658
29568WAT     H288947   5.726   6.756   1.811
29569WAT      O88948   9.676   8.206   0.060
29569WAT     H188949   9.684   8.288   0.003
29569WAT     H288950   9.588   8.207   0.107
29570WAT      O88951   8.444   0.426   2.760
29570WAT     H188952   8.538   0.400   2.781
29570WAT     H288953   8.442   0.518   2.723
29571WAT      O88954   8.022   7.678   6.252
29571WAT     H188955   7.933   7.636   6.268
29571WAT     H288956   8.095   7.612   6.271
29572WAT      O88957   8.530   1.402   9.831
29572WAT     H188958   8.608   1.449   9.791
29572WAT     H288959   8.448   1.459   9.821
29573WAT      O88960   2.932   3.223   2.877
29573WAT     H188961   2.923   3.150   2.808
29573WAT     H288962   2.948   3.181   2.967
29574WAT      O88963   3.415   5.252   3.758
29574WAT     H188964   3.467   5.297   3.686
29574WAT     H288965   3.326   5.298   3.768
29575WAT      O88966   6.031   9.139   5.768
29575WAT     H188967   5.935   9.135   5.741
29575WAT     H288968   6.073   9.222   5.731
29576WAT      O88969   0.154   1.716   5.807
29576WAT     H188970   0.081   1.648   5.812
29576WAT     H288971   0.159   1.766   5.894
29577WAT      O88972   0.743   8.917   7.671
29577WAT     H188973   0.678   8.852   7.710
29577WAT     H288974   0.823   8.924   7.731
29578WAT      O88975   4.803   9.105   1.326
29578WAT     H188976   4.715   9.150   1.317
29578WAT     H288977   4.823   9.090   1.423
29579WAT      O88978   2.273   2.601   5.734
29579WAT     H188979   2.195   2.541   5.755
29579WAT     H288980   2.240   2.694   5.719
29580WAT      O88981   4.941   4.733   3.857
29580WAT     H188982   4.846   4.702   3.852
29580WAT     H288983   5.002   4.654   3.859
29581WAT      O88984   6.448   9.301   2.028
29581WAT     H188985   6.419   9.214   2.068
29581WAT     H288986   6.409   9.311   1.937
29582WAT      O88987   2.997   6.402   2.165
29582WAT     H188988   3.065   6.469   2.193
29582WAT     H288989   2.938   6.441   2.094
29583WAT      O88990   3.831   2.039   0.740
29583WAT     H188991   3.862   1.961   0.795
29583WAT     H288992   3.769   2.095   0.795
29584WAT      O88993   1.011   9.751   8.483
29584WAT     H188994   1.024   9.682   8.554
29584WAT     H288995   1.057   9.722   8.399
29585WAT      O88996   2.945   7.264   5.196
29585WAT     H188997   2.924   7.192   5.130
29585WAT     H288998   2.989   7.224   5.277
29586WAT      O88999   0.423   7.323   8.083
29586WAT     H189000   0.499   7.381   8.053
29586WAT     H289001   0.373   7.289   8.003
29587WAT      O89002   2.357   1.114   6.188
29587WAT     H189003   2.423   1.134   6.116
29587WAT     H289004   2.270   1.087   6.148
29588WAT      O89005   8.916   9.093   8.528
29588WAT     H189006   8.929   9.159   8.454
29588WAT     H289007   8.988   9.023   8.524
29589WAT      O89008   1.985   4.126   3.169
29589WAT     H189009   2.047   4.192   3.127
29589WAT     H289010   1.906   4.111   3.109
29590WAT      O89011   8.263   6.951   3.928
29590WAT     H189012   8.356   6.977   3.952
29590WAT     H289013   8.235   6.998   3.844
29591WAT      O89014   0.496   1.464   1.363
29591WAT     H189015   0.542   1.426   1.444
29591WAT     H289016   0.553   1.535   1.323
29592WAT      O89017   6.657   0.937   8.447
29592WAT     H189018   6.689   0.842   8.443
29592WAT     H289019   6.699   0.989   8.372
29593WAT      O89020   7.989   2.370   5.348
29593WAT     H189021   7.984   2.330   5.439
29593WAT     H289022   7.902   2.415   5.326
29594WAT      O89023   7.034   3.866   8.167
29594WAT     H189024   7.096   3.870   8.089
29594WAT     H289025   6.947   3.825   8.138
29595WAT      O89026   4.647   8.335   4.682
29595WAT     H189027   4.733   8.287   4.661
29595WAT     H289028   4.668   8.421   4.728
29596WAT      O89029   8.495   4.258   9.681
29596WAT     H189030   8.503   4.159   9.670
29596WAT     H289031   8.491   4.301   9.591
29597WAT      O89032   4.139   2.240   3.950
29597WAT     H189033   4.191   2.226   3.866
29597WAT     H289034   4.186   2.308   4.006
29598WAT      O89035   7.118   0.215   2.859
29598WAT     H189036   7.209   0.248   2.883
29598WAT     H289037   7.123   0.118   2.834
29599WAT      O89038   1.740   6.746   4.954
29599WAT     H189039   1.691   6.830   4.978
29599WAT     H289040   1.728   6.726   4.857
29600WAT      O89041   5.115   1.385   0.173
29600WAT     H189042   5.212   1.362   0.174
29600WAT     H289043   5.078   1.379   0.266
29601WAT      O89044   6.754   6.350   0.178
29601WAT     H189045   6.846   6.310   0.187
29601WAT     H289046   6.745   6.393   0.089
29602WAT      O89047   5.511   0.191   3.788
29602WAT     H189048   5.497   0.188   3.689
29602WAT     H289049   5.462   0.116   3.831
29603WAT      O89050   0.984   9.377   7.424
29603WAT     H189051   0.919   9.320   7.474
29603WAT     H289052   0.952   9.472   7.426
29604WAT      O89053   4.315   6.583   6.693
29604WAT     H189054   4.333   6.492   6.730
29604WAT     H289055   4.348   6.588   6.598
29605WAT      O89056   8.989   5.303   4.475
29605WAT     H189057   8.955   5.209   4.470
29605WAT     H289058   9.026   5.331   4.386
29606WAT      O89059   1.197   6.430   9.371
29606WAT     H189060   1.130   6.383   9.428
29606WAT     H289061   1.271   6.366   9.348
29607WAT      O89062   4.390   5.459   8.224
29607WAT     H189063   4.433   5.485   8.310
29607WAT     H289064   4.295   5.490   8.224
29608WAT      O89065   7.751   3.940   7.985
29608WAT     H189066   7.766   3.983   8.074
29608WAT     H289067   7.657   3.958   7.955
29609WAT      O89068   9.126   2.273   4.109
29609WAT     H189069   9.093   2.300   4.199
29609WAT     H289070   9.077   2.192   4.077
29610WAT      O89071   1.579   9.554   9.490
29610WAT     H189072   1.510   9.541   9.418
29610WAT     H289073   1.640   9.629   9.463
29611WAT      O89074   8.038   7.082   7.422
29611WAT     H189075   8.101   7.007   7.443
29611WAT     H289076   8.090   7.167   7.414
29612WAT      O89077   2.190   9.550   9.583
29612WAT     H189078   2.140   9.499   9.512
29612WAT     H289079   2.126   9.611   9.630
29613WAT      O89080   5.810   8.924   0.552
29613WAT     H189081   5.724   8.962   0.518
29613WAT     H289082   5.794   8.831   0.587
29614WAT      O89083   5.431   9.096   9.467
29614WAT     H189084   5.489   9.014   9.471
29614WAT     H289085   5.336   9.070   9.489
29615WAT      O89086   8.629   1.531   8.878
29615WAT     H189087   8.534   1.536   8.846
29615WAT     H289088   8.634   1.567   8.971
29616WAT      O89089   4.425   9.798   9.137
29616WAT     H189090   4.397   9.734   9.065
29616WAT     H289091   4.432   9.890   9.099
29617WAT      O89092   1.733   9.155   0.890
29617WAT     H189093   1.742   9.252   0.871
29617WAT     H289094   1.816   9.107   0.862
29618WAT      O89095   1.350   8.964   1.379
29618WAT     H189096   1.304   9.006   1.300
29618WAT     H289097   1.434   8.919   1.348
29619WAT      O89098   5.712   7.061   4.864
29619WAT     H189099   5.652   7.021   4.795
29619WAT     H289100   5.685   7.156   4.881
29620WAT      O89101   7.445   8.131   6.100
29620WAT     H189102   7.450   8.229   6.116
29620WAT     H289103   7.536   8.091   6.100
29621WAT      O89104   7.944   2.764   4.365
29621WAT     H189105   7.920   2.806   4.452
29621WAT     H289106   7.989   2.832   4.306
29622WAT      O89107   3.481   9.598   4.084
29622WAT     H189108   3.453   9.579   4.178
29622WAT     H289109   3.485   9.512   4.033
29623WAT      O89110   4.491   6.724   5.953
29623WAT     H189111   4.500   6.645   6.014
29623WAT     H289112   4.398   6.730   5.919
29624WAT      O89113   8.665   0.390   2.145
29624WAT     H189114   8.750   0.387   2.093
29624WAT     H289115   8.650   0.482   2.181
29625WAT      O89116   9.327   6.946   7.010
29625WAT     H189117   9.368   6.855   7.011
29625WAT     H289118   9.228   6.939   6.995
29626WAT      O89119   5.524   5.886   5.941
29626WAT     H189120   5.559   5.813   5.881
29626WAT     H289121   5.430   5.907   5.917
29627WAT      O89122   2.465   3.214   9.532
29627WAT     H189123   2.371   3.249   9.538
29627WAT     H289124   2.465   3.116   9.555
29628WAT      O89125   4.530   0.512   9.785
29628WAT     H189126   4.498   0.423   9.754
29628WAT     H289127   4.608   0.541   9.729
29629WAT      O89128   1.147   6.895   9.083
29629WAT     H189129   1.141   6.856   9.174
29629WAT     H289130   1.114   6.990   9.085
29630WAT      O89131   7.195   3.252   3.534
29630WAT     H189132   7.269   3.208   3.584
29630WAT     H289133   7.107   3.213   3.563
29631WAT      O89134   7.527   9.778   3.332
29631WAT     H189135   7.485   9.702   3.380
29631WAT     H289136   7.615   9.800   3.374
29632WAT      O89137   7.436   3.264   9.483
29632WAT     H189138   7.489   3.199   9.537
29632WAT     H289139   7.446   3.243   9.386
29633WAT      O89140   1.717   8.165   0.954
29633WAT     H189141   1.750   8.258   0.973
29633WAT     H289142   1.795   8.104   0.939
29634WAT      O89143   7.146   0.273   2.419
29634WAT     H189144   7.121   0.334   2.495
29634WAT     H289145   7.207   0.322   2.357
29635WAT      O89146   3.038   4.815   3.351
29635WAT     H189147   3.007   4.743   3.414
29635WAT     H289148   3.128   4.848   3.380
29636WAT      O89149   3.278   9.347   0.665
29636WAT     H189150   3.344   9.301   0.724
29636WAT     H289151   3.305   9.443   0.653
29637WAT      O89152   6.100   1.918   0.259
29637WAT     H189153   6.104   1.864   0.343
29637WAT     H289154   6.047   1.867   0.190
29638WAT      O89155   7.609   5.960   1.432
29638WAT     H189156   7.538   5.922   1.491
29638WAT     H289157   7.582   6.051   1.402
29639WAT      O89158   7.546   3.759   2.981
29639WAT     H189159   7.465   3.720   3.025
29639WAT     H289160   7.536   3.754   2.882
29640WAT      O89161   9.634   2.291   4.598
29640WAT     H189162   9.559   2.284   4.663
29640WAT     H289163   9.670   2.384   4.599
29641WAT      O89164   7.236   9.806   6.169
29641WAT     H189165   7.140   9.830   6.185
29641WAT     H289166   7.265   9.842   6.081
29642WAT      O89167   9.243   0.497   7.568
29642WAT     H189168   9.153   0.499   7.612
29642WAT     H289169   9.311   0.540   7.628
29643WAT      O89170   7.747   4.947   2.301
29643WAT     H189171   7.694   4.868   2.333
29643WAT     H289172   7.815   4.971   2.370
29644WAT      O89173   4.887   1.406   1.085
29644WAT     H189174   4.958   1.375   1.149
29644WAT     H289175   4.881   1.506   1.088
29645WAT      O89176   2.608   9.029   4.499
29645WAT     H189177   2.664   8.963   4.449
29645WAT     H289178   2.632   9.027   4.596
29646WAT      O89179   7.337   6.915   8.259
29646WAT     H189180   7.409   6.890   8.194
29646WAT     H289181   7.293   7.000   8.229
29647WAT      O89182   1.151   5.726   1.203
29647WAT     H189183   1.090   5.783   1.258
29647WAT     H289184   1.105   5.701   1.118
29648WAT      O89185   2.457   0.024   9.351
29648WAT     H189186   2.363   0.005   9.381
29648WAT     H289187   2.485  -0.046   9.286
29649WAT      O89188   3.963   8.436   6.969
29649WAT     H189189   3.871   8.396   6.961
29649WAT     H289190   4.001   8.450   6.878
29650WAT      O89191   8.027   8.394   4.611
29650WAT     H189192   8.037   8.387   4.710
29650WAT     H289193   7.995   8.486   4.588
29651WAT      O89194   6.232   5.096   6.356
29651WAT     H189195   6.190   5.040   6.285
29651WAT     H289196   6.171   5.100   6.435
29652WAT      O89197   2.117   4.465   9.707
29652WAT     H189198   2.130   4.418   9.620
29652WAT     H289199   2.032   4.519   9.704
29653WAT      O89200   7.383   9.758   1.976
29653WAT     H189201   7.460   9.725   2.030
29653WAT     H289202   7.390   9.723   1.883
29654WAT      O89203   2.666   4.448   3.387
29654WAT     H189204   2.716   4.514   3.443
29654WAT     H289205   2.729   4.379   3.353
29655WAT      O89206   2.780   8.595   1.369
29655WAT     H189207   2.790   8.656   1.448
29655WAT     H289208   2.691   8.551   1.372
29656WAT      O89209   2.393   2.892   1.853
29656WAT     H189210   2.324   2.849   1.795
29656WAT     H289211   2.432   2.823   1.915
29657WAT      O89212   6.296   4.865   1.037
29657WAT     H189213   6.302   4.964   1.026
29657WAT     H289214   6.222   4.843   1.101
29658WAT      O89215   9.592   2.843   9.193
29658WAT     H189216   9.522   2.792   9.143
29658WAT     H289217   9.636   2.908   9.131
29659WAT      O89218   6.150   0.610   3.399
29659WAT     H189219   6.108   0.575   3.483
29659WAT     H289220   6.086   0.670   3.352
29660WAT      O89221   6.387   9.575   5.343
29660WAT     H189222   6.447   9.516   5.291
29660WAT     H289223   6.300   9.528   5.361
29661WAT      O89224   7.840   2.199   1.483
29661WAT     H189225   7.874   2.285   1.445
29661WAT     H289226   7.823   2.210   1.581
29662WAT      O89227   3.029   7.150   6.443
29662WAT     H189228   2.961   7.187   6.380
29662WAT     H289229   3.120   7.180   6.417
29663WAT      O89230   0.550   4.321   0.375
29663WAT     H189231   0.457   4.290   0.355
29663WAT     H289232   0.572   4.400   0.319
29664WAT      O89233   1.134   4.887   4.215
29664WAT     H189234   1.134   4.939   4.129
29664WAT     H289235   1.139   4.789   4.195
29665WAT      O89236   8.399   9.458   4.883
29665WAT     H189237   8.384   9.384   4.948
29665WAT     H289238   8.434   9.538   4.931
29666WAT      O89239   6.895   3.913   1.752
29666WAT     H189240   6.799   3.932   1.771
29666WAT     H289241   6.943   3.999   1.732
29667WAT      O89242   3.907   2.362   3.025
29667WAT     H189243   3.874   2.376   3.119
29667WAT     H289244   3.861   2.283   2.985
29668WAT      O89245   8.820   8.985   6.563
29668WAT     H189246   8.862   9.076   6.565
29668WAT     H289247   8.893   8.916   6.557
29669WAT      O89248   7.075   0.012   5.521
29669WAT     H189249   6.997  -0.028   5.570
29669WAT     H289250   7.148   0.034   5.586
29670WAT      O89251   8.434   0.923   9.253
29670WAT     H189252   8.474   0.947   9.165
29670WAT     H289253   8.334   0.926   9.246
29671WAT      O89254   8.652   6.597   7.750
29671WAT     H189255   8.700   6.661   7.690
29671WAT     H289256   8.632   6.641   7.837
29672WAT      O89257   8.334   4.541   0.477
29672WAT     H189258   8.415   4.506   0.526
29672WAT     H289259   8.307   4.629   0.517
29673WAT      O89260   4.888   9.154   5.332
29673WAT     H189261   4.917   9.136   5.238
29673WAT     H289262   4.906   9.073   5.388
29674WAT      O89263   7.239   6.627   8.788
29674WAT     H189264   7.154   6.633   8.735
29674WAT     H289265   7.313   6.674   8.738
29675WAT      O89266   7.915   1.197   0.528
29675WAT     H189267   7.962   1.262   0.588
29675WAT     H289268   7.890   1.116   0.580
29676WAT      O89269   1.001   3.195   4.244
29676WAT     H189270   1.078   3.132   4.234
29676WAT     H289271   0.999   3.230   4.338
29677WAT      O89272   0.721   3.921   6.722
29677WAT     H189273   0.729   3.927   6.821
29677WAT     H289274   0.810   3.936   6.680
29678WAT      O89275   1.791   2.461   8.636
29678WAT     H189276   1.764   2.367   8.655
29678WAT     H289277   1.867   2.462   8.570
29679WAT      O89278   2.822   4.918   7.034
29679WAT     H189279   2.796   4.828   6.998
29679WAT     H289280   2.740   4.972   7.052
29680WAT      O89281   6.233   0.432   7.793
29680WAT     H189282   6.278   0.471   7.713
29680WAT     H289283   6.260   0.482   7.875
29681WAT      O89284   6.540   7.518   8.841
29681WAT     H189285   6.618   7.578   8.858
29681WAT     H289286   6.565   7.448   8.774
29682WAT      O89287   2.832   4.049   0.609
29682WAT     H189288   2.891   4.128   0.593
29682WAT     H289289   2.748   4.058   0.556
29683WAT      O89290   6.772   0.529   5.692
29683WAT     H189291   6.868   0.504   5.674
29683WAT     H289292   6.769   0.604   5.758
29684WAT      O89293   0.332   7.428   7.236
29684WAT     H189294   0.410   7.378   7.200
29684WAT     H289295   0.310   7.504   7.175
29685WAT      O89296   2.200   7.177   9.337
29685WAT     H189297   2.193   7.132   9.248
29685WAT     H289298   2.279   7.141   9.386
29686WAT      O89299   4.479   7.106   6.388
29686WAT     H189300   4.462   7.057   6.303
29686WAT     H289301   4.548   7.177   6.373
29687WAT      O89302   9.698   5.647   3.213
29687WAT     H189303   9.722   5.556   3.246
29687WAT     H289304   9.670   5.642   3.118
29688WAT      O89305   4.629   6.888   2.257
29688WAT     H189306   4.644   6.845   2.168
29688WAT     H289307   4.555   6.955   2.249
29689WAT      O89308   7.674   6.881   7.173
29689WAT     H189309   7.701   6.969   7.214
29689WAT     H289310   7.692   6.884   7.075
29690WAT      O89311   8.865   6.946   1.588
29690WAT     H189312   8.909   6.911   1.670
29690WAT     H289313   8.884   6.885   1.511
29691WAT      O89314   3.551   0.632   3.490
29691WAT     H189315   3.495   0.585   3.421
29691WAT     H289316   3.642   0.590   3.493
29692WAT      O89317   3.241   3.937   9.130
29692WAT     H189318   3.194   3.988   9.203
29692WAT     H289319   3.204   3.845   9.125
29693WAT      O89320   5.667   5.564   3.139
29693WAT     H189321   5.644   5.651   3.096
29693WAT     H289322   5.600   5.543   3.210
29694WAT      O89323   9.489   9.410   4.033
29694WAT     H189324   9.484   9.480   4.105
29694WAT     H289325   9.549   9.336   4.064
29695WAT      O89326   0.832   8.158   3.464
29695WAT     H189327   0.830   8.065   3.499
29695WAT     H289328   0.787   8.162   3.374
29696WAT      O89329   5.076   5.018   7.858
29696WAT     H189330   5.154   5.073   7.886
29696WAT     H289331   5.105   4.950   7.790
29697WAT      O89332   5.542   3.581   0.406
29697WAT     H189333   5.590   3.549   0.488
29697WAT     H289334   5.605   3.577   0.328
29698WAT      O89335   9.566   2.708   1.149
29698WAT     H189336   9.604   2.801   1.149
29698WAT     H289337   9.471   2.711   1.117
29699WAT      O89338   0.517   1.124   8.996
29699WAT     H189339   0.600   1.116   9.051
29699WAT     H289340   0.541   1.155   8.904
29700WAT      O89341   2.552   7.936   7.324
29700WAT     H189342   2.568   8.000   7.400
29700WAT     H289343   2.608   7.962   7.246
29701WAT      O89344   6.847   9.410   2.886
29701WAT     H189345   6.840   9.510   2.879
29701WAT     H289346   6.897   9.375   2.806
29702WAT      O89347   1.445   7.645   2.266
29702WAT     H189348   1.406   7.588   2.193
29702WAT     H289349   1.426   7.741   2.247
29703WAT      O89350   3.709   8.491   7.251
29703WAT     H189351   3.741   8.402   7.283
29703WAT     H289352   3.617   8.482   7.214
29704WAT      O89353   8.376   4.456   8.306
29704WAT     H189354   8.471   4.479   8.285
29704WAT     H289355   8.344   4.512   8.383
29705WAT      O89356   4.766   4.645   7.095
29705WAT     H189357   4.733   4.734   7.065
29705WAT     H289358   4.808   4.654   7.186
29706WAT      O89359   6.536   8.150   4.317
29706WAT     H189360   6.580   8.212   4.382
29706WAT     H289361   6.589   8.065   4.312
29707WAT      O89362   0.464   3.370   7.544
29707WAT     H189363   0.462   3.281   7.498
29707WAT     H289364   0.386   3.425   7.513
29708WAT      O89365   8.005   0.147   0.167
29708WAT     H189366   7.945   0.226   0.161
29708WAT     H289367   8.008   0.100   0.079
29709WAT      O89368   9.743   9.536   3.568
29709WAT     H189369   9.722   9.479   3.648
29709WAT     H289370   9.661   9.584   3.538
29710WAT      O89371   5.343   7.283   8.108
29710WAT     H189372   5.302   7.348   8.173
29710WAT     H289373   5.374   7.202   8.157
29711WAT      O89374   0.965   0.060   1.644
29711WAT     H189375   1.009  -0.014   1.592
29711WAT     H289376   0.958   0.034   1.740
29712WAT      O89377   8.305   7.589   1.868
29712WAT     H189378   8.391   7.595   1.817
29712WAT     H289379   8.235   7.643   1.822
29713WAT      O89380   3.264   6.443   8.403
29713WAT     H189381   3.231   6.399   8.486
29713WAT     H289382   3.351   6.488   8.421
29714WAT      O89383   6.560   8.461   5.846
29714WAT     H189384   6.659   8.471   5.852
29714WAT     H289385   6.534   8.436   5.753
29715WAT      O89386   6.252   3.442   2.082
29715WAT     H189387   6.315   3.520   2.080
29715WAT     H289388   6.200   3.444   2.167
29716WAT      O89389   6.807   9.036   4.432
29716WAT     H189390   6.902   9.034   4.399
29716WAT     H289391   6.798   8.975   4.511
29717WAT      O89392   2.240   2.800   8.420
29717WAT     H189393   2.239   2.770   8.324
29717WAT     H289394   2.158   2.853   8.439
29718WAT      O89395   1.407   4.831   4.083
29718WAT     H189396   1.395   4.734   4.061
29718WAT     H289397   1.325   4.865   4.130
29719WAT      O89398   3.632   8.294   8.041
29719WAT     H189399   3.561   8.353   8.002
29719WAT     H289400   3.717   8.346   8.050
29720WAT      O89401   0.559   0.939   9.383
29720WAT     H189402   0.474   0.992   9.383
29720WAT     H289403   0.593   0.930   9.476
29721WAT      O89404   3.361   5.985   4.498
29721WAT     H189405   3.272   5.944   4.517
29721WAT     H289406   3.350   6.058   4.430
29722WAT      O89407   1.818   2.088   4.918
29722WAT     H189408   1.895   2.152   4.923
29722WAT     H289409   1.789   2.081   4.822
29723WAT      O89410   3.340   3.261   5.137
29723WAT     H189411   3.390   3.347   5.131
29723WAT     H289412   3.371   3.210   5.217
29724WAT      O89413   7.827   6.125   2.836
29724WAT     H189414   7.856   6.201   2.778
29724WAT     H289415   7.861   6.138   2.929
29725WAT      O89416   4.851   9.778   3.140
29725WAT     H189417   4.811   9.841   3.074
29725WAT     H289418   4.782   9.714   3.173
29726WAT      O89419   7.599   3.561   9.787
29726WAT     H189420   7.513   3.511   9.796
29726WAT     H289421   7.674   3.497   9.770
29727WAT      O89422   4.259   8.352   6.340
29727WAT     H189423   4.260   8.446   6.372
29727WAT     H289424   4.336   8.337   6.278
29728WAT      O89425   3.740   0.147   6.971
29728WAT     H189426   3.805   0.132   6.897
29728WAT     H289427   3.757   0.235   7.014
29729WAT      O89428   9.616   9.627   5.136
29729WAT     H189429   9.578   9.544   5.176
29729WAT     H289430   9.674   9.603   5.058
29730WAT      O89431   8.934   7.553   8.056
29730WAT     H189432   8.985   7.639   8.054
29730WAT     H289433   8.841   7.568   8.024
29731WAT      O89434   3.013   3.117   6.445
29731WAT     H189435   3.045   3.132   6.351
29731WAT     H289436   3.048   3.191   6.503
29732WAT      O89437   4.542   4.982   0.930
29732WAT     H189438   4.595   5.016   1.008
29732WAT     H289439   4.604   4.957   0.856
29733WAT      O89440   7.009   2.259   5.037
29733WAT     H189441   7.105   2.244   5.057
29733WAT     H289442   6.958   2.174   5.050
29734WAT      O89443   3.483   9.468   1.641
29734WAT     H189444   3.485   9.368   1.653
29734WAT     H289445   3.574   9.499   1.614
29735WAT      O89446   2.882   1.780   5.896
29735WAT     H189447   2.819   1.804   5.822
29735WAT     H289448   2.908   1.684   5.889
29736WAT      O89449   6.815   3.753   5.162
29736WAT     H189450   6.751   3.698   5.107
29736WAT     H289451   6.873   3.692   5.216
29737WAT      O89452   2.212   8.364   5.577
29737WAT     H189453   2.288   8.412   5.535
29737WAT     H289454   2.130   8.374   5.519
29738WAT      O89455   4.448   2.625   5.515
29738WAT     H189456   4.393   2.569   5.454
29738WAT     H289457   4.469   2.574   5.598
29739WAT      O89458   1.034   6.059   5.830
29739WAT     H189459   1.100   6.042   5.758
29739WAT     H289460   1.022   6.157   5.842
29740WAT      O89461   4.599   8.451   4.172
29740WAT     H189462   4.686   8.493   4.195
29740WAT     H289463   4.544   8.515   4.118
29741WAT      O89464   7.901   2.061   8.624
29741WAT     H189465   7.912   1.970   8.663
29741WAT     H289466   7.939   2.063   8.532
29742WAT      O89467   2.036   2.175   0.129
29742WAT     H189468   2.018   2.264   0.171
29742WAT     H289469   2.134   2.154   0.137
29743WAT      O89470   8.212   4.479   2.147
29743WAT     H189471   8.190   4.435   2.060
29743WAT     H289472   8.295   4.439   2.185
29744WAT      O89473   3.713   2.306   2.305
29744WAT     H189474   3.719   2.218   2.352
29744WAT     H289475   3.624   2.312   2.258
29745WAT      O89476   4.728   6.113   3.999
29745WAT     H189477   4.629   6.117   4.015
29745WAT     H289478   4.748   6.044   3.930
29746WAT      O89479   4.821   0.601   4.125
29746WAT     H189480   4.723   0.609   4.108
29746WAT     H289481   4.839   0.521   4.182
29747WAT      O89482   5.541   5.194   4.404
29747WAT     H189483   5.507   5.154   4.319
29747WAT     H289484   5.467   5.200   4.470
29748WAT      O89485   3.847   3.557   8.598
29748WAT     H189486   3.813   3.463   8.599
29748WAT     H289487   3.911   3.568   8.522
29749WAT      O89488   1.355   5.288   9.628
29749WAT     H189489   1.279   5.282   9.693
29749WAT     H289490   1.431   5.338   9.670
29750WAT      O89491   4.919   5.644   2.279
29750WAT     H189492   4.874   5.559   2.251
29750WAT     H289493   4.883   5.719   2.225
29751WAT      O89494   3.139   3.412   6.459
29751WAT     H189495   3.085   3.496   6.452
29751WAT     H289496   3.165   3.397   6.555
29752WAT      O89497   0.744   8.784   2.950
29752WAT     H189498   0.652   8.824   2.943
29752WAT     H289499   0.808   8.853   2.983
29753WAT      O89500   4.852   2.697   9.293
29753WAT     H189501   4.808   2.758   9.358
29753WAT     H289502   4.948   2.684   9.318
29754WAT      O89503   6.387   5.846   8.785
29754WAT     H189504   6.346   5.771   8.837
29754WAT     H289505   6.318   5.916   8.768
29755WAT      O89506   2.963   6.445   3.353
29755WAT     H189507   3.049   6.394   3.359
29755WAT     H289508   2.945   6.489   3.441
29756WAT      O89509   7.673   5.538   1.514
29756WAT     H189510   7.686   5.604   1.588
29756WAT     H289511   7.615   5.463   1.545
29757WAT      O89512   4.267   6.681   2.208
29757WAT     H189513   4.359   6.641   2.202
29757WAT     H289514   4.215   6.631   2.278
29758WAT      O89515   8.740   9.398   9.316
29758WAT     H189516   8.802   9.393   9.238
29758WAT     H289517   8.707   9.491   9.327
29759WAT      O89518   4.876   5.683   1.822
29759WAT     H189519   4.969   5.655   1.843
29759WAT     H289520   4.833   5.720   1.904
29760WAT      O89521   7.998   8.724   5.837
29760WAT     H189522   7.942   8.718   5.919
29760WAT     H289523   8.081   8.670   5.848
29761WAT      O89524   4.460   9.531   4.608
29761WAT     H189525   4.403   9.510   4.529
29761WAT     H289526   4.465   9.451   4.668
29762WAT      O89527   5.140   9.719   0.910
29762WAT     H189528   5.208   9.707   0.982
29762WAT     H289529   5.176   9.782   0.841
29763WAT      O89530   4.200   7.783   7.154
29763WAT     H189531   4.262   7.832   7.214
29763WAT     H289532   4.140   7.848   7.108
29764WAT      O89533   9.842   4.663   3.147
29764WAT     H189534   9.794   4.616   3.073
29764WAT     H289535   9.813   4.624   3.235
29765WAT      O89536   0.301   1.848   5.622
29765WAT     H189537   0.257   1.787   5.688
29765WAT     H289538   0.295   1.809   5.530
29766WAT      O89539   3.773   2.680   8.694
29766WAT     H189540   3.848   2.635   8.741
29766WAT     H289541   3.690   2.624   8.700
29767WAT      O89542   6.609   8.731   3.606
29767WAT     H189543   6.511   8.751   3.605
29767WAT     H289544   6.646   8.743   3.514
29768WAT      O89545   1.643   1.413   2.350
29768WAT     H189546   1.644   1.385   2.446
29768WAT     H289547   1.736   1.430   2.319
29769WAT      O89548   2.803   0.020   8.387
29769WAT     H189549   2.720   0.057   8.429
29769WAT     H289550   2.816  -0.075   8.416
29770WAT      O89551   2.992   9.748   9.269
29770WAT     H189552   3.062   9.679   9.290
29770WAT     H289553   2.910   9.730   9.323
29771WAT      O89554   0.465   3.536   0.783
29771WAT     H189555   0.454   3.516   0.880
29771WAT     H289556   0.556   3.505   0.753
29772WAT      O89557   0.478   3.064   5.461
29772WAT     H189558   0.400   3.096   5.406
29772WAT     H289559   0.495   3.130   5.534
29773WAT      O89560   4.353   9.067   8.571
29773WAT     H189561   4.381   8.973   8.551
29773WAT     H289562   4.348   9.080   8.670
29774WAT      O89563   4.284   7.516   3.781
29774WAT     H189564   4.205   7.532   3.840
29774WAT     H289565   4.259   7.534   3.685
29775WAT      O89566   7.164   6.128   8.793
29775WAT     H189567   7.252   6.147   8.836
29775WAT     H289568   7.145   6.196   8.722
29776WAT      O89569   2.540   2.486   1.231
29776WAT     H189570   2.530   2.553   1.158
29776WAT     H289571   2.585   2.529   1.310
29777WAT      O89572   0.501   1.084   1.352
29777WAT     H189573   0.596   1.104   1.375
29777WAT     H289574   0.468   1.150   1.284
29778WAT      O89575   1.780   8.400   5.077
29778WAT     H189576   1.857   8.385   5.016
29778WAT     H289577   1.718   8.321   5.074
29779WAT      O89578   4.322   4.275   8.839
29779WAT     H189579   4.334   4.348   8.771
29779WAT     H289580   4.407   4.222   8.845
29780WAT      O89581   8.419   6.058   0.716
29780WAT     H189582   8.332   6.051   0.667
29780WAT     H289583   8.472   5.974   0.701
29781WAT      O89584   8.149   8.700   8.306
29781WAT     H189585   8.194   8.786   8.283
29781WAT     H289586   8.053   8.703   8.276
29782WAT      O89587   2.744   4.400   9.719
29782WAT     H189588   2.695   4.315   9.742
29782WAT     H289589   2.736   4.417   9.621
29783WAT      O89590   5.413   4.544   2.715
29783WAT     H189591   5.460   4.456   2.715
29783WAT     H289592   5.324   4.533   2.759
29784WAT      O89593   0.111   5.183   8.607
29784WAT     H189594   0.136   5.278   8.591
29784WAT     H289595   0.013   5.171   8.598
29785WAT      O89596   7.425   3.107   3.733
29785WAT     H189597   7.351   3.094   3.798
29785WAT     H289598   7.486   3.179   3.766
29786WAT      O89599   7.113   2.521   8.971
29786WAT     H189600   7.199   2.525   8.920
29786WAT     H289601   7.036   2.528   8.908
29787WAT      O89602   8.664   0.279   2.761
29787WAT     H189603   8.682   0.218   2.684
29787WAT     H289604   8.728   0.258   2.835
29788WAT      O89605   8.638   8.864   9.326
29788WAT     H189606   8.697   8.882   9.247
29788WAT     H289607   8.656   8.933   9.397
29789WAT      O89608   7.818   1.288   5.129
29789WAT     H189609   7.876   1.344   5.069
29789WAT     H289610   7.871   1.210   5.163
29790WAT      O89611   7.508   4.314   4.108
29790WAT     H189612   7.462   4.396   4.075
29790WAT     H289613   7.492   4.305   4.206
29791WAT      O89614   3.216   5.736   8.012
29791WAT     H189615   3.237   5.677   7.934
29791WAT     H289616   3.295   5.742   8.072
29792WAT      O89617   7.104   4.372   3.134
29792WAT     H189618   7.025   4.354   3.076
29792WAT     H289619   7.084   4.342   3.228
29793WAT      O89620   9.656   4.476   7.248
29793WAT     H189621   9.643   4.527   7.333
29793WAT     H289622   9.585   4.406   7.240
29794WAT      O89623   5.359   5.144   3.387
29794WAT     H189624   5.397   5.139   3.295
29794WAT     H289625   5.402   5.074   3.444
29795WAT      O89626   7.999   0.287   8.690
29795WAT     H189627   8.019   0.253   8.783
29795WAT     H289628   8.069   0.354   8.664
29796WAT      O89629   7.496   3.973   8.705
29796WAT     H189630   7.481   3.972   8.804
29796WAT     H289631   7.504   3.879   8.671
29797WAT      O89632   0.095   1.307   8.102
29797WAT     H189633   0.186   1.265   8.099
29797WAT     H289634   0.089   1.378   8.031
29798WAT      O89635   0.079   2.119   9.451
29798WAT     H189636   0.042   2.039   9.404
29798WAT     H289637   0.036   2.129   9.540
29799WAT      O89638   8.529   6.424   3.437
29799WAT     H189639   8.434   6.424   3.409
29799WAT     H289640   8.555   6.334   3.471
29800WAT      O89641   3.300   6.220   2.636
29800WAT     H189642   3.375   6.206   2.572
29800WAT     H289643   3.253   6.134   2.653
29801WAT      O89644   1.117   7.629   3.636
29801WAT     H189645   1.114   7.701   3.705
29801WAT     H289646   1.025   7.611   3.601
29802WAT      O89647   4.294   2.246   1.432
29802WAT     H189648   4.387   2.209   1.441
29802WAT     H289649   4.294   2.320   1.364
29803WAT      O89650   1.686   2.793   7.565
29803WAT     H189651   1.688   2.701   7.525
29803WAT     H289652   1.706   2.788   7.663
29804WAT      O89653   5.234   2.264   1.836
29804WAT     H189654   5.150   2.258   1.891
29804WAT     H289655   5.210   2.279   1.740
29805WAT      O89656   3.034   4.505   8.480
29805WAT     H189657   3.013   4.602   8.489
29805WAT     H289658   2.985   4.467   8.401
29806WAT      O89659   8.953   0.203   5.013
29806WAT     H189660   9.015   0.267   4.968
29806WAT     H289661   8.891   0.253   5.073
29807WAT      O89662   0.316   3.986   3.447
29807WAT     H189663   0.254   4.026   3.515
29807WAT     H289664   0.408   3.979   3.485
29808WAT      O89665   6.331   5.042   5.217
29808WAT     H189666   6.271   4.968   5.246
29808WAT     H289667   6.426   5.019   5.241
29809WAT      O89668   1.989   3.146   3.794
29809WAT     H189669   1.962   3.236   3.759
29809WAT     H289670   2.028   3.092   3.720
29810WAT      O89671   7.292   5.837   0.625
29810WAT     H189672   7.332   5.750   0.655
29810WAT     H289673   7.267   5.829   0.529
29811WAT      O89674   6.354   6.436   9.319
29811WAT     H189675   6.435   6.492   9.304
29811WAT     H289676   6.339   6.377   9.239
29812WAT      O89677   3.515   6.816   9.810
29812WAT     H189678   3.554   6.785   9.723
29812WAT     H289679   3.487   6.911   9.803
29813WAT      O89680   6.833   1.283   2.587
29813WAT     H189681   6.892   1.203   2.578
29813WAT     H289682   6.795   1.308   2.498
29814WAT      O89683   7.268   0.176   9.280
29814WAT     H189684   7.293   0.165   9.184
29814WAT     H289685   7.321   0.250   9.320
29815WAT      O89686   3.790   6.345   0.738
29815WAT     H189687   3.770   6.399   0.820
29815WAT     H289688   3.781   6.248   0.759
29816WAT      O89689   8.948   3.449   9.755
29816WAT     H189690   9.018   3.497   9.808
29816WAT     H289691   8.940   3.491   9.665
29817WAT      O89692   3.800   1.700   5.425
29817WAT     H189693   3.702   1.691   5.407
29817WAT     H289694   3.832   1.619   5.474
29818WAT      O89695   1.977   0.604   7.166
29818WAT     H189696   1.966   0.632   7.070
29818WAT     H289697   2.061   0.645   7.203
29819WAT      O89698   6.434   1.801   9.665
29819WAT     H189699   6.394   1.776   9.576
29819WAT     H289700   6.423   1.724   9.728
29820WAT      O89701   6.268   9.500   2.428
29820WAT     H189702   6.365   9.509   2.408
29820WAT     H289703   6.221   9.460   2.349
29821WAT      O89704   7.418   3.321   1.284
29821WAT     H189705   7.494   3.356   1.338
29821WAT     H289706   7.332   3.350   1.326
29822WAT      O89707   2.257   8.641   7.617
29822WAT     H189708   2.250   8.583   7.536
29822WAT     H289709   2.200   8.604   7.690
29823WAT      O89710   7.436   3.127   6.993
29823WAT     H189711   7.399   3.058   7.055
29823WAT     H289712   7.476   3.202   7.046
29824WAT      O89713   1.894   7.608   9.780
29824WAT     H189714   1.874   7.703   9.803
29824WAT     H289715   1.881   7.593   9.682
29825WAT      O89716   8.920   4.778   6.354
29825WAT     H189717   8.911   4.744   6.260
29825WAT     H289718   8.920   4.878   6.353
29826WAT      O89719   7.518   3.879   9.100
29826WAT     H189720   7.587   3.925   9.044
29826WAT     H289721   7.435   3.864   9.046
29827WAT      O89722   4.610   0.517   4.785
29827WAT     H189723   4.552   0.585   4.830
29827WAT     H289724   4.646   0.453   4.853
29828WAT      O89725   4.833   9.127   1.618
29828WAT     H189726   4.800   9.097   1.707
29828WAT     H289727   4.856   9.224   1.622
29829WAT      O89728   8.167   3.206   7.256
29829WAT     H189729   8.104   3.152   7.201
29829WAT     H289730   8.116   3.266   7.318
29830WAT      O89731   6.086   8.536   8.120
29830WAT     H189732   5.997   8.569   8.149
29830WAT     H289733   6.090   8.437   8.130
29831WAT      O89734   6.504   7.746   4.530
29831WAT     H189735   6.457   7.804   4.596
29831WAT     H289736   6.601   7.740   4.554
29832WAT      O89737   2.169   6.582   5.289
29832WAT     H189738   2.121   6.586   5.376
29832WAT     H289739   2.119   6.634   5.221
29833WAT      O89740   2.370   3.270   9.844
29833WAT     H189741   2.445   3.312   9.895
29833WAT     H289742   2.373   3.171   9.857
29834WAT      O89743   3.220   8.674   0.029
29834WAT     H189744   3.269   8.625  -0.043
29834WAT     H289745   3.135   8.625   0.051
29835WAT      O89746   9.223   6.099   4.897
29835WAT     H189747   9.305   6.073   4.845
29835WAT     H289748   9.143   6.059   4.852
29836WAT      O89749   2.002   0.081   7.157
29836WAT     H189750   2.071   0.027   7.109
29836WAT     H289751   1.916   0.030   7.158
29837WAT      O89752   7.942   6.755   4.069
29837WAT     H189753   7.984   6.842   4.092
29837WAT     H289754   7.845   6.768   4.051
29838WAT      O89755   3.672   3.986   6.988
29838WAT     H189756   3.729   3.955   7.064
29838WAT     H289757   3.600   4.046   7.022
29839WAT      O89758   9.558   6.495   0.651
29839WAT     H189759   9.640   6.495   0.594
29839WAT     H289760   9.561   6.572   0.715
29840WAT      O89761   0.623   6.108   9.029
29840WAT     H189762   0.529   6.099   8.998
29840WAT     H289763   0.657   6.020   9.060
29841WAT      O89764   3.954   0.462   8.148
29841WAT     H189765   3.995   0.392   8.205
29841WAT     H289766   3.912   0.532   8.206
29842WAT      O89767   2.757   6.804   1.951
29842WAT     H189768   2.665   6.828   1.919
29842WAT     H289769   2.762   6.818   2.050
29843WAT      O89770   1.997   0.363   0.427
29843WAT     H189771   1.951   0.417   0.497
29843WAT     H289772   2.085   0.406   0.405
29844WAT      O89773   4.976   8.931   6.278
29844WAT     H189774   4.900   8.986   6.243
29844WAT     H289775   4.964   8.836   6.250
29845WAT      O89776   9.202   8.372   1.919
29845WAT     H189777   9.212   8.301   1.849
29845WAT     H289778   9.276   8.438   1.910
29846WAT      O89779   4.183   1.071   7.975
29846WAT     H189780   4.233   0.985   7.968
29846WAT     H289781   4.140   1.078   8.065
29847WAT      O89782   0.394   3.732   3.991
29847WAT     H189783   0.382   3.633   3.992
29847WAT     H289784   0.330   3.774   4.054
29848WAT      O89785   9.102   6.446   7.236
29848WAT     H189786   9.154   6.405   7.161
29848WAT     H289787   9.165   6.493   7.298
29849WAT      O89788   9.872   2.902   4.328
29849WAT     H189789   9.814   2.880   4.406
29849WAT     H289790   9.958   2.851   4.335
29850WAT      O89791   4.022   8.385   0.701
29850WAT     H189792   4.018   8.285   0.709
29850WAT     H289793   3.946   8.417   0.645
29851WAT      O89794   8.060   6.994   4.101
29851WAT     H189795   8.078   6.948   4.188
29851WAT     H289796   8.133   6.973   4.036
29852WAT      O89797   0.312   5.203   4.855
29852WAT     H189798   0.377   5.127   4.866
29852WAT     H289799   0.220   5.166   4.842
29853WAT      O89800   5.109   8.424   8.374
29853WAT     H189801   5.163   8.465   8.448
29853WAT     H289802   5.117   8.480   8.292
29854WAT      O89803   7.648   2.182   1.143
29854WAT     H189804   7.746   2.202   1.136
29854WAT     H289805   7.607   2.184   1.052
29855WAT      O89806   9.210   1.929   4.153
29855WAT     H189807   9.280   1.863   4.127
29855WAT     H289808   9.167   1.966   4.071
29856WAT      O89809   7.408   4.168   4.775
29856WAT     H189810   7.347   4.125   4.708
29856WAT     H289811   7.484   4.213   4.727
29857WAT      O89812   2.917   9.505   9.828
29857WAT     H189813   2.916   9.564   9.746
29857WAT     H289814   3.002   9.452   9.829
29858WAT      O89815   6.351   2.916   7.882
29858WAT     H189816   6.347   2.967   7.796
29858WAT     H289817   6.359   2.818   7.863
29859WAT      O89818   1.581   4.228   7.467
29859WAT     H189819   1.545   4.172   7.393
29859WAT     H289820   1.658   4.181   7.510
29860WAT      O89821   1.892   6.661   6.018
29860WAT     H189822   1.930   6.574   6.052
29860WAT     H289823   1.794   6.650   6.001
29861WAT      O89824   6.703   7.975   6.280
29861WAT     H189825   6.663   7.896   6.327
29861WAT     H289826   6.765   8.022   6.343
29862WAT      O89827   1.952   2.682   4.710
29862WAT     H189828   1.971   2.703   4.615
29862WAT     H289829   1.942   2.767   4.762
29863WAT      O89830   7.794   2.064   5.693
29863WAT     H189831   7.761   2.138   5.751
29863WAT     H289832   7.741   2.063   5.608
29864WAT      O89833   9.764   9.041   4.194
29864WAT     H189834   9.791   9.035   4.290
29864WAT     H289835   9.818   9.112   4.149
29865WAT      O89836   8.718   4.384   7.979
29865WAT     H189837   8.803   4.430   7.955
29865WAT     H289838   8.644   4.418   7.922
29866WAT      O89839   5.737   8.088   3.739
29866WAT     H189840   5.651   8.043   3.765
29866WAT     H289841   5.814   8.035   3.772
29867WAT      O89842   8.085   2.728   4.897
29867WAT     H189843   8.052   2.751   4.988
29867WAT     H289844   8.124   2.636   4.898
29868WAT      O89845   0.454   1.793   2.001
29868WAT     H189846   0.443   1.695   2.020
29868WAT     H289847   0.549   1.811   1.975
29869WAT      O89848   8.017   2.032   0.121
29869WAT     H189849   7.966   2.067   0.200
29869WAT     H289850   8.053   1.942   0.141
29870WAT      O89851   6.693   7.719   5.653
29870WAT     H189852   6.751   7.797   5.632
29870WAT     H289853   6.662   7.676   5.568
29871WAT      O89854   5.036   8.877   0.539
29871WAT     H189855   5.096   8.800   0.513
29871WAT     H289856   4.987   8.853   0.623
29872WAT      O89857   6.001   6.542   6.896
29872WAT     H189858   5.926   6.495   6.850
29872WAT     H289859   6.013   6.504   6.988
29873WAT      O89860   1.285   8.673   1.569
29873WAT     H189861   1.307   8.769   1.549
29873WAT     H289862   1.283   8.621   1.483
29874WAT      O89863   3.805   5.442   5.403
29874WAT     H189864   3.810   5.431   5.304
29874WAT     H289865   3.873   5.383   5.447
29875WAT      O89866   6.271   2.049   7.963
29875WAT     H189867   6.202   2.099   8.015
29875WAT     H289868   6.315   1.982   8.023
29876WAT      O89869   2.038   5.987   6.562
29876WAT     H189870   1.988   6.057   6.511
29876WAT     H289871   2.049   6.016   6.657
29877WAT      O89872   4.921   8.761   9.743
29877WAT     H189873   4.872   8.696   9.801
29877WAT     H289874   5.004   8.718   9.708
29878WAT      O89875   5.878   9.166   5.341
29878WAT     H189876   5.974   9.160   5.312
29878WAT     H289877   5.828   9.086   5.307
29879WAT      O89878   8.311   4.153   2.667
29879WAT     H189879   8.250   4.083   2.705
29879WAT     H289880   8.260   4.238   2.653
29880WAT      O89881   6.850   1.564   8.268
29880WAT     H189882   6.835   1.531   8.174
29880WAT     H289883   6.925   1.513   8.309
29881WAT      O89884   1.403   9.647   1.063
29881WAT     H189885   1.360   9.581   1.124
29881WAT     H289886   1.457   9.712   1.117
29882WAT      O89887   5.016   1.465   8.101
29882WAT     H189888   5.006   1.440   8.198
29882WAT     H289889   4.985   1.560   8.088
29883WAT      O89890   9.442   4.508   5.041
29883WAT     H189891   9.516   4.472   5.098
29883WAT     H289892   9.480   4.556   4.963
29884WAT      O89893   2.815   0.320   7.831
29884WAT     H189894   2.738   0.319   7.767
29884WAT     H289895   2.781   0.307   7.924
29885WAT      O89896   3.025   0.345   7.379
29885WAT     H189897   2.977   0.283   7.441
29885WAT     H289898   3.117   0.363   7.414
29886WAT      O89899   0.420   0.339   2.234
29886WAT     H189900   0.438   0.419   2.177
29886WAT     H289901   0.454   0.355   2.327
29887WAT      O89902   4.351   6.601   1.084
29887WAT     H189903   4.320   6.527   1.144
29887WAT     H289904   4.366   6.565   0.992
29888WAT      O89905   1.140   1.909   7.496
29888WAT     H189906   1.085   1.839   7.450
29888WAT     H289907   1.096   1.935   7.582
29889WAT      O89908   8.279   1.882   6.170
29889WAT     H189909   8.265   1.981   6.176
29889WAT     H289910   8.191   1.835   6.179
29890WAT      O89911   5.617   2.497   1.416
29890WAT     H189912   5.543   2.494   1.484
29890WAT     H289913   5.681   2.569   1.440
29891WAT      O89914   6.693   8.654   1.742
29891WAT     H189915   6.614   8.612   1.788
29891WAT     H289916   6.661   8.711   1.667
29892WAT      O89917   2.211   6.423   3.112
29892WAT     H189918   2.161   6.464   3.188
29892WAT     H289919   2.148   6.370   3.056
29893WAT      O89920   1.754   0.235   3.543
29893WAT     H189921   1.677   0.171   3.548
29893WAT     H289922   1.722   0.324   3.512
29894WAT      O89923   5.386   9.393   1.965
29894WAT     H189924   5.372   9.296   1.946
29894WAT     H289925   5.385   9.444   1.879
29895WAT      O89926   5.625   3.255   3.068
29895WAT     H189927   5.627   3.261   2.968
29895WAT     H289928   5.719   3.247   3.103
29896WAT      O89929   8.531   3.102   7.954
29896WAT     H189930   8.529   3.197   7.923
29896WAT     H289931   8.492   3.043   7.884
29897WAT      O89932   1.669   6.947   8.555
29897WAT     H189933   1.761   6.976   8.580
29897WAT     H289934   1.666   6.847   8.553
29898WAT      O89935   6.448   5.024   9.184
29898WAT     H189936   6.524   5.059   9.239
29898WAT     H289937   6.428   5.088   9.109
29899WAT      O89938   1.953   2.019   2.194
29899WAT     H189939   1.916   2.077   2.267
29899WAT     H289940   2.037   2.060   2.158
29900WAT      O89941   8.351   3.015   0.393
29900WAT     H189942   8.398   3.055   0.315
29900WAT     H289943   8.301   3.086   0.443
29901WAT      O89944   5.191   5.743   7.468
29901WAT     H189945   5.104   5.697   7.489
29901WAT     H289946   5.176   5.842   7.465
29902WAT      O89947   3.060   7.291   7.111
29902WAT     H189948   2.995   7.362   7.083
29902WAT     H289949   3.025   7.202   7.084
29903WAT      O89950   2.208   5.170   5.850
29903WAT     H189951   2.258   5.109   5.911
29903WAT     H289952   2.256   5.176   5.763
29904WAT      O89953   1.841   8.841   4.156
29904WAT     H189954   1.817   8.797   4.242
29904WAT     H289955   1.912   8.788   4.110
29905WAT      O89956   9.346   0.948   5.594
29905WAT     H189957   9.374   0.960   5.499
29905WAT     H289958   9.327   0.852   5.612
29906WAT      O89959   3.471   9.459   7.244
29906WAT     H189960   3.401   9.390   7.259
29906WAT     H289961   3.471   9.488   7.148
29907WAT      O89962   2.351   2.700   4.955
29907WAT     H189963   2.330   2.798   4.947
29907WAT     H289964   2.269   2.647   4.932
29908WAT      O89965   1.823   1.009   6.612
29908WAT     H189966   1.835   1.025   6.710
29908WAT     H289967   1.829   1.096   6.563
29909WAT      O89968   8.017   5.545   7.434
29909WAT     H189969   8.103   5.571   7.479
29909WAT     H289970   7.942   5.547   7.500
29910WAT      O89971   0.305   3.681   8.320
29910WAT     H189972   0.262   3.749   8.379
29910WAT     H289973   0.301   3.711   8.225
29911WAT      O89974   0.760   2.916   8.779
29911WAT     H189975   0.763   3.016   8.781
29911WAT     H289976   0.807   2.880   8.859
29912WAT      O89977   8.217   9.527   3.848
29912WAT     H189978   8.211   9.477   3.934
29912WAT     H289979   8.131   9.573   3.830
29913WAT      O89980   3.447   7.922   3.423
29913WAT     H189981   3.449   8.018   3.397
29913WAT     H289982   3.528   7.876   3.388
29914WAT      O89983   7.740   4.441   6.505
29914WAT     H189984   7.770   4.399   6.419
29914WAT     H289985   7.645   4.469   6.498
29915WAT      O89986   5.706   7.857   4.737
29915WAT     H189987   5.716   7.895   4.645
29915WAT     H289988   5.705   7.757   4.731
29916WAT      O89989   0.168   7.551   5.387
29916WAT     H189990   0.221   7.506   5.460
29916WAT     H289991   0.157   7.648   5.409
29917WAT      O89992   4.878   5.340   1.221
29917WAT     H189993   4.929   5.349   1.306
29917WAT     H289994   4.782   5.363   1.236
29918WAT      O89995   6.975   5.300   1.858
29918WAT     H189996   7.055   5.246   1.830
29918WAT     H289997   6.926   5.331   1.777
29919WAT      O89998   1.520   6.940   2.335
29919WAT     H189999   1.423   6.918   2.344
29919WAT     H290000   1.536   6.977   2.243
29920WAT      O90001   4.315   9.009   2.125
29920WAT     H190002   4.381   8.957   2.071
29920WAT     H290003   4.253   8.946   2.172
29921WAT      O90004   4.168   0.308   5.419
29921WAT     H190005   4.095   0.357   5.372
29921WAT     H290006   4.175   0.215   5.382
29922WAT      O90007   6.844   5.509   2.675
29922WAT     H190008   6.751   5.474   2.663
29922WAT     H290009   6.893   5.505   2.587
29923WAT      O90010   2.489   5.035   4.455
29923WAT     H190011   2.586   5.015   4.448
29923WAT     H290012   2.461   5.032   4.551
29924WAT      O90013   8.256   1.021   8.982
29924WAT     H190014   8.353   1.035   9.001
29924WAT     H290015   8.210   0.988   9.064
29925WAT      O90016   6.517   2.254   3.168
29925WAT     H190017   6.578   2.323   3.129
29925WAT     H290018   6.430   2.256   3.120
29926WAT      O90019   8.011   8.214   7.294
29926WAT     H190020   7.924   8.203   7.245
29926WAT     H290021   8.085   8.228   7.229
29927WAT      O90022   8.690   1.100   1.935
29927WAT     H190023   8.607   1.142   1.900
29927WAT     H290024   8.752   1.172   1.968
29928WAT      O90025   6.888   6.583   5.669
29928WAT     H190026   6.823   6.651   5.638
29928WAT     H290027   6.841   6.496   5.686
29929WAT      O90028   3.951   2.647   8.243
29929WAT     H190029   3.970   2.552   8.218
29929WAT     H290030   3.926   2.699   8.162
29930WAT      O90031   9.602   5.990   5.442
29930WAT     H190032   9.694   6.026   5.455
29930WAT     H290033   9.536   6.065   5.443
29931WAT      O90034   2.375   2.241   6.042
29931WAT     H190035   2.472   2.266   6.035
29931WAT     H290036   2.366   2.142   6.045
29932WAT      O90037   0.092   6.003   7.328
29932WAT     H190038   0.154   6.061   7.381
29932WAT     H290039   0.138   5.974   7.244
29933WAT      O90040   0.533   8.837   2.372
29933WAT     H190041   0.586   8.759   2.339
29933WAT     H290042   0.594   8.901   2.419
29934WAT      O90043   6.609   2.144   0.086
29934WAT     H190044   6.520   2.121   0.047
29934WAT     H290045   6.597   2.198   0.169
29935WAT      O90046   4.009   4.120   3.878
29935WAT     H190047   4.024   4.176   3.959
29935WAT     H290048   4.089   4.062   3.862
29936WAT      O90049   2.854   6.700   9.537
29936WAT     H190050   2.795   6.720   9.460
29936WAT     H290051   2.946   6.735   9.519
29937WAT      O90052   8.046   5.582   9.008
29937WAT     H190053   8.018   5.585   9.103
29937WAT     H290054   8.020   5.668   8.962
29938WAT      O90055   5.060   0.951   0.302
29938WAT     H190056   5.137   0.906   0.256
29938WAT     H290057   5.094   1.031   0.352
29939WAT      O90058   5.558   0.684   9.544
29939WAT     H190059   5.633   0.624   9.574
29939WAT     H290060   5.506   0.713   9.624
29940WAT      O90061   5.695   1.562   2.459
29940WAT     H190062   5.772   1.542   2.519
29940WAT     H290063   5.669   1.478   2.411
29941WAT      O90064   4.390   1.717   3.946
29941WAT     H190065   4.378   1.750   3.852
29941WAT     H290066   4.303   1.727   3.995
29942WAT      O90067   6.184   5.085   0.289
29942WAT     H190068   6.242   5.125   0.217
29942WAT     H290069   6.089   5.087   0.260
29943WAT      O90070   0.143   8.812   3.897
29943WAT     H190071   0.057   8.864   3.898
29943WAT     H290072   0.200   8.842   3.974
29944WAT      O90073   4.577   7.147   7.421
29944WAT     H190074   4.587   7.170   7.518
29944WAT     H290075   4.589   7.049   7.409
29945WAT      O90076   6.614   5.088   8.206
29945WAT     H190077   6.697   5.033   8.198
29945WAT     H290078   6.554   5.068   8.129
29946WAT      O90079   3.279   9.731   3.962
29946WAT     H190080   3.320   9.737   3.871
29946WAT     H290081   3.343   9.688   4.025
29947WAT      O90082   6.588   6.725   0.524
29947WAT     H190083   6.605   6.690   0.616
29947WAT     H290084   6.675   6.748   0.480
29948WAT      O90085   5.917   1.653   9.369
29948WAT     H190086   5.940   1.677   9.464
29948WAT     H290087   5.913   1.554   9.360
29949WAT      O90088   8.903   6.226   9.412
29949WAT     H190089   8.939   6.315   9.381
29949WAT     H290090   8.858   6.237   9.500
29950WAT      O90091   2.973   9.840   5.160
29950WAT     H190092   3.070   9.818   5.167
29950WAT     H290093   2.937   9.809   5.072
29951WAT      O90094   7.029   3.333   5.028
29951WAT     H190095   7.096   3.393   4.983
29951WAT     H290096   6.942   3.339   4.979
29952WAT      O90097   3.894   4.016   9.287
29952WAT     H190098   3.817   4.073   9.316
29952WAT     H290099   3.859   3.935   9.240
29953WAT      O90100   1.716   8.143   0.314
29953WAT     H190101   1.702   8.117   0.218
29953WAT     H290102   1.779   8.079   0.357
29954WAT      O90103   1.557   0.780   6.219
29954WAT     H190104   1.600   0.775   6.129
29954WAT     H290105   1.497   0.700   6.231
29955WAT      O90106   8.567   8.052   9.074
29955WAT     H190107   8.531   7.982   9.012
29955WAT     H290108   8.655   8.086   9.038
29956WAT      O90109   6.029   3.842   5.064
29956WAT     H190110   6.119   3.839   5.106
29956WAT     H290111   5.967   3.780   5.113
29957WAT      O90112   8.846   2.546   6.001
29957WAT     H190113   8.806   2.614   6.063
29957WAT     H290114   8.886   2.472   6.055
29958WAT      O90115   0.623   4.351   4.780
29958WAT     H190116   0.688   4.426   4.775
29958WAT     H290117   0.533   4.382   4.747
29959WAT      O90118   7.655   2.149   2.794
29959WAT     H190119   7.723   2.089   2.837
29959WAT     H290120   7.585   2.093   2.750
29960WAT      O90121   2.543   9.462   4.660
29960WAT     H190122   2.604   9.383   4.664
29960WAT     H290123   2.562   9.523   4.738
29961WAT      O90124   6.085   6.950   0.818
29961WAT     H190125   6.167   6.939   0.762
29961WAT     H290126   6.107   7.008   0.897
29962WAT      O90127   4.145   4.759   1.478
29962WAT     H190128   4.164   4.817   1.398
29962WAT     H290129   4.052   4.776   1.511
29963WAT      O90130   4.880   3.132   5.412
29963WAT     H190131   4.898   3.034   5.407
29963WAT     H290132   4.784   3.150   5.389
29964WAT      O90133   0.993   2.577   1.052
29964WAT     H190134   0.908   2.528   1.071
29964WAT     H290135   1.070   2.514   1.059
29965WAT      O90136   2.960   1.998   0.502
29965WAT     H190137   2.911   1.913   0.484
29965WAT     H290138   3.043   1.977   0.554
29966WAT      O90139   1.322   0.592   6.886
29966WAT     H190140   1.383   0.514   6.870
29966WAT     H290141   1.331   0.656   6.810
29967WAT      O90142   1.372   6.044   9.766
29967WAT     H190143   1.310   5.968   9.746
29967WAT     H290144   1.319   6.121   9.802
29968WAT      O90145   6.678   2.033   8.898
29968WAT     H190146   6.665   1.949   8.952
29968WAT     H290147   6.713   2.105   8.957
29969WAT      O90148   6.981   5.693   6.421
29969WAT     H190149   6.892   5.692   6.466
29969WAT     H290150   6.993   5.609   6.369
29970WAT      O90151   5.593   6.952   0.394
29970WAT     H190152   5.571   7.046   0.422
29970WAT     H290153   5.688   6.932   0.418
29971WAT      O90154   0.848   6.759   2.220
29971WAT     H190155   0.852   6.847   2.173
29971WAT     H290156   0.932   6.746   2.274
29972WAT      O90157   7.467   7.355   9.825
29972WAT     H190158   7.414   7.430   9.787
29972WAT     H290159   7.420   7.268   9.807
29973WAT      O90160   2.967   0.805   7.645
29973WAT     H190161   2.983   0.706   7.649
29973WAT     H290162   2.983   0.845   7.735
29974WAT      O90163   2.462   8.336   8.557
29974WAT     H190164   2.535   8.365   8.495
29974WAT     H290165   2.478   8.242   8.586
29975WAT      O90166   1.179   9.590   0.267
29975WAT     H190167   1.241   9.585   0.345
29975WAT     H290168   1.189   9.679   0.222
29976WAT      O90169   5.920   6.273   6.845
29976WAT     H190170   5.968   6.278   6.758
29976WAT     H290171   5.847   6.342   6.847
29977WAT      O90172   7.592   6.029   4.740
29977WAT     H190173   7.494   6.015   4.731
29977WAT     H290174   7.620   6.109   4.687
29978WAT      O90175   2.415   3.755   8.030
29978WAT     H190176   2.439   3.851   8.016
29978WAT     H290177   2.320   3.748   8.060
29979WAT      O90178   6.873   3.491   1.247
29979WAT     H190179   6.795   3.551   1.227
29979WAT     H290180   6.855   3.440   1.331
29980WAT      O90181   5.781   6.886   5.060
29980WAT     H190182   5.880   6.877   5.055
29980WAT     H290183   5.752   6.967   5.009
29981WAT      O90184   2.857   7.417   4.243
29981WAT     H190185   2.887   7.377   4.329
29981WAT     H290186   2.882   7.356   4.167
29982WAT      O90187   5.597   2.124   4.877
29982WAT     H190188   5.638   2.044   4.833
29982WAT     H290189   5.602   2.112   4.977
29983WAT      O90190   0.219   5.655   6.478
29983WAT     H190191   0.211   5.557   6.499
29983WAT     H290192   0.281   5.698   6.544
29984WAT      O90193   8.066   5.365   5.393
29984WAT     H190194   7.985   5.372   5.335
29984WAT     H290195   8.117   5.282   5.371
29985WAT      O90196   1.121   8.243   8.839
29985WAT     H190197   1.101   8.238   8.936
29985WAT     H290198   1.220   8.241   8.824
29986WAT      O90199   7.496   5.193   8.554
29986WAT     H190200   7.424   5.190   8.623
29986WAT     H290201   7.581   5.226   8.595
29987WAT      O90202   3.270   5.004   1.494
29987WAT     H190203   3.328   4.962   1.425
29987WAT     H290204   3.291   5.102   1.500
29988WAT      O90205   2.384   7.015   9.448
29988WAT     H190206   2.300   6.962   9.445
29988WAT     H290207   2.437   6.989   9.529
29989WAT      O90208   5.505   7.059   7.999
29989WAT     H190209   5.417   7.055   7.954
29989WAT     H290210   5.511   6.986   8.067
29990WAT      O90211   8.764   4.368   0.889
29990WAT     H190212   8.811   4.439   0.837
29990WAT     H290213   8.828   4.294   0.910
29991WAT      O90214   7.284   6.714   3.924
29991WAT     H190215   7.310   6.781   3.855
29991WAT     H290216   7.216   6.755   3.986
29992WAT      O90217   5.290   2.670   8.169
29992WAT     H190218   5.193   2.650   8.154
29992WAT     H290219   5.341   2.655   8.084
29993WAT      O90220   9.498   2.511   6.994
29993WAT     H190221   9.401   2.532   6.980
29993WAT     H290222   9.507   2.421   7.035
29994WAT      O90223   5.187   3.868   4.890
29994WAT     H190224   5.217   3.778   4.922
29994WAT     H290225   5.110   3.858   4.828
29995WAT      O90226   7.761   2.851   4.912
29995WAT     H190227   7.793   2.770   4.862
29995WAT     H290228   7.675   2.830   4.957
29996WAT      O90229   0.342   2.983   9.463
29996WAT     H190230   0.257   2.990   9.412
29996WAT     H290231   0.323   2.969   9.560
29997WAT      O90232   6.244   5.439   2.648
29997WAT     H190233   6.247   5.514   2.714
29997WAT     H290234   6.178   5.370   2.678
29998WAT      O90235   6.838   0.369   4.624
29998WAT     H190236   6.745   0.404   4.626
29998WAT     H290237   6.890   0.406   4.701
29999WAT      O90238   2.473   5.141   2.559
29999WAT     H190239   2.561   5.187   2.551
29999WAT     H290240   2.477   5.072   2.632
30000WAT      O90241   7.906   0.327   1.731
30000WAT     H190242   7.974   0.296   1.798
30000WAT     H290243   7.827   0.267   1.734
30001WAT      O90244   1.989   0.806   6.549
30001WAT     H190245   2.020   0.761   6.633
30001WAT     H290246   1.924   0.878   6.572
30002WAT      O90247   7.778   5.753   8.438
30002WAT     H190248   7.866   5.724   8.473
30002WAT     H290249   7.707   5.691   8.470
30003WAT      O90250   5.247   1.887   6.007
30003WAT     H190251   5.250   1.816   5.936
30003WAT     H290252   5.159   1.935   6.001
30004WAT      O90253   4.229   1.251   6.441
30004WAT     H190254   4.149   1.206   6.480
30004WAT     H290255   4.214   1.350   6.439
30005WAT      O90256   1.168   3.412   8.526
30005WAT     H190257   1.108   3.394   8.604
30005WAT     H290258   1.142   3.354   8.449
30006WAT      O90259   5.779   9.579   8.232
30006WAT     H190260   5.770   9.518   8.154
30006WAT     H290261   5.742   9.535   8.314
30007WAT      O90262   5.305   0.010   5.014
30007WAT     H190263   5.349  -0.052   4.949
30007WAT     H290264   5.373   0.075   5.049
30008WAT      O90265   7.051   9.707   7.900
30008WAT     H190266   7.148   9.715   7.876
30008WAT     H290267   7.040   9.634   7.968
30009WAT      O90268   7.402   1.920   5.954
30009WAT     H190269   7.310   1.942   5.986
30009WAT     H290270   7.410   1.942   5.857
30010WAT      O90271   5.351   6.999   4.025
30010WAT     H190272   5.301   6.926   3.979
30010WAT     H290273   5.287   7.072   4.051
30011WAT      O90274   0.752   2.779   0.859
30011WAT     H190275   0.810   2.821   0.929
30011WAT     H290276   0.682   2.723   0.903
30012WAT      O90277   9.873   1.267   7.328
30012WAT     H190278   9.880   1.252   7.230
30012WAT     H290279   9.780   1.299   7.350
30013WAT      O90280   2.944   9.179   2.317
30013WAT     H190281   2.863   9.131   2.352
30013WAT     H290282   3.021   9.115   2.315
30014WAT      O90283   4.805   4.870   1.640
30014WAT     H190284   4.894   4.915   1.628
30014WAT     H290285   4.750   4.922   1.706
30015WAT      O90286   4.042   8.792   1.425
30015WAT     H190287   3.988   8.871   1.453
30015WAT     H290288   4.137   8.803   1.456
30016WAT      O90289   1.076   5.825   2.499
30016WAT     H190290   0.998   5.787   2.549
30016WAT     H290291   1.106   5.759   2.430
30017WAT      O90292   4.681   0.471   3.380
30017WAT     H190293   4.694   0.469   3.281
30017WAT     H290294   4.720   0.555   3.418
30018WAT      O90295   4.473   6.701   1.672
30018WAT     H190296   4.543   6.764   1.640
30018WAT     H290297   4.495   6.671   1.765
30019WAT      O90298   7.421   8.588   4.663
30019WAT     H190299   7.343   8.526   4.674
30019WAT     H290300   7.435   8.607   4.566
30020WAT      O90301   0.597   4.485   6.866
30020WAT     H190302   0.620   4.545   6.789
30020WAT     H290303   0.618   4.390   6.843
30021WAT      O90304   4.053   6.179   0.744
30021WAT     H190305   4.018   6.204   0.654
30021WAT     H290306   3.977   6.162   0.806
30022WAT      O90307   9.821   0.483   7.929
30022WAT     H190308   9.758   0.545   7.976
30022WAT     H290309   9.876   0.434   7.996
30023WAT      O90310   6.800   8.694   6.178
30023WAT     H190311   6.753   8.715   6.263
30023WAT     H290312   6.899   8.696   6.193
30024WAT      O90313   9.510   6.078   0.830
30024WAT     H190314   9.500   6.087   0.929
30024WAT     H290315   9.422   6.098   0.786
30025WAT      O90316   0.068   8.361   1.782
30025WAT     H190317   0.127   8.298   1.833
30025WAT     H290318   0.125   8.426   1.732
30026WAT      O90319   9.240   6.319   7.731
30026WAT     H190320   9.296   6.252   7.683
30026WAT     H290321   9.294   6.361   7.804
30027WAT      O90322   0.709   7.329   2.028
30027WAT     H190323   0.732   7.348   2.123
30027WAT     H290324   0.702   7.415   1.978
30028WAT      O90325   1.521   7.485   6.761
30028WAT     H190326   1.572   7.459   6.679
30028WAT     H290327   1.441   7.540   6.734
30029WAT      O90328   3.886   8.120   9.426
30029WAT     H190329   3.950   8.197   9.428
30029WAT     H290330   3.828   8.122   9.507
30030WAT      O90331   1.750   8.354   1.333
30030WAT     H190332   1.770   8.449   1.356
30030WAT     H290333   1.668   8.324   1.383
30031WAT      O90334   1.784   8.250   9.412
30031WAT     H190335   1.816   8.274   9.321
30031WAT     H290336   1.850   8.281   9.481
30032WAT      O90337   0.708   0.316   6.080
30032WAT     H190338   0.684   0.265   6.163
30032WAT     H290339   0.786   0.375   6.098
30033WAT      O90340   5.754   4.440   8.900
30033WAT     H190341   5.784   4.532   8.878
30033WAT     H290342   5.689   4.409   8.830
30034WAT      O90343   8.136   4.028   7.956
30034WAT     H190344   8.110   4.057   8.048
30034WAT     H290345   8.160   3.931   7.957
30035WAT      O90346   8.209   3.711   5.576
30035WAT     H190347   8.262   3.630   5.554
30035WAT     H290348   8.131   3.686   5.634
30036WAT      O90349   3.838   7.461   9.196
30036WAT     H190350   3.906   7.533   9.208
30036WAT     H290351   3.876   7.387   9.141
30037WAT      O90352   5.608   6.586   0.578
30037WAT     H190353   5.634   6.559   0.485
30037WAT     H290354   5.530   6.649   0.574
30038WAT      O90355   8.487   4.427   3.233
30038WAT     H190356   8.491   4.442   3.331
30038WAT     H290357   8.462   4.332   3.214
30039WAT      O90358   2.342   4.727   0.332
30039WAT     H190359   2.374   4.690   0.419
30039WAT     H290360   2.259   4.781   0.347
30040WAT      O90361   0.790   1.833   8.552
30040WAT     H190362   0.787   1.815   8.453
30040WAT     H290363   0.709   1.794   8.595
30041WAT      O90364   6.256   6.701   2.511
30041WAT     H190365   6.241   6.795   2.481
30041WAT     H290366   6.261   6.640   2.432
30042WAT      O90367   1.520   5.684   9.203
30042WAT     H190368   1.455   5.619   9.166
30042WAT     H290369   1.613   5.659   9.175
30043WAT      O90370   1.905   1.114   4.194
30043WAT     H190371   1.811   1.087   4.172
30043WAT     H290372   1.940   1.175   4.122
30044WAT      O90373   1.938   1.221   4.435
30044WAT     H190374   2.000   1.164   4.487
30044WAT     H290375   1.928   1.184   4.343
30045WAT      O90376   3.567   7.041   2.935
30045WAT     H190377   3.563   7.105   2.858
30045WAT     H290378   3.588   7.091   3.019
30046WAT      O90379   2.572   4.547   3.145
30046WAT     H190380   2.575   4.512   3.238
30046WAT     H290381   2.609   4.640   3.142
30047WAT      O90382   1.895   5.130   7.358
30047WAT     H190383   1.887   5.207   7.422
30047WAT     H290384   1.922   5.165   7.268
30048WAT      O90385   8.842   0.985   3.547
30048WAT     H190386   8.843   0.913   3.616
30048WAT     H290387   8.747   1.008   3.525
30049WAT      O90388   3.015   7.070   8.936
30049WAT     H190389   2.922   7.046   8.965
30049WAT     H290390   3.044   7.153   8.983
30050WAT      O90391   5.111   9.765   4.092
30050WAT     H190392   5.039   9.719   4.039
30050WAT     H290393   5.071   9.806   4.174
30051WAT      O90394   2.746   4.085   2.402
30051WAT     H190395   2.835   4.120   2.375
30051WAT     H290396   2.691   4.160   2.438
30052WAT      O90397   5.945   1.747   0.040
30052WAT     H190398   6.028   1.702   0.007
30052WAT     H290399   5.870   1.680   0.043
30053WAT      O90400   5.200   9.540   7.060
30053WAT     H190401   5.142   9.559   6.980
30053WAT     H290402   5.187   9.612   7.128
30054WAT      O90403   9.455   7.654   6.761
30054WAT     H190404   9.535   7.678   6.705
30054WAT     H290405   9.375   7.644   6.702
30055WAT      O90406   4.891   7.342   3.656
30055WAT     H190407   4.851   7.251   3.646
30055WAT     H290408   4.907   7.361   3.753
30056WAT      O90409   8.265   4.925   3.265
30056WAT     H190410   8.222   4.930   3.355
30056WAT     H290411   8.221   4.853   3.211
30057WAT      O90412   1.235   0.204   9.623
30057WAT     H190413   1.142   0.176   9.647
30057WAT     H290414   1.294   0.196   9.703
30058WAT      O90415   3.014   9.213   6.770
30058WAT     H190416   3.106   9.190   6.738
30058WAT     H290417   2.959   9.246   6.693
30059WAT      O90418   6.694   6.564   8.551
30059WAT     H190419   6.692   6.528   8.644
30059WAT     H290420   6.785   6.599   8.530
30060WAT      O90421   9.862   5.600   9.704
30060WAT     H190422   9.851   5.654   9.621
30060WAT     H290423   9.909   5.653   9.773
30061WAT      O90424   4.868   5.692   7.585
30061WAT     H190425   4.819   5.777   7.606
30061WAT     H290426   4.909   5.655   7.669
30062WAT      O90427   3.871   3.573   1.870
30062WAT     H190428   3.785   3.607   1.909
30062WAT     H290429   3.909   3.642   1.809
30063WAT      O90430   8.834   2.272   7.201
30063WAT     H190431   8.764   2.344   7.202
30063WAT     H290432   8.812   2.206   7.129
30064WAT      O90433   3.142   3.583   2.496
30064WAT     H190434   3.135   3.650   2.423
30064WAT     H290435   3.057   3.584   2.550
30065WAT      O90436   3.807   2.017   6.819
30065WAT     H190437   3.849   2.095   6.771
30065WAT     H290438   3.730   2.049   6.873
30066WAT      O90439   3.198   2.674   1.068
30066WAT     H190440   3.157   2.732   1.139
30066WAT     H290441   3.182   2.578   1.091
30067WAT      O90442   5.407   1.878   4.016
30067WAT     H190443   5.342   1.819   4.064
30067WAT     H290444   5.472   1.915   4.082
30068WAT      O90445   6.655   5.395   3.236
30068WAT     H190446   6.559   5.367   3.237
30068WAT     H290447   6.714   5.316   3.254
30069WAT      O90448   0.147   4.731   6.545
30069WAT     H190449   0.167   4.707   6.640
30069WAT     H290450   0.228   4.716   6.489
30070WAT      O90451   8.925   6.949   8.498
30070WAT     H190452   8.936   6.867   8.443
30070WAT     H290453   8.886   7.022   8.441
30071WAT      O90454   5.283   7.080   3.401
30071WAT     H190455   5.326   7.059   3.313
30071WAT     H290456   5.195   7.126   3.385
30072WAT      O90457   6.483   0.750   0.551
30072WAT     H190458   6.488   0.837   0.599
30072WAT     H290459   6.574   0.726   0.516
30073WAT      O90460   7.564   1.181   1.720
30073WAT     H190461   7.534   1.262   1.770
30073WAT     H290462   7.485   1.139   1.675
30074WAT      O90463   2.033   3.076   6.594
30074WAT     H190464   2.083   3.100   6.511
30074WAT     H290465   2.096   3.036   6.661
30075WAT      O90466   9.870   4.693   9.654
30075WAT     H190467   9.802   4.649   9.713
30075WAT     H290468   9.906   4.626   9.589
30076WAT      O90469   1.362   6.087   8.141
30076WAT     H190470   1.266   6.075   8.168
30076WAT     H290471   1.402   5.998   8.119
30077WAT      O90472   7.182   3.583   6.697
30077WAT     H190473   7.247   3.582   6.774
30077WAT     H290474   7.179   3.492   6.656
30078WAT      O90475   6.880   3.886   0.752
30078WAT     H190476   6.922   3.950   0.687
30078WAT     H290477   6.876   3.795   0.710
30079WAT      O90478   7.278   9.271   6.949
30079WAT     H190479   7.265   9.310   7.039
30079WAT     H290480   7.212   9.196   6.935
30080WAT      O90481   2.759   0.993   3.476
30080WAT     H190482   2.773   0.913   3.417
30080WAT     H290483   2.831   0.997   3.544
30081WAT      O90484   7.891   2.554   4.186
30081WAT     H190485   7.933   2.619   4.250
30081WAT     H290486   7.944   2.470   4.185
30082WAT      O90487   0.484   3.946   1.923
30082WAT     H190488   0.512   3.886   1.998
30082WAT     H290489   0.503   4.041   1.948
30083WAT      O90490   0.920   0.653   3.610
30083WAT     H190491   0.917   0.753   3.599
30083WAT     H290492   0.882   0.629   3.699
30084WAT      O90493   8.343   1.202   1.161
30084WAT     H190494   8.366   1.188   1.257
30084WAT     H290495   8.284   1.282   1.152
30085WAT      O90496   9.435   5.548   8.159
30085WAT     H190497   9.477   5.464   8.194
30085WAT     H290498   9.507   5.606   8.120
30086WAT      O90499   7.011   7.664   8.385
30086WAT     H190500   7.069   7.744   8.400
30086WAT     H290501   6.927   7.692   8.338
30087WAT      O90502   2.739   8.548   7.246
30087WAT     H190503   2.769   8.642   7.262
30087WAT     H290504   2.653   8.532   7.295
30088WAT      O90505   7.412   6.164   4.966
30088WAT     H190506   7.491   6.108   4.989
30088WAT     H290507   7.440   6.240   4.907
30089WAT      O90508   7.374   0.693   5.716
30089WAT     H190509   7.308   0.742   5.773
30089WAT     H290510   7.383   0.599   5.749
30090WAT      O90511   1.545   3.993   7.296
30090WAT     H190512   1.519   3.987   7.199
30090WAT     H290513   1.483   3.936   7.350
30091WAT      O90514   8.731   4.538   3.211
30091WAT     H190515   8.791   4.495   3.280
30091WAT     H290516   8.636   4.517   3.233
30092WAT      O90517   6.599   6.686   5.285
30092WAT     H190518   6.535   6.618   5.320
30092WAT     H290519   6.616   6.667   5.188
30093WAT      O90520   5.205   2.401   6.909
30093WAT     H190521   5.159   2.329   6.857
30093WAT     H290522   5.298   2.373   6.929
30094WAT      O90523   6.643   4.948   0.161
30094WAT     H190524   6.578   4.978   0.091
30094WAT     H290525   6.734   4.982   0.137
30095WAT      O90526   4.180   1.744   8.588
30095WAT     H190527   4.180   1.748   8.488
30095WAT     H290528   4.198   1.835   8.625
30096WAT      O90529   7.259   8.127   5.894
30096WAT     H190530   7.188   8.197   5.903
30096WAT     H290531   7.326   8.137   5.968
30097WAT      O90532   8.245   4.889   8.666
30097WAT     H190533   8.217   4.842   8.582
30097WAT     H290534   8.207   4.841   8.745
30098WAT      O90535   0.016   5.554   7.654
30098WAT     H190536   0.000   5.521   7.561
30098WAT     H290537   0.109   5.531   7.682
30099WAT      O90538   8.598   8.292   1.544
30099WAT     H190539   8.632   8.240   1.622
30099WAT     H290540   8.625   8.388   1.554
30100WAT      O90541   0.913   8.404   3.119
30100WAT     H190542   0.990   8.403   3.055
30100WAT     H290543   0.939   8.454   3.202
30101WAT      O90544   1.177   3.521   8.190
30101WAT     H190545   1.169   3.565   8.101
30101WAT     H290546   1.264   3.471   8.194
30102WAT      O90547   8.922   6.895   6.067
30102WAT     H190548   8.854   6.942   6.124
30102WAT     H290549   9.010   6.896   6.114
30103WAT      O90550   2.785   6.501   5.297
30103WAT     H190551   2.787   6.536   5.204
30103WAT     H290552   2.713   6.548   5.349
30104WAT      O90553   0.048   7.054   2.070
30104WAT     H190554  -0.006   7.132   2.040
30104WAT     H290555   0.042   6.981   2.003
30105WAT      O90556   8.679   3.810   9.393
30105WAT     H190557   8.619   3.734   9.419
30105WAT     H290558   8.655   3.842   9.302
30106WAT      O90559   1.749   6.806   1.096
30106WAT     H190560   1.699   6.858   1.026
30106WAT     H290561   1.698   6.722   1.117
30107WAT      O90562   5.895   4.257   6.019
30107WAT     H190563   5.951   4.330   5.979
30107WAT     H290564   5.953   4.179   6.043
30108WAT      O90565   6.694   8.419   4.117
30108WAT     H190566   6.732   8.332   4.084
30108WAT     H290567   6.597   8.406   4.138
30109WAT      O90568   0.490   7.476   3.255
30109WAT     H190569   0.540   7.395   3.225
30109WAT     H290570   0.524   7.557   3.206
30110WAT      O90571   6.577   9.303   9.240
30110WAT     H190572   6.596   9.367   9.314
30110WAT     H290573   6.482   9.313   9.211
30111WAT      O90574   4.863   5.419   5.418
30111WAT     H190575   4.925   5.347   5.449
30111WAT     H290576   4.788   5.379   5.366
30112WAT      O90577   9.208   2.008   0.699
30112WAT     H190578   9.307   2.005   0.680
30112WAT     H290579   9.189   2.084   0.761
30113WAT      O90580   1.089   0.670   3.250
30113WAT     H190581   1.097   0.752   3.193
30113WAT     H290582   1.139   0.684   3.336
30114WAT      O90583   1.499   9.317   4.446
30114WAT     H190584   1.418   9.277   4.403
30114WAT     H290585   1.573   9.250   4.445
30115WAT      O90586   9.810   9.059   9.705
30115WAT     H190587   9.720   9.103   9.712
30115WAT     H290588   9.837   9.026   9.795
30116WAT      O90589   1.758   9.313   2.706
30116WAT     H190590   1.842   9.299   2.653
30116WAT     H290591   1.733   9.228   2.752
30117WAT      O90592   9.051   6.779   2.034
30117WAT     H190593   8.958   6.789   2.070
30117WAT     H290594   9.111   6.844   2.081
30118WAT      O90595   0.935   7.458   5.717
30118WAT     H190596   0.840   7.426   5.725
30118WAT     H290597   0.995   7.379   5.702
30119WAT      O90598   6.528   5.842   5.031
30119WAT     H190599   6.550   5.834   5.128
30119WAT     H290600   6.582   5.775   4.980
30120WAT      O90601   2.491   3.791   4.959
30120WAT     H190602   2.418   3.743   4.911
30120WAT     H290603   2.456   3.877   4.996
30121WAT      O90604   6.222   1.530   8.165
30121WAT     H190605   6.250   1.536   8.261
30121WAT     H290606   6.134   1.483   8.158
30122WAT      O90607   3.958   3.452   7.308
30122WAT     H190608   3.871   3.407   7.286
30122WAT     H290609   3.940   3.537   7.357
30123WAT      O90610   1.410   0.991   7.463
30123WAT     H190611   1.351   0.991   7.383
30123WAT     H290612   1.449   1.082   7.477
30124WAT      O90613   6.626   8.225   9.115
30124WAT     H190614   6.676   8.214   9.201
30124WAT     H290615   6.570   8.308   9.119
30125WAT      O90616   6.907   5.352   5.188
30125WAT     H190617   6.933   5.440   5.147
30125WAT     H290618   6.860   5.368   5.274
30126WAT      O90619   7.139   6.153   9.594
30126WAT     H190620   7.237   6.175   9.593
30126WAT     H290621   7.126   6.058   9.620
30127WAT      O90622   3.787   8.161   9.684
30127WAT     H190623   3.752   8.099   9.754
30127WAT     H290624   3.777   8.256   9.715
30128WAT      O90625   9.500   9.481   2.063
30128WAT     H190626   9.463   9.561   2.110
30128WAT     H290627   9.478   9.486   1.965
30129WAT      O90628   0.645   9.478   6.095
30129WAT     H190629   0.575   9.503   6.161
30129WAT     H290630   0.613   9.400   6.040
30130WAT      O90631   6.201   5.067   7.847
30130WAT     H190632   6.205   4.975   7.809
30130WAT     H290633   6.171   5.063   7.942
30131WAT      O90634   0.813   4.972   3.233
30131WAT     H190635   0.797   5.035   3.158
30131WAT     H290636   0.793   4.878   3.203
30132WAT      O90637   8.939   2.713   5.509
30132WAT     H190638   8.889   2.681   5.589
30132WAT     H290639   8.940   2.642   5.439
30133WAT      O90640   4.551   1.573   0.766
30133WAT     H190641   4.562   1.652   0.826
30133WAT     H290642   4.527   1.492   0.821
30134WAT      O90643   5.396   4.953   3.584
30134WAT     H190644   5.418   4.901   3.502
30134WAT     H290645   5.443   4.912   3.663
30135WAT      O90646   0.109   4.858   8.176
30135WAT     H190647   0.185   4.794   8.174
30135WAT     H290648   0.049   4.843   8.097
30136WAT      O90649   7.359   2.592   1.879
30136WAT     H190650   7.374   2.575   1.781
30136WAT     H290651   7.419   2.666   1.910
30137WAT      O90652   8.537   8.078   1.996
30137WAT     H190653   8.565   8.055   2.089
30137WAT     H290654   8.471   8.153   1.998
30138WAT      O90655   2.601   2.752   7.925
30138WAT     H190656   2.521   2.800   7.888
30138WAT     H290657   2.678   2.815   7.932
30139WAT      O90658   6.779   0.432   8.280
30139WAT     H190659   6.703   0.419   8.217
30139WAT     H290660   6.808   0.343   8.316
30140WAT      O90661   7.093   2.249   3.438
30140WAT     H190662   7.136   2.265   3.527
30140WAT     H290663   7.128   2.163   3.399
30141WAT      O90664   8.521   6.600   5.870
30141WAT     H190665   8.580   6.520   5.880
30141WAT     H290666   8.437   6.574   5.824
30142WAT      O90667   5.925   4.002   1.484
30142WAT     H190668   5.843   3.983   1.539
30142WAT     H290669   5.909   3.971   1.390
30143WAT      O90670   6.581   3.857   2.424
30143WAT     H190671   6.603   3.779   2.482
30143WAT     H290672   6.537   3.825   2.340
30144WAT      O90673   9.007   5.519   3.263
30144WAT     H190674   9.072   5.444   3.258
30144WAT     H290675   8.917   5.485   3.292
30145WAT      O90676   5.284   0.468   9.148
30145WAT     H190677   5.184   0.474   9.153
30145WAT     H290678   5.322   0.475   9.241
30146WAT      O90679   4.909   9.372   1.650
30146WAT     H190680   4.976   9.428   1.699
30146WAT     H290681   4.835   9.430   1.616
30147WAT      O90682   3.452   1.311   3.171
30147WAT     H190683   3.468   1.353   3.260
30147WAT     H290684   3.376   1.247   3.176
30148WAT      O90685   4.029   7.195   9.161
30148WAT     H190686   4.085   7.263   9.114
30148WAT     H290687   4.013   7.225   9.255
30149WAT      O90688   6.514   5.008   9.586
30149WAT     H190689   6.544   5.053   9.502
30149WAT     H290690   6.415   5.001   9.587
30150WAT      O90691   2.346   5.279   8.579
30150WAT     H190692   2.285   5.310   8.652
30150WAT     H290693   2.357   5.180   8.585
30151WAT      O90694   0.728   5.182   3.022
30151WAT     H190695   0.692   5.133   2.942
30151WAT     H290696   0.652   5.227   3.070
30152WAT      O90697   6.926   3.888   2.529
30152WAT     H190698   6.880   3.937   2.454
30152WAT     H290699   7.024   3.883   2.510
30153WAT      O90700   8.772   6.790   8.662
30153WAT     H190701   8.833   6.828   8.593
30153WAT     H290702   8.685   6.840   8.660
30154WAT      O90703   7.129   1.564   3.759
30154WAT     H190704   7.187   1.515   3.695
30154WAT     H290705   7.121   1.660   3.731
30155WAT      O90706   7.354   5.188   7.027
30155WAT     H190707   7.380   5.266   7.085
30155WAT     H290708   7.280   5.137   7.072
30156WAT      O90709   5.025   0.734   3.745
30156WAT     H190710   5.038   0.827   3.709
30156WAT     H290711   4.951   0.689   3.695
30157WAT      O90712   8.960   8.131   5.250
30157WAT     H190713   9.056   8.102   5.257
30157WAT     H290714   8.930   8.126   5.155
30158WAT      O90715   3.769   2.796   9.435
30158WAT     H190716   3.716   2.848   9.502
30158WAT     H290717   3.820   2.859   9.376
30159WAT      O90718   9.517   1.997   0.617
30159WAT     H190719   9.585   2.002   0.543
30159WAT     H290720   9.494   2.089   0.647
30160WAT      O90721   6.986   0.973   6.399
30160WAT     H190722   6.976   1.014   6.308
30160WAT     H290723   7.067   0.915   6.400
30161WAT      O90724   7.303   4.109   5.037
30161WAT     H190725   7.235   4.182   5.031
30161WAT     H290726   7.363   4.112   4.957
30162WAT      O90727   2.974   6.207   2.482
30162WAT     H190728   2.904   6.206   2.411
30162WAT     H290729   2.959   6.284   2.543
30163WAT      O90730   3.673   5.271   5.087
30163WAT     H190731   3.743   5.223   5.035
30163WAT     H290732   3.699   5.368   5.095
30164WAT      O90733   0.791   0.622   3.861
30164WAT     H190734   0.701   0.611   3.821
30164WAT     H290735   0.783   0.625   3.961
30165WAT      O90736   0.299   2.440   6.486
30165WAT     H190737   0.389   2.452   6.528
30165WAT     H290738   0.306   2.455   6.387
30166WAT      O90739   0.776   3.936   1.117
30166WAT     H190740   0.678   3.949   1.101
30166WAT     H290741   0.813   4.013   1.168
30167WAT      O90742   5.895   8.439   8.445
30167WAT     H190743   5.989   8.423   8.416
30167WAT     H290744   5.894   8.499   8.525
30168WAT      O90745   4.074   8.935   8.765
30168WAT     H190746   4.134   8.879   8.822
30168WAT     H290747   4.058   8.890   8.678
30169WAT      O90748   8.017   8.748   1.179
30169WAT     H190749   7.926   8.716   1.204
30169WAT     H290750   8.011   8.836   1.133
30170WAT      O90751   0.771   2.483   5.307
30170WAT     H190752   0.755   2.540   5.226
30170WAT     H290753   0.798   2.541   5.383
30171WAT      O90754   2.095   7.822   2.762
30171WAT     H190755   2.136   7.852   2.676
30171WAT     H290756   2.158   7.762   2.810
30172WAT      O90757   5.218   7.900   3.375
30172WAT     H190758   5.221   7.800   3.376
30172WAT     H290759   5.225   7.936   3.468
30173WAT      O90760   2.962   9.719   7.377
30173WAT     H190761   3.033   9.762   7.321
30173WAT     H290762   2.882   9.779   7.381
30174WAT      O90763   4.025   0.487   6.738
30174WAT     H190764   3.933   0.525   6.734
30174WAT     H290765   4.067   0.490   6.647
30175WAT      O90766   4.729   5.501   0.480
30175WAT     H190767   4.713   5.509   0.578
30175WAT     H290768   4.774   5.584   0.446
30176WAT      O90769   8.190   3.116   2.855
30176WAT     H190770   8.117   3.056   2.824
30176WAT     H290771   8.232   3.161   2.775
30177WAT      O90772   0.386   8.798   9.085
30177WAT     H190773   0.451   8.783   9.010
30177WAT     H290774   0.416   8.876   9.140
30178WAT      O90775   0.177   0.675   8.228
30178WAT     H190776   0.276   0.686   8.220
30178WAT     H290777   0.131   0.745   8.175
30179WAT      O90778   3.060   5.606   9.414
30179WAT     H190779   3.069   5.705   9.426
30179WAT     H290780   3.076   5.582   9.318
30180WAT      O90781   4.426   6.513   1.488
30180WAT     H190782   4.470   6.545   1.404
30180WAT     H290783   4.418   6.589   1.553
30181WAT      O90784   9.775   0.230   6.961
30181WAT     H190785   9.797   0.256   6.867
30181WAT     H290786   9.747   0.312   7.012
30182WAT      O90787   6.074   6.770   6.539
30182WAT     H190788   6.092   6.685   6.490
30182WAT     H290789   6.142   6.782   6.611
30183WAT      O90790   5.247   5.529   9.531
30183WAT     H190791   5.273   5.582   9.611
30183WAT     H290792   5.321   5.534   9.463
30184WAT      O90793   6.448   3.551   1.140
30184WAT     H190794   6.442   3.459   1.101
30184WAT     H290795   6.357   3.593   1.139
30185WAT      O90796   1.516   1.219   1.603
30185WAT     H190797   1.478   1.311   1.603
30185WAT     H290798   1.601   1.219   1.655
30186WAT      O90799   4.238   9.047   7.866
30186WAT     H190800   4.333   9.018   7.860
30186WAT     H290801   4.227   9.112   7.941
30187WAT      O90802   0.879   4.430   3.478
30187WAT     H190803   0.971   4.408   3.445
30187WAT     H290804   0.881   4.441   3.577
30188WAT      O90805   4.076   5.844   8.760
30188WAT     H190806   4.096   5.775   8.691
30188WAT     H290807   4.109   5.933   8.729
30189WAT      O90808   5.604   5.432   3.847
30189WAT     H190809   5.562   5.479   3.925
30189WAT     H290810   5.702   5.454   3.844
30190WAT      O90811   4.617   1.764   6.282
30190WAT     H190812   4.667   1.705   6.345
30190WAT     H290813   4.660   1.854   6.280
30191WAT      O90814   2.808   4.303   1.096
30191WAT     H190815   2.905   4.293   1.120
30191WAT     H290816   2.801   4.354   1.010
30192WAT      O90817   5.631   4.014   0.147
30192WAT     H190818   5.570   4.038   0.222
30192WAT     H290819   5.655   3.917   0.152
30193WAT      O90820   2.182   1.678   5.316
30193WAT     H190821   2.168   1.584   5.284
30193WAT     H290822   2.279   1.693   5.335
30194WAT      O90823   0.595   6.146   8.274
30194WAT     H190824   0.558   6.188   8.356
30194WAT     H290825   0.523   6.096   8.226
30195WAT      O90826   7.343   2.686   4.661
30195WAT     H190827   7.298   2.733   4.737
30195WAT     H290828   7.310   2.592   4.655
30196WAT      O90829   7.802   9.275   8.496
30196WAT     H190830   7.876   9.342   8.503
30196WAT     H290831   7.780   9.240   8.588
30197WAT      O90832   2.152   4.270   3.016
30197WAT     H190833   2.221   4.341   3.007
30197WAT     H290834   2.118   4.244   2.925
30198WAT      O90835   0.011   6.053   2.599
30198WAT     H190836  -0.046   6.127   2.562
30198WAT     H290837  -0.039   6.006   2.672
30199WAT      O90838   6.716   7.635   3.706
30199WAT     H190839   6.755   7.723   3.731
30199WAT     H290840   6.682   7.640   3.612
30200WAT      O90841   8.504   6.745   4.226
30200WAT     H190842   8.550   6.658   4.209
30200WAT     H290843   8.486   6.754   4.324
30201WAT      O90844   1.517   7.841   5.843
30201WAT     H190845   1.479   7.771   5.782
30201WAT     H290846   1.568   7.908   5.789
30202WAT      O90847   3.412   8.535   5.326
30202WAT     H190848   3.357   8.498   5.250
30202WAT     H290849   3.423   8.634   5.314
30203WAT      O90850   4.553   5.466   6.853
30203WAT     H190851   4.583   5.561   6.848
30203WAT     H290852   4.543   5.439   6.949
30204WAT      O90853   7.949   5.230   8.303
30204WAT     H190854   7.898   5.196   8.224
30204WAT     H290855   7.967   5.328   8.291
30205WAT      O90856   5.386   7.252   5.319
30205WAT     H190857   5.473   7.216   5.285
30205WAT     H290858   5.403   7.302   5.404
30206WAT      O90859   7.192   8.878   3.730
30206WAT     H190860   7.275   8.830   3.761
30206WAT     H290861   7.204   8.905   3.635
30207WAT      O90862   2.143   6.360   4.075
30207WAT     H190863   2.110   6.273   4.110
30207WAT     H290864   2.107   6.434   4.132
30208WAT      O90865   8.531   1.219   4.694
30208WAT     H190866   8.499   1.130   4.726
30208WAT     H290867   8.625   1.212   4.662
30209WAT      O90868   1.203   8.312   5.152
30209WAT     H190869   1.221   8.246   5.079
30209WAT     H290870   1.144   8.270   5.221
30210WAT      O90871   6.431   8.592   7.211
30210WAT     H190872   6.368   8.514   7.215
30210WAT     H290873   6.465   8.612   7.303
30211WAT      O90874   1.312   5.964   1.745
30211WAT     H190875   1.297   5.982   1.648
30211WAT     H290876   1.313   5.865   1.760
30212WAT      O90877   3.171   9.685   5.271
30212WAT     H190878   3.119   9.604   5.297
30212WAT     H290879   3.235   9.662   5.198
30213WAT      O90880   9.705   4.579   3.374
30213WAT     H190881   9.720   4.557   3.471
30213WAT     H290882   9.663   4.501   3.328
30214WAT      O90883   2.553   9.095   1.362
30214WAT     H190884   2.550   9.170   1.427
30214WAT     H290885   2.617   9.118   1.288
30215WAT      O90886   6.149   5.280   3.958
30215WAT     H190887   6.205   5.198   3.972
30215WAT     H290888   6.068   5.274   4.017
30216WAT      O90889   4.842   2.238   0.302
30216WAT     H190890   4.802   2.166   0.245
30216WAT     H290891   4.806   2.327   0.273
30217WAT      O90892   3.884   6.529   8.840
30217WAT     H190893   3.922   6.455   8.896
30217WAT     H290894   3.957   6.589   8.808
30218WAT      O90895   8.726   2.372   2.729
30218WAT     H190896   8.746   2.441   2.798
30218WAT     H290897   8.795   2.300   2.733
30219WAT      O90898   8.808   1.336   2.930
30219WAT     H190899   8.864   1.258   2.958
30219WAT     H290900   8.789   1.394   3.009
30220WAT      O90901   6.095   7.607   0.775
30220WAT     H190902   6.126   7.574   0.686
30220WAT     H290903   6.000   7.580   0.790
30221WAT      O90904   0.287   3.080   5.738
30221WAT     H190905   0.374   3.031   5.732
30221WAT     H290906   0.300   3.174   5.707
30222WAT      O90907   1.783   0.737   5.456
30222WAT     H190908   1.828   0.827   5.448
30222WAT     H290909   1.709   0.731   5.390
30223WAT      O90910   3.479   0.112   7.905
30223WAT     H190911   3.494   0.069   7.816
30223WAT     H290912   3.566   0.134   7.948
30224WAT      O90913   3.333   6.518   7.658
30224WAT     H190914   3.356   6.439   7.602
30224WAT     H290915   3.284   6.488   7.740
30225WAT      O90916   5.902   1.418   6.917
30225WAT     H190917   5.929   1.404   6.821
30225WAT     H290918   5.918   1.514   6.942
30226WAT      O90919   7.102   9.463   8.043
30226WAT     H190920   7.118   9.433   8.138
30226WAT     H290921   7.185   9.450   7.989
30227WAT      O90922   1.600   6.452   5.867
30227WAT     H190923   1.507   6.418   5.854
30227WAT     H290924   1.664   6.396   5.814
30228WAT      O90925   7.174   6.003   2.198
30228WAT     H190926   7.242   5.930   2.204
30228WAT     H290927   7.082   5.963   2.196
30229WAT      O90928   1.916   5.855   9.316
30229WAT     H190929   1.857   5.786   9.274
30229WAT     H290930   1.920   5.840   9.414
30230WAT      O90931   5.343   7.381   5.672
30230WAT     H190932   5.401   7.309   5.709
30230WAT     H290933   5.258   7.385   5.725
30231WAT      O90934   7.985   0.500   0.769
30231WAT     H190935   7.946   0.411   0.747
30231WAT     H290936   8.034   0.535   0.690
30232WAT      O90937   3.339   4.570   1.457
30232WAT     H190938   3.404   4.615   1.518
30232WAT     H290939   3.311   4.633   1.385
30233WAT      O90940   8.587   0.832   8.819
30233WAT     H190941   8.647   0.805   8.743
30233WAT     H290942   8.518   0.761   8.833
30234WAT      O90943   2.683   0.961   1.118
30234WAT     H190944   2.726   1.013   1.044
30234WAT     H290945   2.607   0.908   1.082
30235WAT      O90946   7.600   6.864   6.064
30235WAT     H190947   7.585   6.766   6.075
30235WAT     H290948   7.614   6.885   5.967
30236WAT      O90949   0.359   5.415   8.853
30236WAT     H190950   0.388   5.470   8.775
30236WAT     H290951   0.430   5.418   8.924
30237WAT      O90952   4.966   8.376   9.707
30237WAT     H190953   5.011   8.316   9.774
30237WAT     H290954   5.035   8.427   9.656
30238WAT      O90955   9.549   4.743   9.876
30238WAT     H190956   9.549   4.662   9.817
30238WAT     H290957   9.567   4.824   9.821
30239WAT      O90958   1.434   9.141   4.766
30239WAT     H190959   1.431   9.103   4.858
30239WAT     H290960   1.497   9.219   4.764
30240WAT      O90961   6.908   7.971   4.047
30240WAT     H190962   6.947   7.966   4.139
30240WAT     H290963   6.966   7.920   3.983
30241WAT      O90964   1.689   9.782   0.488
30241WAT     H190965   1.783   9.811   0.508
30241WAT     H290966   1.681   9.761   0.390
30242WAT      O90967   5.290   0.481   5.834
30242WAT     H190968   5.310   0.481   5.932
30242WAT     H290969   5.255   0.391   5.808
30243WAT      O90970   4.654   2.659   0.440
30243WAT     H190971   4.612   2.742   0.476
30243WAT     H290972   4.582   2.593   0.415
30244WAT      O90973   7.366   4.803   7.039
30244WAT     H190974   7.315   4.768   7.117
30244WAT     H290975   7.457   4.762   7.037
30245WAT      O90976   7.383   4.580   4.588
30245WAT     H190977   7.319   4.637   4.639
30245WAT     H290978   7.463   4.562   4.644
30246WAT      O90979   4.650   7.545   3.591
30246WAT     H190980   4.705   7.469   3.626
30246WAT     H290981   4.554   7.520   3.591
30247WAT      O90982   8.474   1.786   0.206
30247WAT     H190983   8.476   1.835   0.119
30247WAT     H290984   8.428   1.698   0.194
30248WAT      O90985   3.824   6.963   2.922
30248WAT     H190986   3.730   6.996   2.931
30248WAT     H290987   3.826   6.864   2.937
30249WAT      O90988   1.792   9.633   8.186
30249WAT     H190989   1.717   9.686   8.226
30249WAT     H290990   1.816   9.673   8.097
30250WAT      O90991   3.140   0.500   4.521
30250WAT     H190992   3.129   0.593   4.486
30250WAT     H290993   3.174   0.441   4.447
30251WAT      O90994   3.998   7.163   7.888
30251WAT     H190995   4.073   7.221   7.854
30251WAT     H290996   3.912   7.195   7.849
30252WAT      O90997   6.889   6.154   5.312
30252WAT     H190998   6.835   6.111   5.384
30252WAT     H290999   6.889   6.096   5.230
30253WAT      O91000   5.498   6.154   6.308
30253WAT     H191001   5.533   6.076   6.359
30253WAT     H291002   5.516   6.142   6.210
30254WAT      O91003   3.333   6.492   2.523
30254WAT     H191004   3.303   6.415   2.579
30254WAT     H291005   3.254   6.541   2.488
30255WAT      O91006   6.128   9.663   9.756
30255WAT     H191007   6.141   9.733   9.827
30255WAT     H291008   6.189   9.682   9.679
30256WAT      O91009   5.780   3.821   2.107
30256WAT     H191010   5.859   3.814   2.168
30256WAT     H291011   5.711   3.881   2.148
30257WAT      O91012   0.995   8.365   1.294
30257WAT     H191013   1.027   8.446   1.246
30257WAT     H291014   0.982   8.387   1.391
30258WAT      O91015   5.173   5.304   0.206
30258WAT     H191016   5.184   5.336   0.300
30258WAT     H291017   5.251   5.333   0.150
30259WAT      O91018   6.501   8.833   3.011
30259WAT     H191019   6.536   8.793   2.926
30259WAT     H291020   6.558   8.911   3.037
30260WAT      O91021   3.798   1.562   7.643
30260WAT     H191022   3.779   1.464   7.651
30260WAT     H291023   3.814   1.601   7.734
30261WAT      O91024   5.050   9.123   2.731
30261WAT     H191025   5.018   9.196   2.791
30261WAT     H291026   4.976   9.058   2.714
30262WAT      O91027   0.683   2.738   2.291
30262WAT     H191028   0.683   2.803   2.366
30262WAT     H291029   0.619   2.664   2.311
30263WAT      O91030   3.727   9.095   1.793
30263WAT     H191031   3.780   9.026   1.842
30263WAT     H291032   3.779   9.180   1.790
30264WAT      O91033   3.455   2.015   3.350
30264WAT     H191034   3.371   1.961   3.345
30264WAT     H291035   3.533   1.954   3.366
30265WAT      O91036   3.064   8.278   1.936
30265WAT     H191037   3.094   8.326   1.854
30265WAT     H291038   3.079   8.336   2.016
30266WAT      O91039   7.910   5.519   1.357
30266WAT     H191040   7.840   5.491   1.423
30266WAT     H291041   7.988   5.457   1.364
30267WAT      O91042   0.108   8.521   2.505
30267WAT     H191043   0.155   8.608   2.490
30267WAT     H291044   0.167   8.446   2.474
30268WAT      O91045   6.012   6.123   2.367
30268WAT     H191046   6.065   6.121   2.452
30268WAT     H291047   6.033   6.207   2.318
30269WAT      O91048   1.274   4.481   8.144
30269WAT     H191049   1.282   4.402   8.083
30269WAT     H291050   1.365   4.511   8.172
30270WAT      O91051   6.803   6.693   9.054
30270WAT     H191052   6.848   6.729   8.972
30270WAT     H291053   6.704   6.692   9.040
30271WAT      O91054   1.983   5.698   6.250
30271WAT     H191055   1.999   5.657   6.161
30271WAT     H291056   1.902   5.655   6.292
30272WAT      O91057   5.735   5.011   3.059
30272WAT     H191058   5.832   4.995   3.079
30272WAT     H291059   5.689   4.923   3.051
30273WAT      O91060   4.988   3.401   0.486
30273WAT     H191061   5.036   3.431   0.404
30273WAT     H291062   4.893   3.433   0.484
30274WAT      O91063   2.061   0.643   2.225
30274WAT     H191064   2.119   0.622   2.304
30274WAT     H291065   1.967   0.659   2.255
30275WAT      O91066   0.859   0.589   2.565
30275WAT     H191067   0.797   0.616   2.491
30275WAT     H291068   0.806   0.546   2.639
30276WAT      O91069   4.876   3.987   4.877
30276WAT     H191070   4.847   3.939   4.794
30276WAT     H291071   4.819   3.958   4.954
30277WAT      O91072   2.640   2.381   4.719
30277WAT     H191073   2.625   2.309   4.787
30277WAT     H291074   2.552   2.403   4.676
30278WAT      O91075   9.719   2.076   4.254
30278WAT     H191076   9.640   2.116   4.300
30278WAT     H291077   9.782   2.149   4.225
30279WAT      O91078   9.141   2.004   2.947
30279WAT     H191079   9.206   1.928   2.935
30279WAT     H291080   9.050   1.974   2.920
30280WAT      O91081   7.409   8.374   9.247
30280WAT     H191082   7.387   8.398   9.341
30280WAT     H291083   7.454   8.285   9.245
30281WAT      O91084   3.012   3.002   5.785
30281WAT     H191085   2.964   2.964   5.706
30281WAT     H291086   3.017   3.102   5.777
30282WAT      O91087   6.608   3.180   1.298
30282WAT     H191088   6.607   3.192   1.397
30282WAT     H291089   6.676   3.112   1.273
30283WAT      O91090   5.860   2.721   6.295
30283WAT     H191091   5.813   2.758   6.215
30283WAT     H291092   5.927   2.788   6.327
30284WAT      O91093   7.683   5.688   3.166
30284WAT     H191094   7.611   5.709   3.100
30284WAT     H291095   7.761   5.647   3.119
30285WAT      O91096   9.013   7.347   8.248
30285WAT     H191097   9.054   7.401   8.322
30285WAT     H291098   8.994   7.407   8.170
30286WAT      O91099   4.314   5.151   1.793
30286WAT     H191100   4.338   5.106   1.879
30286WAT     H291101   4.325   5.087   1.717
30287WAT      O91102   1.997   0.342   6.928
30287WAT     H191103   1.938   0.393   6.866
30287WAT     H291104   2.049   0.407   6.985
30288WAT      O91105   0.147   6.820   1.013
30288WAT     H191106   0.088   6.858   1.084
30288WAT     H291107   0.106   6.837   0.923
30289WAT      O91108   5.520   7.201   6.034
30289WAT     H191109   5.509   7.216   6.132
30289WAT     H291110   5.447   7.141   6.001
30290WAT      O91111   1.640   2.528   1.560
30290WAT     H191112   1.732   2.566   1.563
30290WAT     H291113   1.644   2.431   1.586
30291WAT      O91114   5.271   4.376   9.840
30291WAT     H191115   5.296   4.471   9.857
30291WAT     H291116   5.172   4.365   9.853
30292WAT      O91117   9.346   5.873   5.507
30292WAT     H191118   9.417   5.941   5.489
30292WAT     H291119   9.284   5.907   5.577
30293WAT      O91120   2.790   5.706   7.336
30293WAT     H191121   2.694   5.727   7.355
30293WAT     H291122   2.840   5.697   7.422
30294WAT      O91123   6.671   1.167   7.969
30294WAT     H191124   6.689   1.189   8.065
30294WAT     H291125   6.639   1.249   7.921
30295WAT      O91126   8.106   0.173   0.438
30295WAT     H191127   8.182   0.237   0.424
30295WAT     H291128   8.067   0.147   0.350
30296WAT      O91129   2.300   1.049   2.230
30296WAT     H191130   2.239   1.010   2.161
30296WAT     H291131   2.247   1.074   2.311
30297WAT      O91132   0.731   3.285   0.049
30297WAT     H191133   0.820   3.273   0.005
30297WAT     H291134   0.744   3.329   0.138
30298WAT      O91135   1.998   8.588   9.264
30298WAT     H191136   2.084   8.579   9.316
30298WAT     H291137   1.949   8.669   9.295
30299WAT      O91138   9.689   1.718   7.810
30299WAT     H191139   9.734   1.730   7.721
30299WAT     H291140   9.674   1.808   7.851
30300WAT      O91141   7.967   1.421   4.874
30300WAT     H191142   7.887   1.465   4.834
30300WAT     H291143   8.001   1.350   4.812
30301WAT      O91144   1.311   1.600   6.530
30301WAT     H191145   1.282   1.673   6.468
30301WAT     H291146   1.285   1.511   6.491
30302WAT      O91147   6.041   0.824   1.992
30302WAT     H191148   6.131   0.809   1.952
30302WAT     H291149   5.986   0.880   1.930
30303WAT      O91150   6.050   1.862   5.862
30303WAT     H191151   6.027   1.959   5.862
30303WAT     H291152   6.049   1.827   5.768
30304WAT      O91153   0.273   6.267   9.262
30304WAT     H191154   0.288   6.168   9.252
30304WAT     H291155   0.180   6.283   9.296
30305WAT      O91156   7.544   9.279   5.198
30305WAT     H191157   7.482   9.329   5.258
30305WAT     H291158   7.526   9.304   5.103
30306WAT      O91159   2.023   6.918   6.033
30306WAT     H191160   1.963   6.995   6.056
30306WAT     H291161   1.969   6.835   6.025
30307WAT      O91162   5.142   2.927   0.131
30307WAT     H191163   5.087   3.003   0.096
30307WAT     H291164   5.225   2.963   0.174
30308WAT      O91165   1.498   4.037   1.089
30308WAT     H191166   1.590   4.062   1.058
30308WAT     H291167   1.495   3.939   1.108
30309WAT      O91168   6.816   2.737   8.572
30309WAT     H191169   6.891   2.731   8.506
30309WAT     H291170   6.851   2.719   8.664
30310WAT      O91171   1.511   6.887   9.712
30310WAT     H191172   1.421   6.893   9.670
30310WAT     H291173   1.513   6.942   9.796
30311WAT      O91174   3.807   4.680   7.829
30311WAT     H191175   3.755   4.733   7.896
30311WAT     H291176   3.839   4.595   7.871
30312WAT      O91177   1.701   4.416   0.277
30312WAT     H191178   1.734   4.510   0.285
30312WAT     H291179   1.628   4.400   0.343
30313WAT      O91180   0.097   0.956   1.386
30313WAT     H191181   0.138   1.045   1.406
30313WAT     H291182   0.021   0.940   1.449
30314WAT      O91183   3.845   5.893   4.849
30314WAT     H191184   3.912   5.830   4.808
30314WAT     H291185   3.753   5.861   4.828
30315WAT      O91186   7.677   3.462   4.429
30315WAT     H191187   7.645   3.408   4.507
30315WAT     H291188   7.699   3.555   4.460
30316WAT      O91189   1.778   4.033   7.519
30316WAT     H191190   1.773   4.007   7.423
30316WAT     H291191   1.758   3.954   7.577
30317WAT      O91192   0.896   6.456   7.906
30317WAT     H191193   0.873   6.372   7.856
30317WAT     H291194   0.994   6.475   7.895
30318WAT      O91195   0.863   4.123   1.325
30318WAT     H191196   0.956   4.136   1.360
30318WAT     H291197   0.803   4.196   1.358
30319WAT      O91198   3.657   5.664   7.233
30319WAT     H191199   3.718   5.588   7.255
30319WAT     H291200   3.681   5.701   7.143
30320WAT      O91201   0.121   5.311   2.957
30320WAT     H191202   0.097   5.323   3.053
30320WAT     H291203   0.148   5.215   2.941
30321WAT      O91204   7.874   0.971   1.057
30321WAT     H191205   7.973   0.970   1.075
30321WAT     H291206   7.833   0.889   1.098
30322WAT      O91207   5.305   8.386   7.314
30322WAT     H191208   5.238   8.460   7.314
30322WAT     H291209   5.262   8.302   7.282
30323WAT      O91210   3.636   0.563   4.169
30323WAT     H191211   3.662   0.468   4.187
30323WAT     H291212   3.649   0.583   4.072
30324WAT      O91213   9.139   9.797   3.696
30324WAT     H191214   9.060   9.833   3.645
30324WAT     H291215   9.148   9.700   3.678
30325WAT      O91216   1.006   1.208   1.780
30325WAT     H191217   1.065   1.127   1.789
30325WAT     H291218   1.033   1.276   1.848
30326WAT      O91219   2.273   7.107   4.844
30326WAT     H191220   2.191   7.155   4.813
30326WAT     H291221   2.336   7.173   4.886
30327WAT      O91222   0.871   2.035   1.523
30327WAT     H191223   0.835   2.041   1.430
30327WAT     H291224   0.796   2.047   1.589
30328WAT      O91225   8.764   4.947   9.795
30328WAT     H191226   8.680   4.990   9.825
30328WAT     H291227   8.777   4.964   9.697
30329WAT      O91228   4.909   3.600   1.704
30329WAT     H191229   4.968   3.522   1.726
30329WAT     H291230   4.824   3.594   1.757
30330WAT      O91231   7.498   9.700   4.024
30330WAT     H191232   7.541   9.791   4.022
30330WAT     H291233   7.409   9.705   3.980
30331WAT      O91234   4.177   7.898   2.242
30331WAT     H191235   4.098   7.954   2.216
30331WAT     H291236   4.259   7.935   2.197
30332WAT      O91237   3.021   1.502   4.449
30332WAT     H191238   2.950   1.440   4.484
30332WAT     H291239   3.071   1.542   4.526
30333WAT      O91240   3.376   2.537   9.318
30333WAT     H191241   3.436   2.580   9.250
30333WAT     H291242   3.388   2.582   9.406
30334WAT      O91243   7.138   4.813   4.246
30334WAT     H191244   7.080   4.785   4.170
30334WAT     H291245   7.230   4.778   4.233
30335WAT      O91246   7.645   1.388   8.915
30335WAT     H191247   7.556   1.420   8.882
30335WAT     H291248   7.685   1.455   8.977
30336WAT      O91249   3.113   4.037   0.836
30336WAT     H191250   3.088   3.943   0.813
30336WAT     H291251   3.032   4.084   0.872
30337WAT      O91252   8.319   2.393   4.551
30337WAT     H191253   8.235   2.447   4.539
30337WAT     H291254   8.378   2.406   4.472
30338WAT      O91255   8.065   6.811   3.134
30338WAT     H191256   7.990   6.864   3.094
30338WAT     H291257   8.055   6.715   3.107
30339WAT      O91258   8.861   6.838   2.277
30339WAT     H191259   8.906   6.846   2.366
30339WAT     H291260   8.785   6.774   2.284
30340WAT      O91261   3.957   5.723   5.856
30340WAT     H191262   4.037   5.694   5.803
30340WAT     H291263   3.965   5.819   5.879
30341WAT      O91264   2.137   6.580   7.815
30341WAT     H191265   2.037   6.582   7.803
30341WAT     H291266   2.161   6.512   7.884
30342WAT      O91267   3.658   0.379   5.583
30342WAT     H191268   3.657   0.328   5.497
30342WAT     H291269   3.596   0.456   5.577
30343WAT      O91270   0.497   2.942   1.518
30343WAT     H191271   0.585   2.903   1.545
30343WAT     H291272   0.457   2.888   1.444
30344WAT      O91273   9.360   7.533   6.112
30344WAT     H191274   9.381   7.435   6.113
30344WAT     H291275   9.369   7.570   6.205
30345WAT      O91276   9.589   9.410   7.600
30345WAT     H191277   9.592   9.312   7.580
30345WAT     H291278   9.669   9.434   7.655
30346WAT      O91279   6.835   7.385   0.829
30346WAT     H191280   6.773   7.364   0.905
30346WAT     H291281   6.897   7.308   0.815
30347WAT      O91282   4.673   7.309   6.127
30347WAT     H191283   4.739   7.239   6.102
30347WAT     H291284   4.674   7.324   6.226
30348WAT      O91285   8.905   3.182   7.622
30348WAT     H191286   8.826   3.242   7.608
30348WAT     H291287   8.875   3.097   7.666
30349WAT      O91288   2.766   4.415   9.447
30349WAT     H191289   2.687   4.397   9.389
30349WAT     H291290   2.797   4.509   9.433
30350WAT      O91291   7.059   1.145   2.163
30350WAT     H191292   7.122   1.174   2.235
30350WAT     H291293   7.047   1.220   2.097
30351WAT      O91294   1.885   2.891   1.990
30351WAT     H191295   1.919   2.803   1.958
30351WAT     H291296   1.808   2.920   1.931
30352WAT      O91297   5.540   5.552   7.435
30352WAT     H191298   5.525   5.608   7.516
30352WAT     H291299   5.599   5.601   7.370
30353WAT      O91300   9.365   0.972   9.070
30353WAT     H191301   9.326   0.887   9.038
30353WAT     H291302   9.393   0.962   9.165
30354WAT      O91303   8.017   5.594   7.169
30354WAT     H191304   8.096   5.545   7.134
30354WAT     H291305   8.022   5.597   7.269
30355WAT      O91306   2.505   5.951   2.306
30355WAT     H191307   2.566   5.882   2.267
30355WAT     H291308   2.446   5.908   2.374
30356WAT      O91309   1.669   9.558   1.283
30356WAT     H191310   1.607   9.630   1.252
30356WAT     H291311   1.706   9.582   1.372
30357WAT      O91312   0.573   5.480   9.435
30357WAT     H191313   0.525   5.432   9.509
30357WAT     H291314   0.506   5.513   9.368
30358WAT      O91315   6.914   4.156   9.434
30358WAT     H191316   6.994   4.096   9.443
30358WAT     H291317   6.915   4.198   9.343
30359WAT      O91318   9.607   3.176   6.851
30359WAT     H191319   9.691   3.207   6.894
30359WAT     H291320   9.624   3.156   6.754
30360WAT      O91321   8.333   1.840   3.009
30360WAT     H191322   8.261   1.870   2.946
30360WAT     H291323   8.397   1.780   2.960
30361WAT      O91324   1.276   8.194   5.571
30361WAT     H191325   1.328   8.278   5.581
30361WAT     H291326   1.209   8.204   5.498
30362WAT      O91327   4.485   5.049   3.081
30362WAT     H191328   4.439   5.036   2.993
30362WAT     H291329   4.500   4.959   3.124
30363WAT      O91330   3.487   2.845   2.532
30363WAT     H191331   3.468   2.908   2.456
30363WAT     H291332   3.456   2.887   2.618
30364WAT      O91333   6.209   5.494   0.045
30364WAT     H191334   6.236   5.560   0.115
30364WAT     H291335   6.185   5.542  -0.039
30365WAT      O91336   1.448   2.902   9.111
30365WAT     H191337   1.400   2.949   9.037
30365WAT     H291338   1.410   2.811   9.123
30366WAT      O91339   6.280   2.209   7.003
30366WAT     H191340   6.288   2.110   7.007
30366WAT     H291341   6.292   2.240   6.909
30367WAT      O91342   8.961   0.094   2.383
30367WAT     H191343   9.046   0.071   2.430
30367WAT     H291344   8.976   0.173   2.323
30368WAT      O91345   9.860   6.801   3.088
30368WAT     H191346   9.887   6.729   3.151
30368WAT     H291347   9.882   6.774   2.994
30369WAT      O91348   1.465   0.769   2.325
30369WAT     H191349   1.477   0.762   2.225
30369WAT     H291350   1.370   0.748   2.349
30370WAT      O91351   3.402   8.572   0.364
30370WAT     H191352   3.418   8.519   0.281
30370WAT     H291353   3.320   8.629   0.351
30371WAT      O91354   0.655   6.604   4.412
30371WAT     H191355   0.699   6.601   4.322
30371WAT     H291356   0.725   6.597   4.483
30372WAT      O91357   9.645   8.923   3.556
30372WAT     H191358   9.570   8.861   3.534
30372WAT     H291359   9.733   8.878   3.537
30373WAT      O91360   0.160   0.946   0.899
30373WAT     H191361   0.180   0.872   0.835
30373WAT     H291362   0.109   0.910   0.977
30374WAT      O91363   0.368   0.549   0.820
30374WAT     H191364   0.342   0.466   0.770
30374WAT     H291365   0.386   0.525   0.916
30375WAT      O91366   8.913   4.338   3.572
30375WAT     H191367   8.834   4.396   3.552
30375WAT     H291368   8.980   4.348   3.498
30376WAT      O91369   7.919   8.041   6.062
30376WAT     H191370   7.889   7.980   5.988
30376WAT     H291371   7.981   7.991   6.123
30377WAT      O91372   2.692   9.112   8.963
30377WAT     H191373   2.704   9.204   8.926
30377WAT     H291374   2.776   9.084   9.010
30378WAT      O91375   4.762   0.022   5.743
30378WAT     H191376   4.677   0.073   5.728
30378WAT     H291377   4.799  -0.008   5.655
30379WAT      O91378   2.724   2.287   1.174
30379WAT     H191379   2.784   2.363   1.200
30379WAT     H291380   2.633   2.323   1.153
30380WAT      O91381   9.133   4.442   0.848
30380WAT     H191382   9.198   4.379   0.889
30380WAT     H291383   9.064   4.391   0.797
30381WAT      O91384   9.412   3.287   6.063
30381WAT     H191385   9.471   3.253   5.990
30381WAT     H291386   9.347   3.215   6.089
30382WAT      O91387   8.732   5.094   6.988
30382WAT     H191388   8.782   5.013   7.019
30382WAT     H291389   8.750   5.170   7.050
30383WAT      O91390   0.448   8.681   7.275
30383WAT     H191391   0.517   8.646   7.213
30383WAT     H291392   0.490   8.708   7.361
30384WAT      O91393   2.663   1.956   8.898
30384WAT     H191394   2.711   1.987   8.980
30384WAT     H291395   2.578   2.008   8.887
30385WAT      O91396   1.409   7.558   9.848
30385WAT     H191397   1.435   7.470   9.808
30385WAT     H291398   1.488   7.619   9.848
30386WAT      O91399   6.286   4.980   2.027
30386WAT     H191400   6.241   4.905   1.979
30386WAT     H291401   6.319   4.947   2.116
30387WAT      O91402   9.321   4.968   5.110
30387WAT     H191403   9.368   4.896   5.159
30387WAT     H291404   9.232   4.935   5.078
30388WAT      O91405   9.365   5.670   2.538
30388WAT     H191406   9.274   5.711   2.533
30388WAT     H291407   9.421   5.704   2.462
30389WAT      O91408   5.450   7.782   1.939
30389WAT     H191409   5.520   7.818   2.001
30389WAT     H291410   5.427   7.688   1.965
30390WAT      O91411   7.140   5.057   8.323
30390WAT     H191412   7.101   5.076   8.233
30390WAT     H291413   7.212   5.123   8.343
30391WAT      O91414   6.440   0.179   4.745
30391WAT     H191415   6.369   0.243   4.775
30391WAT     H291416   6.457   0.112   4.818
30392WAT      O91417   8.554   1.405   7.298
30392WAT     H191418   8.514   1.477   7.242
30392WAT     H291419   8.494   1.386   7.376
30393WAT      O91420   3.544   8.182   5.390
30393WAT     H191421   3.462   8.181   5.332
30393WAT     H291422   3.592   8.269   5.377
30394WAT      O91423   0.245   1.826   4.459
30394WAT     H191424   0.209   1.762   4.526
30394WAT     H291425   0.246   1.918   4.498
30395WAT      O91426   0.403   2.488   1.485
30395WAT     H191427   0.330   2.444   1.538
30395WAT     H291428   0.475   2.518   1.547
30396WAT      O91429   5.745   0.621   2.421
30396WAT     H191430   5.805   0.617   2.341
30396WAT     H291431   5.681   0.544   2.418
30397WAT      O91432   7.920   5.705   5.347
30397WAT     H191433   7.960   5.752   5.268
30397WAT     H291434   7.880   5.618   5.317
30398WAT      O91435   2.030   4.434   1.229
30398WAT     H191436   2.041   4.477   1.319
30398WAT     H291437   1.984   4.346   1.241
30399WAT      O91438   3.352   2.317   4.971
30399WAT     H191439   3.379   2.227   4.937
30399WAT     H291440   3.404   2.388   4.922
30400WAT      O91441   9.546   3.557   1.024
30400WAT     H191442   9.480   3.614   0.975
30400WAT     H291443   9.638   3.576   0.991
30401WAT      O91444   4.760   7.071   2.406
30401WAT     H191445   4.696   7.001   2.374
30401WAT     H291446   4.854   7.040   2.390
30402WAT      O91447   9.106   1.241   7.022
30402WAT     H191448   9.104   1.328   7.071
30402WAT     H291449   9.196   1.229   6.980
30403WAT      O91450   0.798   2.992   9.666
30403WAT     H191451   0.879   3.001   9.724
30403WAT     H291452   0.799   3.063   9.596
30404WAT      O91453   0.294   2.517   7.332
30404WAT     H191454   0.272   2.583   7.261
30404WAT     H291455   0.348   2.561   7.403
30405WAT      O91456   5.589   0.856   8.329
30405WAT     H191457   5.624   0.855   8.423
30405WAT     H291458   5.495   0.890   8.328
30406WAT      O91459   8.125   1.483   8.439
30406WAT     H191460   8.043   1.519   8.394
30406WAT     H291461   8.151   1.397   8.395
30407WAT      O91462   2.211   7.733   3.399
30407WAT     H191463   2.242   7.665   3.466
30407WAT     H291464   2.289   7.765   3.346
30408WAT      O91465   0.386   1.117   7.646
30408WAT     H191466   0.430   1.120   7.556
30408WAT     H291467   0.452   1.142   7.716
30409WAT      O91468   0.024   7.394   7.249
30409WAT     H191469  -0.010   7.377   7.156
30409WAT     H291470   0.124   7.396   7.247
30410WAT      O91471   6.414   5.859   9.682
30410WAT     H191472   6.513   5.847   9.677
30410WAT     H291473   6.392   5.933   9.746
30411WAT      O91474   8.211   1.916   0.796
30411WAT     H191475   8.278   1.988   0.812
30411WAT     H291476   8.123   1.944   0.834
30412WAT      O91477   3.489   3.091   5.640
30412WAT     H191478   3.416   3.155   5.662
30412WAT     H291479   3.495   3.021   5.711
30413WAT      O91480   1.888   8.381   9.168
30413WAT     H191481   1.939   8.321   9.106
30413WAT     H291482   1.939   8.466   9.183
30414WAT      O91483   4.845   9.080   7.039
30414WAT     H191484   4.801   9.170   7.037
30414WAT     H291485   4.934   9.085   6.993
30415WAT      O91486   2.066   3.766   3.642
30415WAT     H191487   2.069   3.793   3.545
30415WAT     H291488   2.037   3.671   3.649
30416WAT      O91489   0.627   8.450   3.806
30416WAT     H191490   0.670   8.506   3.736
30416WAT     H291491   0.628   8.354   3.778
30417WAT      O91492   9.022   2.450   6.991
30417WAT     H191493   8.942   2.409   7.036
30417WAT     H291494   9.069   2.380   6.937
30418WAT      O91495   9.580   3.874   3.854
30418WAT     H191496   9.485   3.884   3.824
30418WAT     H291497   9.594   3.926   3.938
30419WAT      O91498   5.805   4.660   2.560
30419WAT     H191499   5.735   4.632   2.494
30419WAT     H291500   5.883   4.698   2.510
30420WAT      O91501   3.264   2.283   5.453
30420WAT     H191502   3.301   2.301   5.544
30420WAT     H291503   3.164   2.283   5.457
30421WAT      O91504   1.696   1.616   8.532
30421WAT     H191505   1.688   1.692   8.469
30421WAT     H291506   1.650   1.638   8.618
30422WAT      O91507   0.644   4.312   3.360
30422WAT     H191508   0.568   4.372   3.384
30422WAT     H291509   0.730   4.356   3.386
30423WAT      O91510   8.222   4.154   3.441
30423WAT     H191511   8.139   4.184   3.394
30423WAT     H291512   8.203   4.074   3.497
30424WAT      O91513   7.619   8.976   6.828
30424WAT     H191514   7.569   8.895   6.797
30424WAT     H291515   7.705   8.983   6.776
30425WAT      O91516   6.898   4.263   0.660
30425WAT     H191517   6.814   4.249   0.608
30425WAT     H291518   6.890   4.345   0.716
30426WAT      O91519   7.289   6.226   2.082
30426WAT     H191520   7.219   6.163   2.116
30426WAT     H291521   7.257   6.270   1.998
30427WAT      O91522   3.248   3.512   1.223
30427WAT     H191523   3.332   3.472   1.184
30427WAT     H291524   3.170   3.453   1.203
30428WAT      O91525   7.063   6.210   0.589
30428WAT     H191526   7.036   6.124   0.547
30428WAT     H291527   7.054   6.202   0.689
30429WAT      O91528   8.377   2.078   4.798
30429WAT     H191529   8.412   1.985   4.793
30429WAT     H291530   8.453   2.143   4.797
30430WAT      O91531   2.326   5.306   2.833
30430WAT     H191532   2.239   5.327   2.878
30430WAT     H291533   2.370   5.229   2.880
30431WAT      O91534   5.835   3.273   9.109
30431WAT     H191535   5.904   3.308   9.173
30431WAT     H291536   5.771   3.215   9.158
30432WAT      O91537   8.162   1.377   5.253
30432WAT     H191538   8.231   1.435   5.295
30432WAT     H291539   8.206   1.306   5.199
30433WAT      O91540   2.936   1.997   7.717
30433WAT     H191541   3.021   1.958   7.751
30433WAT     H291542   2.861   1.980   7.781
30434WAT      O91543   5.171   5.962   3.368
30434WAT     H191544   5.092   6.020   3.387
30434WAT     H291545   5.141   5.878   3.323
30435WAT      O91546   1.306   7.041   4.544
30435WAT     H191547   1.361   7.035   4.627
30435WAT     H291548   1.343   7.113   4.485
30436WAT      O91549   6.339   5.593   9.677
30436WAT     H191550   6.384   5.677   9.708
30436WAT     H291551   6.251   5.616   9.635
30437WAT      O91552   8.569   8.187   6.938
30437WAT     H191553   8.538   8.256   6.873
30437WAT     H291554   8.668   8.181   6.937
30438WAT      O91555   7.237   1.029   4.388
30438WAT     H191556   7.160   0.985   4.342
30438WAT     H291557   7.209   1.120   4.419
30439WAT      O91558   0.806   2.440   0.445
30439WAT     H191559   0.796   2.522   0.502
30439WAT     H291560   0.735   2.440   0.375
30440WAT      O91561   1.891   5.016   9.539
30440WAT     H191562   1.919   4.921   9.557
30440WAT     H291563   1.913   5.039   9.444
30441WAT      O91564   5.526   8.179   2.079
30441WAT     H191565   5.519   8.185   1.979
30441WAT     H291566   5.559   8.088   2.105
30442WAT      O91567   0.939   3.702   5.794
30442WAT     H191568   1.008   3.774   5.799
30442WAT     H291569   0.883   3.715   5.712
30443WAT      O91570   2.534   3.799   9.382
30443WAT     H191571   2.467   3.780   9.311
30443WAT     H291572   2.593   3.874   9.353
30444WAT      O91573   6.770   1.349   5.285
30444WAT     H191574   6.776   1.345   5.185
30444WAT     H291575   6.704   1.281   5.317
30445WAT      O91576   0.040   6.422   1.890
30445WAT     H191577   0.019   6.511   1.931
30445WAT     H291578  -0.037   6.360   1.904
30446WAT      O91579   6.714   5.372   9.456
30446WAT     H191580   6.622   5.364   9.492
30446WAT     H291581   6.724   5.460   9.409
30447WAT      O91582   5.556   6.143   1.749
30447WAT     H191583   5.572   6.161   1.652
30447WAT     H291584   5.520   6.051   1.760
30448WAT      O91585   6.922   1.148   0.192
30448WAT     H191586   6.961   1.240   0.200
30448WAT     H291587   6.994   1.084   0.165
30449WAT      O91588   7.006   2.460   4.398
30449WAT     H191589   6.993   2.461   4.299
30449WAT     H291590   7.023   2.553   4.430
30450WAT      O91591   4.603   9.241   9.098
30450WAT     H191592   4.592   9.295   9.182
30450WAT     H291593   4.647   9.154   9.119
30451WAT      O91594   1.080   0.746   1.958
30451WAT     H191595   1.017   0.721   1.885
30451WAT     H291596   1.030   0.759   2.043
30452WAT      O91597   9.847   1.220   9.693
30452WAT     H191598   9.791   1.226   9.611
30452WAT     H291599   9.819   1.141   9.748
30453WAT      O91600   8.750   6.721   2.772
30453WAT     H191601   8.708   6.791   2.830
30453WAT     H291602   8.824   6.677   2.821
30454WAT      O91603   1.015   5.618   7.283
30454WAT     H191604   1.042   5.557   7.209
30454WAT     H291605   1.021   5.570   7.370
30455WAT      O91606   2.471   5.147   4.106
30455WAT     H191607   2.464   5.195   4.019
30455WAT     H291608   2.556   5.172   4.152
30456WAT      O91609   0.686   7.240   6.584
30456WAT     H191610   0.727   7.282   6.503
30456WAT     H291611   0.715   7.145   6.591
30457WAT      O91612   5.393   3.656   7.214
30457WAT     H191613   5.298   3.658   7.183
30457WAT     H291614   5.451   3.703   7.147
30458WAT      O91615   3.382   4.669   3.847
30458WAT     H191616   3.369   4.725   3.929
30458WAT     H291617   3.412   4.727   3.771
30459WAT      O91618   3.796   5.272   1.760
30459WAT     H191619   3.896   5.260   1.762
30459WAT     H291620   3.774   5.366   1.733
30460WAT      O91621   7.461   6.715   3.120
30460WAT     H191622   7.401   6.695   3.198
30460WAT     H291623   7.429   6.664   3.040
30461WAT      O91624   9.678   8.028   1.613
30461WAT     H191625   9.648   8.019   1.708
30461WAT     H291626   9.743   7.956   1.592
30462WAT      O91627   0.652   6.082   6.238
30462WAT     H191628   0.690   6.125   6.156
30462WAT     H291629   0.638   5.984   6.220
30463WAT      O91630   1.481   6.377   6.517
30463WAT     H191631   1.418   6.440   6.473
30463WAT     H291632   1.536   6.427   6.585
30464WAT      O91633   3.015   2.985   6.065
30464WAT     H191634   3.005   2.974   5.966
30464WAT     H291635   2.931   2.956   6.111
30465WAT      O91636   4.243   7.752   4.505
30465WAT     H191637   4.228   7.686   4.579
30465WAT     H291638   4.333   7.793   4.514
30466WAT      O91639   3.217   4.996   1.088
30466WAT     H191640   3.267   5.072   1.128
30466WAT     H291641   3.222   4.917   1.149
30467WAT      O91642   0.499   8.180   6.269
30467WAT     H191643   0.467   8.272   6.249
30467WAT     H291644   0.591   8.185   6.308
30468WAT      O91645   8.567   4.807   2.607
30468WAT     H191646   8.646   4.808   2.545
30468WAT     H291647   8.573   4.727   2.667
30469WAT      O91648   4.220   2.891   2.070
30469WAT     H191649   4.164   2.808   2.063
30469WAT     H291650   4.279   2.885   2.150
30470WAT      O91651   7.992   7.038   9.154
30470WAT     H191652   7.910   7.009   9.104
30470WAT     H291653   8.013   6.972   9.226
30471WAT      O91654   0.691   9.711   3.244
30471WAT     H191655   0.690   9.753   3.335
30471WAT     H291656   0.624   9.755   3.185
30472WAT      O91657   3.563   5.446   6.548
30472WAT     H191658   3.536   5.364   6.599
30472WAT     H291659   3.482   5.499   6.525
30473WAT      O91660   8.953   9.064   4.754
30473WAT     H191661   8.879   9.118   4.795
30473WAT     H291662   9.019   9.040   4.825
30474WAT      O91663   2.335   1.940   5.621
30474WAT     H191664   2.325   1.890   5.707
30474WAT     H291665   2.245   1.967   5.587
30475WAT      O91666   2.474   6.222   9.759
30475WAT     H191667   2.460   6.184   9.668
30475WAT     H291668   2.463   6.321   9.756
30476WAT      O91669   7.241   5.800   6.854
30476WAT     H191670   7.171   5.859   6.894
30476WAT     H291671   7.210   5.705   6.853
30477WAT      O91672   8.902   6.042   2.655
30477WAT     H191673   8.872   6.135   2.636
30477WAT     H291674   8.921   6.032   2.753
30478WAT      O91675   2.985   4.232   9.677
30478WAT     H191676   2.947   4.149   9.636
30478WAT     H291677   2.912   4.299   9.690
30479WAT      O91678   6.953   5.340   8.147
30479WAT     H191679   6.947   5.243   8.126
30479WAT     H291680   6.913   5.358   8.236
30480WAT      O91681   9.799   0.218   9.173
30480WAT     H191682   9.833   0.234   9.265
30480WAT     H291683   9.803   0.120   9.153
30481WAT      O91684   0.104   0.019   3.753
30481WAT     H191685   0.099   0.119   3.756
30481WAT     H291686   0.079  -0.014   3.662
30482WAT      O91687   4.045   8.043   2.915
30482WAT     H191688   3.987   8.124   2.923
30482WAT     H291689   3.989   7.961   2.924
30483WAT      O91690   9.757   2.866   3.572
30483WAT     H191691   9.696   2.942   3.551
30483WAT     H291692   9.769   2.809   3.490
30484WAT      O91693   9.502   9.480   4.705
30484WAT     H191694   9.508   9.389   4.748
30484WAT     H291695   9.590   9.526   4.712
30485WAT      O91696   0.557   0.826   0.357
30485WAT     H191697   0.574   0.919   0.323
30485WAT     H291698   0.599   0.760   0.296
30486WAT      O91699   3.115   8.549   5.589
30486WAT     H191700   3.202   8.513   5.556
30486WAT     H291701   3.041   8.488   5.561
30487WAT      O91702   3.932   3.375   0.254
30487WAT     H191703   3.855   3.324   0.293
30487WAT     H291704   4.017   3.324   0.270
30488WAT      O91705   8.320   4.219   7.395
30488WAT     H191706   8.277   4.263   7.474
30488WAT     H291707   8.418   4.208   7.412
30489WAT      O91708   2.954   8.807   0.366
30489WAT     H191709   2.947   8.863   0.449
30489WAT     H291710   2.892   8.729   0.374
30490WAT      O91711   6.399   1.791   8.684
30490WAT     H191712   6.421   1.790   8.586
30490WAT     H291713   6.346   1.709   8.707
30491WAT      O91714   2.700   0.066   2.380
30491WAT     H191715   2.682  -0.001   2.452
30491WAT     H291716   2.767   0.030   2.316
30492WAT      O91717   4.428   0.680   7.234
30492WAT     H191718   4.393   0.591   7.265
30492WAT     H291719   4.368   0.716   7.162
30493WAT      O91720   8.306   2.676   6.067
30493WAT     H191721   8.332   2.648   6.160
30493WAT     H291722   8.311   2.597   6.006
30494WAT      O91723   8.400   6.375   4.334
30494WAT     H191724   8.319   6.387   4.276
30494WAT     H291725   8.412   6.277   4.352
30495WAT      O91726   2.385   2.427   4.623
30495WAT     H191727   2.312   2.384   4.677
30495WAT     H291728   2.351   2.513   4.585
30496WAT      O91729   3.455   1.831   7.441
30496WAT     H191730   3.462   1.931   7.435
30496WAT     H291731   3.544   1.790   7.424
30497WAT      O91732   8.640   5.771   6.502
30497WAT     H191733   8.735   5.748   6.523
30497WAT     H291734   8.620   5.747   6.407
30498WAT      O91735   4.796   9.804   7.205
30498WAT     H191736   4.772   9.875   7.139
30498WAT     H291737   4.840   9.728   7.158
30499WAT      O91738   2.838   1.303   6.949
30499WAT     H191739   2.888   1.229   6.993
30499WAT     H291740   2.778   1.347   7.017
30500WAT      O91741   9.578   0.472   5.300
30500WAT     H191742   9.673   0.483   5.268
30500WAT     H291743   9.570   0.387   5.352
30501WAT      O91744   9.835   7.348   6.529
30501WAT     H191745   9.837   7.395   6.441
30501WAT     H291746   9.883   7.403   6.597
30502WAT      O91747   5.080   5.665   7.090
30502WAT     H191748   5.006   5.708   7.142
30502WAT     H291749   5.160   5.653   7.148
30503WAT      O91750   3.349   4.027   9.868
30503WAT     H191751   3.264   4.055   9.912
30503WAT     H291752   3.404   4.108   9.848
30504WAT      O91753   3.922   6.780   6.432
30504WAT     H191754   3.885   6.847   6.496
30504WAT     H291755   3.960   6.703   6.484
30505WAT      O91756   8.061   2.458   7.620
30505WAT     H191757   8.016   2.465   7.709
30505WAT     H291758   8.001   2.497   7.550
30506WAT      O91759   0.685   0.985   2.076
30506WAT     H191760   0.647   0.906   2.027
30506WAT     H291761   0.736   1.043   2.012
30507WAT      O91762   3.628   9.521   6.734
30507WAT     H191763   3.565   9.463   6.681
30507WAT     H291764   3.602   9.617   6.723
30508WAT      O91765   2.676   6.481   7.786
30508WAT     H191766   2.649   6.513   7.877
30508WAT     H291767   2.597   6.481   7.726
30509WAT      O91768   1.037   5.888   8.019
30509WAT     H191769   1.060   5.880   8.117
30509WAT     H291770   1.035   5.985   7.994
30510WAT      O91771   9.587   5.903   0.520
30510WAT     H191772   9.654   5.907   0.594
30510WAT     H291773   9.632   5.918   0.433
30511WAT      O91774   5.592   2.493   1.875
30511WAT     H191775   5.684   2.519   1.845
30511WAT     H291776   5.541   2.574   1.900
30512WAT      O91777   5.434   4.835   1.536
30512WAT     H191778   5.361   4.812   1.600
30512WAT     H291779   5.421   4.784   1.450
30513WAT      O91780   3.847   3.846   2.993
30513WAT     H191781   3.764   3.871   3.043
30513WAT     H291782   3.873   3.752   3.017
30514WAT      O91783   6.731   6.741   2.949
30514WAT     H191784   6.631   6.743   2.951
30514WAT     H291785   6.767   6.780   3.034
30515WAT      O91786   7.048   6.887   9.377
30515WAT     H191787   7.034   6.973   9.328
30515WAT     H291788   6.962   6.836   9.382
30516WAT      O91789   4.766   8.754   7.382
30516WAT     H191790   4.843   8.689   7.387
30516WAT     H291791   4.801   8.844   7.358
30517WAT      O91792   2.251   7.668   1.146
30517WAT     H191793   2.302   7.583   1.155
30517WAT     H291794   2.158   7.656   1.179
30518WAT      O91795   3.796   6.202   6.832
30518WAT     H191796   3.862   6.137   6.870
30518WAT     H291797   3.703   6.171   6.854
30519WAT      O91798   2.557   3.571   2.966
30519WAT     H191799   2.471   3.542   3.009
30519WAT     H291800   2.629   3.505   2.987
30520WAT      O91801   5.523   0.366   7.005
30520WAT     H191802   5.444   0.393   6.949
30520WAT     H291803   5.492   0.343   7.097
30521WAT      O91804   0.269   3.556   6.857
30521WAT     H191805   0.172   3.570   6.838
30521WAT     H291806   0.298   3.620   6.929
30522WAT      O91807   6.914   4.817   3.204
30522WAT     H191808   6.872   4.840   3.116
30522WAT     H291809   7.000   4.769   3.188
30523WAT      O91810   4.922   1.845   4.736
30523WAT     H191811   4.915   1.826   4.638
30523WAT     H291812   4.863   1.922   4.759
30524WAT      O91813   9.532   6.110   7.739
30524WAT     H191814   9.491   6.100   7.648
30524WAT     H291815   9.511   6.029   7.794
30525WAT      O91816   2.656   9.554   2.006
30525WAT     H191817   2.695   9.461   2.012
30525WAT     H291818   2.666   9.587   1.912
30526WAT      O91819   9.431   3.852   6.600
30526WAT     H191820   9.477   3.940   6.608
30526WAT     H291821   9.374   3.836   6.680
30527WAT      O91822   5.040   6.852   8.508
30527WAT     H191823   5.044   6.785   8.434
30527WAT     H291824   4.983   6.816   8.582
30528WAT      O91825   6.487   8.599   7.730
30528WAT     H191826   6.568   8.599   7.789
30528WAT     H291827   6.421   8.666   7.764
30529WAT      O91828   3.570   3.932   6.148
30529WAT     H191829   3.640   3.961   6.083
30529WAT     H291830   3.529   3.846   6.117
30530WAT      O91831   3.796   2.984   2.827
30530WAT     H191832   3.871   3.028   2.778
30530WAT     H291833   3.829   2.901   2.872
30531WAT      O91834   8.592   8.727   3.709
30531WAT     H191835   8.529   8.772   3.645
30531WAT     H291836   8.546   8.713   3.797
30532WAT      O91837   2.845   4.577   8.141
30532WAT     H191838   2.826   4.649   8.208
30532WAT     H291839   2.895   4.616   8.064
30533WAT      O91840   7.281   7.730   2.072
30533WAT     H191841   7.362   7.789   2.072
30533WAT     H291842   7.297   7.650   2.015
30534WAT      O91843   0.635   3.856   3.928
30534WAT     H191844   0.562   3.790   3.910
30534WAT     H291845   0.627   3.889   4.022
30535WAT      O91846   7.677   1.200   7.615
30535WAT     H191847   7.589   1.183   7.660
30535WAT     H291848   7.719   1.283   7.653
30536WAT      O91849   7.357   7.927   7.400
30536WAT     H191850   7.279   7.875   7.434
30536WAT     H291851   7.343   8.024   7.416
30537WAT      O91852   2.732   6.006   7.062
30537WAT     H191853   2.803   5.965   7.119
30537WAT     H291854   2.644   6.001   7.109
30538WAT      O91855   9.597   8.096   1.869
30538WAT     H191856   9.499   8.100   1.886
30538WAT     H291857   9.643   8.170   1.919
30539WAT      O91858   3.412   0.181   7.516
30539WAT     H191859   3.457   0.185   7.427
30539WAT     H291860   3.473   0.138   7.582
30540WAT      O91861   4.984   5.289   4.661
30540WAT     H191862   4.971   5.388   4.671
30540WAT     H291863   5.014   5.250   4.749
30541WAT      O91864   0.603   4.383   5.073
30541WAT     H191865   0.684   4.413   5.124
30541WAT     H291866   0.619   4.397   4.975
30542WAT      O91867   1.264   0.458   0.451
30542WAT     H191868   1.289   0.552   0.476
30542WAT     H291869   1.346   0.408   0.425
30543WAT      O91870   7.498   1.493   2.907
30543WAT     H191871   7.555   1.542   2.974
30543WAT     H291872   7.557   1.446   2.841
30544WAT      O91873   8.129   5.814   1.036
30544WAT     H191874   8.080   5.891   1.076
30544WAT     H291875   8.081   5.729   1.057
30545WAT      O91876   1.193   0.854   1.213
30545WAT     H191877   1.164   0.939   1.170
30545WAT     H291878   1.276   0.869   1.266
30546WAT      O91879   2.328   9.382   8.722
30546WAT     H191880   2.329   9.338   8.812
30546WAT     H291881   2.325   9.481   8.733
30547WAT      O91882   2.310   9.242   9.179
30547WAT     H191883   2.232   9.286   9.134
30547WAT     H291884   2.278   9.161   9.228
30548WAT      O91885   0.879   2.148   7.373
30548WAT     H191886   0.880   2.063   7.320
30548WAT     H291887   0.948   2.210   7.336
30549WAT      O91888   2.073   8.732   3.119
30549WAT     H191889   2.168   8.751   3.144
30549WAT     H291890   2.064   8.637   3.090
30550WAT      O91891   5.489   0.730   0.170
30550WAT     H191892   5.492   0.652   0.232
30550WAT     H291893   5.553   0.800   0.201
30551WAT      O91894   6.992   2.944   6.407
30551WAT     H191895   6.964   2.959   6.502
30551WAT     H291896   6.915   2.910   6.354
30552WAT      O91897   1.636   3.452   0.018
30552WAT     H191898   1.640   3.424  -0.078
30552WAT     H291899   1.694   3.392   0.072
30553WAT      O91900   9.388   0.954   1.577
30553WAT     H191901   9.314   1.001   1.530
30553WAT     H291902   9.351   0.893   1.647
30554WAT      O91903   2.748   9.110   6.609
30554WAT     H191904   2.708   9.151   6.527
30554WAT     H291905   2.722   9.165   6.689
30555WAT      O91906   4.559   1.640   5.861
30555WAT     H191907   4.584   1.605   5.770
30555WAT     H291908   4.602   1.729   5.875
30556WAT      O91909   3.713   2.153   4.221
30556WAT     H191910   3.616   2.132   4.236
30556WAT     H291911   3.741   2.225   4.284
30557WAT      O91912   8.331   9.819   6.470
30557WAT     H191913   8.252   9.842   6.527
30557WAT     H291914   8.384   9.902   6.454
30558WAT      O91915   2.025   4.255   2.569
30558WAT     H191916   2.014   4.271   2.471
30558WAT     H291917   2.113   4.291   2.600
30559WAT      O91918   2.480   0.582   1.813
30559WAT     H191919   2.431   0.554   1.896
30559WAT     H291920   2.500   0.680   1.818
30560WAT      O91921   1.654   9.419   2.260
30560WAT     H191922   1.725   9.384   2.199
30560WAT     H291923   1.582   9.463   2.206
30561WAT      O91924   2.897   9.101   5.298
30561WAT     H191925   2.927   9.141   5.385
30561WAT     H291926   2.907   9.001   5.302
30562WAT      O91927   9.477   5.409   2.545
30562WAT     H191928   9.503   5.350   2.621
30562WAT     H291929   9.444   5.496   2.580
30563WAT      O91930   9.197   4.454   8.531
30563WAT     H191931   9.211   4.427   8.627
30563WAT     H291932   9.280   4.497   8.496
30564WAT      O91933   2.581   8.113   2.777
30564WAT     H191934   2.605   8.051   2.703
30564WAT     H291935   2.486   8.099   2.804
30565WAT      O91936   0.545   2.426   6.657
30565WAT     H191937   0.498   2.341   6.677
30565WAT     H291938   0.490   2.503   6.689
30566WAT      O91939   1.554   7.449   5.537
30566WAT     H191940   1.641   7.425   5.495
30566WAT     H291941   1.545   7.549   5.542
30567WAT      O91942   6.335   4.790   5.883
30567WAT     H191943   6.351   4.889   5.892
30567WAT     H291944   6.283   4.758   5.962
30568WAT      O91945   1.294   8.373   8.559
30568WAT     H191946   1.240   8.453   8.586
30568WAT     H291947   1.300   8.310   8.637
30569WAT      O91948   2.439   3.203   5.599
30569WAT     H191949   2.341   3.214   5.587
30569WAT     H291950   2.463   3.216   5.696
30570WAT      O91951   8.369   7.413   8.097
30570WAT     H191952   8.292   7.474   8.113
30570WAT     H291953   8.352   7.360   8.013
30571WAT      O91954   2.510   1.916   2.735
30571WAT     H191955   2.596   1.904   2.784
30571WAT     H291956   2.520   1.883   2.642
30572WAT      O91957   9.879   7.766   3.535
30572WAT     H191958   9.945   7.802   3.601
30572WAT     H291959   9.889   7.816   3.449
30573WAT      O91960   7.682   6.243   4.551
30573WAT     H191961   7.770   6.287   4.530
30573WAT     H291962   7.608   6.306   4.528
30574WAT      O91963   5.625   8.111   4.851
30574WAT     H191964   5.667   8.122   4.941
30574WAT     H291965   5.670   8.036   4.803
30575WAT      O91966   0.112   6.489   5.046
30575WAT     H191967   0.123   6.445   5.136
30575WAT     H291968   0.022   6.532   5.041
30576WAT      O91969   5.789   0.354   0.732
30576WAT     H191970   5.707   0.384   0.685
30576WAT     H291971   5.764   0.295   0.810
30577WAT      O91972   7.423   0.987   0.206
30577WAT     H191973   7.426   1.083   0.180
30577WAT     H291974   7.367   0.936   0.140
30578WAT      O91975   1.626   9.392   2.917
30578WAT     H191976   1.571   9.310   2.928
30578WAT     H291977   1.704   9.372   2.857
30579WAT      O91978   4.268   1.595   7.396
30579WAT     H191979   4.357   1.593   7.440
30579WAT     H291980   4.200   1.631   7.460
30580WAT      O91981   4.055   7.635   7.334
30580WAT     H191982   4.111   7.677   7.262
30580WAT     H291983   3.987   7.701   7.366
30581WAT      O91984   4.634   3.737   4.856
30581WAT     H191985   4.644   3.783   4.767
30581WAT     H291986   4.638   3.806   4.928
30582WAT      O91987   3.240   1.972   4.063
30582WAT     H191988   3.261   2.030   3.985
30582WAT     H291989   3.143   1.980   4.086
30583WAT      O91990   2.588   5.134   0.459
30583WAT     H191991   2.579   5.067   0.385
30583WAT     H291992   2.519   5.114   0.529
30584WAT      O91993   4.878   9.167   1.019
30584WAT     H191994   4.850   9.263   1.025
30584WAT     H291995   4.847   9.117   1.100
30585WAT      O91996   7.856   7.889   1.864
30585WAT     H191997   7.911   7.970   1.844
30585WAT     H291998   7.911   7.823   1.916
30586WAT      O91999   5.069   5.781   2.496
30586WAT     H192000   5.024   5.724   2.427
30586WAT     H292001   5.000   5.826   2.552
30587WAT      O92002   9.071   7.466   7.063
30587WAT     H192003   9.120   7.437   7.145
30587WAT     H292004   9.133   7.517   7.004
30588WAT      O92005   8.614   8.915   0.753
30588WAT     H192006   8.518   8.945   0.754
30588WAT     H292007   8.673   8.994   0.773
30589WAT      O92008   1.493   0.769   2.063
30589WAT     H192009   1.438   0.829   2.004
30589WAT     H292010   1.581   0.750   2.019
30590WAT      O92011   2.662   5.708   2.589
30590WAT     H192012   2.616   5.786   2.545
30590WAT     H292013   2.654   5.716   2.688
30591WAT      O92014   7.797   1.134   8.966
30591WAT     H192015   7.859   1.113   8.890
30591WAT     H292016   7.743   1.215   8.943
30592WAT      O92017   0.466   7.333   5.854
30592WAT     H192018   0.506   7.379   5.933
30592WAT     H292019   0.367   7.345   5.854
30593WAT      O92020   3.916   0.960   0.219
30593WAT     H192021   3.848   0.938   0.289
30593WAT     H292022   3.976   0.881   0.205
30594WAT      O92023   2.020   4.778   5.393
30594WAT     H192024   1.971   4.702   5.351
30594WAT     H292025   2.076   4.825   5.325
30595WAT      O92026   7.574   3.536   1.891
30595WAT     H192027   7.664   3.499   1.867
30595WAT     H292028   7.586   3.616   1.950
30596WAT      O92029   1.668   6.051   4.599
30596WAT     H192030   1.745   6.115   4.602
30596WAT     H292031   1.688   5.979   4.532
30597WAT      O92032   5.951   7.025   1.494
30597WAT     H192033   5.899   7.095   1.543
30597WAT     H292034   5.916   6.935   1.517
30598WAT      O92035   3.467   7.603   9.484
30598WAT     H192036   3.435   7.538   9.553
30598WAT     H292037   3.456   7.696   9.519
30599WAT      O92038   1.563   1.840   2.295
30599WAT     H192039   1.623   1.876   2.365
30599WAT     H292040   1.488   1.789   2.337
30600WAT      O92041   5.408   4.923   5.675
30600WAT     H192042   5.480   4.992   5.678
30600WAT     H292043   5.398   4.881   5.765
30601WAT      O92044   1.116   6.140   7.273
30601WAT     H192045   1.184   6.200   7.231
30601WAT     H292046   1.024   6.166   7.243
30602WAT      O92047   7.792   8.733   3.143
30602WAT     H192048   7.829   8.826   3.150
30602WAT     H292049   7.693   8.736   3.154
30603WAT      O92050   0.981   5.920   6.119
30603WAT     H192051   0.972   6.017   6.140
30603WAT     H292052   1.024   5.909   6.030
30604WAT      O92053   0.514   0.300   2.502
30604WAT     H192054   0.466   0.315   2.588
30604WAT     H292055   0.612   0.307   2.516
30605WAT      O92056   3.723   9.093   9.718
30605WAT     H192057   3.673   9.170   9.677
30605WAT     H292058   3.777   9.047   9.648
30606WAT      O92059   7.844   7.967   3.099
30606WAT     H192060   7.888   8.056   3.112
30606WAT     H292061   7.745   7.976   3.115
30607WAT      O92062   2.973   0.842   8.912
30607WAT     H192063   3.017   0.925   8.945
30607WAT     H292064   2.884   0.865   8.872
30608WAT      O92065   1.023   3.753   0.235
30608WAT     H192066   1.076   3.706   0.306
30608WAT     H292067   1.074   3.834   0.205
30609WAT      O92068   8.838   1.458   3.636
30609WAT     H192069   8.903   1.396   3.679
30609WAT     H292070   8.831   1.542   3.691
30610WAT      O92071   3.515   2.115   0.498
30610WAT     H192072   3.556   2.051   0.564
30610WAT     H292073   3.473   2.063   0.423
30611WAT      O92074   0.479   7.928   1.371
30611WAT     H192075   0.542   7.971   1.436
30611WAT     H292076   0.517   7.841   1.340
30612WAT      O92077   6.265   8.134   3.046
30612WAT     H192078   6.295   8.119   2.952
30612WAT     H292079   6.254   8.232   3.063
30613WAT      O92080   4.595   9.278   1.315
30613WAT     H192081   4.591   9.334   1.397
30613WAT     H292082   4.570   9.333   1.235
30614WAT      O92083   6.149   1.572   9.810
30614WAT     H192084   6.106   1.485   9.787
30614WAT     H292085   6.242   1.555   9.844
30615WAT      O92086   7.105   6.431   8.986
30615WAT     H192087   7.027   6.385   8.945
30615WAT     H292088   7.154   6.483   8.916
30616WAT      O92089   7.567   1.837   4.217
30616WAT     H192090   7.502   1.822   4.142
30616WAT     H292091   7.660   1.836   4.181
30617WAT      O92092   9.099   3.378   3.135
30617WAT     H192093   9.077   3.463   3.087
30617WAT     H292094   9.101   3.396   3.234
30618WAT      O92095   9.835   8.450   7.244
30618WAT     H192096   9.829   8.545   7.273
30618WAT     H292097   9.788   8.438   7.156
30619WAT      O92098   0.648   4.027   2.830
30619WAT     H192099   0.735   4.034   2.879
30619WAT     H292100   0.627   4.115   2.787
30620WAT      O92101   7.646   9.747   7.428
30620WAT     H192102   7.639   9.655   7.467
30620WAT     H292103   7.595   9.812   7.486
30621WAT      O92104   2.033   4.945   3.241
30621WAT     H192105   1.960   4.886   3.276
30621WAT     H292106   2.117   4.891   3.230
30622WAT      O92107   7.435   9.283   9.518
30622WAT     H192108   7.500   9.210   9.536
30622WAT     H292109   7.468   9.339   9.442
30623WAT      O92110   2.703   5.679   0.784
30623WAT     H192111   2.735   5.771   0.760
30623WAT     H292112   2.730   5.658   0.878
30624WAT      O92113   5.705   0.930   0.232
30624WAT     H192114   5.737   0.935   0.326
30624WAT     H292115   5.770   0.876   0.178
30625WAT      O92116   9.125   7.374   3.838
30625WAT     H192117   9.143   7.437   3.763
30625WAT     H292118   9.027   7.360   3.848
30626WAT      O92119   9.462   6.033   4.710
30626WAT     H192120   9.503   5.964   4.650
30626WAT     H292121   9.498   6.123   4.687
30627WAT      O92122   0.465   3.890   5.769
30627WAT     H192123   0.421   3.808   5.735
30627WAT     H292124   0.553   3.867   5.809
30628WAT      O92125   5.954   9.200   0.233
30628WAT     H192126   6.036   9.200   0.176
30628WAT     H292127   5.898   9.280   0.212
30629WAT      O92128   6.104   1.740   0.463
30629WAT     H192129   6.042   1.786   0.527
30629WAT     H292130   6.123   1.648   0.496
30630WAT      O92131   4.097   5.399   6.644
30630WAT     H192132   4.008   5.438   6.668
30630WAT     H292133   4.099   5.380   6.546
30631WAT      O92134   2.285   5.389   8.339
30631WAT     H192135   2.298   5.337   8.423
30631WAT     H292136   2.209   5.453   8.351
30632WAT      O92137   5.811   8.275   6.520
30632WAT     H192138   5.721   8.308   6.550
30632WAT     H292139   5.813   8.267   6.421
30633WAT      O92140   5.041   1.825   1.471
30633WAT     H192141   5.057   1.730   1.443
30633WAT     H292142   5.128   1.872   1.483
30634WAT      O92143   6.325   5.732   1.489
30634WAT     H192144   6.300   5.682   1.572
30634WAT     H292145   6.274   5.695   1.411
30635WAT      O92146   0.272   2.226   7.226
30635WAT     H192147   0.249   2.219   7.129
30635WAT     H292148   0.299   2.320   7.247
30636WAT      O92149   1.782   6.626   3.993
30636WAT     H192150   1.718   6.596   3.922
30636WAT     H292151   1.731   6.662   4.071
30637WAT      O92152   3.937   6.515   3.136
30637WAT     H192153   3.923   6.440   3.201
30637WAT     H292154   3.960   6.598   3.186
30638WAT      O92155   3.487   9.568   6.992
30638WAT     H192156   3.415   9.634   6.975
30638WAT     H292157   3.540   9.554   6.908
30639WAT      O92158   3.242   7.144   7.266
30639WAT     H192159   3.182   7.200   7.209
30639WAT     H292160   3.285   7.201   7.336
30640WAT      O92161   4.359   9.274   3.558
30640WAT     H192162   4.265   9.274   3.592
30640WAT     H292163   4.358   9.290   3.459
30641WAT      O92164   6.235   5.975   3.786
30641WAT     H192165   6.279   5.886   3.801
30641WAT     H292166   6.280   6.022   3.710
30642WAT      O92167   7.001   3.086   4.270
30642WAT     H192168   7.070   3.042   4.213
30642WAT     H292169   6.915   3.092   4.218
30643WAT      O92170   1.033   7.023   4.215
30643WAT     H192171   1.022   7.100   4.278
30643WAT     H292172   1.013   7.053   4.122
30644WAT      O92173   2.616   2.899   8.593
30644WAT     H192174   2.607   2.882   8.495
30644WAT     H292175   2.712   2.905   8.617
30645WAT      O92176   0.823   2.140   2.044
30645WAT     H192177   0.810   2.193   1.961
30645WAT     H292178   0.737   2.134   2.095
30646WAT      O92179   6.904   6.291   8.869
30646WAT     H192180   6.820   6.339   8.843
30646WAT     H292181   6.880   6.206   8.917
30647WAT      O92182   7.999   0.386   6.544
30647WAT     H192183   8.064   0.325   6.590
30647WAT     H292184   8.040   0.422   6.461
30648WAT      O92185   1.204   4.986   3.121
30648WAT     H192186   1.149   5.001   3.039
30648WAT     H292187   1.205   4.889   3.144
30649WAT      O92188   5.734   8.559   9.557
30649WAT     H192189   5.764   8.607   9.640
30649WAT     H292190   5.787   8.474   9.547
30650WAT      O92191   3.238   5.535   8.312
30650WAT     H192192   3.149   5.552   8.354
30650WAT     H292193   3.297   5.615   8.325
30651WAT      O92194   1.371   8.692   0.151
30651WAT     H192195   1.466   8.724   0.148
30651WAT     H292196   1.317   8.754   0.208
30652WAT      O92197   5.816   0.551   0.023
30652WAT     H192198   5.906   0.538  -0.018
30652WAT     H292199   5.817   0.518   0.117
30653WAT      O92200   6.611   9.385   5.194
30653WAT     H192201   6.610   9.430   5.104
30653WAT     H292202   6.678   9.311   5.194
30654WAT      O92203   9.664   3.817   2.582
30654WAT     H192204   9.742   3.756   2.569
30654WAT     H292205   9.622   3.839   2.494
30655WAT      O92206   0.067   3.636   5.537
30655WAT     H192207   0.072   3.715   5.598
30655WAT     H292208   0.019   3.562   5.583
30656WAT      O92209   1.203   9.455   8.072
30656WAT     H192210   1.292   9.410   8.067
30656WAT     H292211   1.178   9.490   7.981
30657WAT      O92212   2.028   5.769   6.886
30657WAT     H192213   2.113   5.777   6.835
30657WAT     H292214   1.953   5.806   6.831
30658WAT      O92215   2.538   1.425   1.412
30658WAT     H192216   2.446   1.397   1.439
30658WAT     H292217   2.602   1.402   1.485
30659WAT      O92218   3.241   0.813   6.046
30659WAT     H192219   3.210   0.834   6.139
30659WAT     H292220   3.337   0.786   6.048
30660WAT      O92221   6.127   2.634   4.153
30660WAT     H192222   6.142   2.653   4.250
30660WAT     H292223   6.110   2.720   4.105
30661WAT      O92224   5.074   0.509   1.709
30661WAT     H192225   5.016   0.583   1.676
30661WAT     H292226   5.020   0.426   1.721
30662WAT      O92227   7.079   0.096   8.932
30662WAT     H192228   7.172   0.106   8.895
30662WAT     H292229   7.083   0.102   9.031
30663WAT      O92230   1.663   2.286   9.715
30663WAT     H192231   1.617   2.205   9.678
30663WAT     H292232   1.601   2.364   9.710
30664WAT      O92233   5.872   7.680   8.655
30664WAT     H192234   5.898   7.585   8.637
30664WAT     H292235   5.944   7.740   8.621
30665WAT      O92236   9.707   6.602   2.762
30665WAT     H192237   9.630   6.615   2.823
30665WAT     H292238   9.779   6.549   2.809
30666WAT      O92239   7.255   4.673   0.613
30666WAT     H192240   7.161   4.644   0.594
30666WAT     H292241   7.319   4.615   0.563
30667WAT      O92242   1.655   3.985   5.158
30667WAT     H192243   1.643   4.009   5.254
30667WAT     H292244   1.639   3.887   5.145
30668WAT      O92245   5.631   7.772   3.623
30668WAT     H192246   5.592   7.815   3.704
30668WAT     H292247   5.583   7.686   3.604
30669WAT      O92248   3.467   7.244   4.850
30669WAT     H192249   3.479   7.145   4.841
30669WAT     H292250   3.488   7.272   4.944
30670WAT      O92251   5.069   8.230   2.193
30670WAT     H192252   5.012   8.202   2.115
30670WAT     H292253   5.154   8.271   2.158
30671WAT      O92254   7.111   4.749   2.124
30671WAT     H192255   7.068   4.832   2.089
30671WAT     H292256   7.087   4.672   2.066
30672WAT      O92257   7.585   0.106   4.323
30672WAT     H192258   7.585   0.015   4.365
30672WAT     H292259   7.500   0.120   4.272
30673WAT      O92260   8.450   3.102   8.554
30673WAT     H192261   8.475   3.021   8.501
30673WAT     H292262   8.356   3.127   8.533
30674WAT      O92263   2.898   4.213   7.338
30674WAT     H192264   2.830   4.154   7.295
30674WAT     H292265   2.877   4.309   7.315
30675WAT      O92266   2.662   6.311   0.844
30675WAT     H192267   2.691   6.283   0.935
30675WAT     H292268   2.693   6.244   0.777
30676WAT      O92269   0.967   0.890   3.094
30676WAT     H192270   0.941   0.975   3.047
30676WAT     H292271   0.887   0.854   3.143
30677WAT      O92272   1.399   2.222   4.470
30677WAT     H192273   1.346   2.296   4.511
30677WAT     H292274   1.342   2.139   4.465
30678WAT      O92275   5.446   7.135   2.242
30678WAT     H192276   5.388   7.147   2.161
30678WAT     H292277   5.388   7.120   2.322
30679WAT      O92278   0.875   4.338   6.291
30679WAT     H192279   0.816   4.266   6.327
30679WAT     H292280   0.819   4.405   6.242
30680WAT      O92281   4.413   7.217   0.812
30680WAT     H192282   4.413   7.122   0.779
30680WAT     H292283   4.320   7.242   0.838
30681WAT      O92284   4.615   0.766   9.066
30681WAT     H192285   4.562   0.840   9.025
30681WAT     H292286   4.585   0.679   9.029
30682WAT      O92287   7.978   2.918   5.078
30682WAT     H192288   7.915   2.937   5.003
30682WAT     H292289   8.053   2.984   5.077
30683WAT      O92290   4.050   3.575   9.508
30683WAT     H192291   4.114   3.648   9.533
30683WAT     H292292   4.094   3.486   9.525
30684WAT      O92293   3.687   3.630   0.676
30684WAT     H192294   3.653   3.710   0.626
30684WAT     H292295   3.706   3.656   0.771
30685WAT      O92296   8.155   2.809   3.107
30685WAT     H192297   8.126   2.899   3.141
30685WAT     H292298   8.107   2.737   3.156
30686WAT      O92299   8.753   7.775   9.722
30686WAT     H192300   8.841   7.799   9.762
30686WAT     H292301   8.759   7.684   9.682
30687WAT      O92302   4.866   4.507   5.554
30687WAT     H192303   4.926   4.442   5.599
30687WAT     H292304   4.856   4.483   5.457
30688WAT      O92305   8.207   7.937   6.815
30688WAT     H192306   8.306   7.929   6.821
30688WAT     H292307   8.183   7.983   6.729
30689WAT      O92308   3.857   9.397   9.220
30689WAT     H192309   3.778   9.403   9.281
30689WAT     H292310   3.841   9.325   9.152
30690WAT      O92311   8.020   4.488   3.508
30690WAT     H192312   8.039   4.545   3.428
30690WAT     H292313   8.099   4.489   3.569
30691WAT      O92314   4.005   3.225   8.328
30691WAT     H192315   4.103   3.224   8.310
30691WAT     H292316   3.966   3.309   8.290
30692WAT      O92317   2.549   1.840   4.969
30692WAT     H192318   2.516   1.918   5.023
30692WAT     H292319   2.532   1.857   4.872
30693WAT      O92320   5.510   7.543   9.369
30693WAT     H192321   5.604   7.522   9.399
30693WAT     H292322   5.513   7.593   9.283
30694WAT      O92323   8.135   2.832   6.399
30694WAT     H192324   8.188   2.879   6.328
30694WAT     H292325   8.039   2.859   6.391
30695WAT      O92326   4.926   1.736   8.082
30695WAT     H192327   4.966   1.827   8.087
30695WAT     H292328   4.868   1.729   8.001
30696WAT      O92329   7.638   0.279   1.083
30696WAT     H192330   7.717   0.274   1.144
30696WAT     H292331   7.567   0.336   1.125
30697WAT      O92332   8.424   0.724   8.356
30697WAT     H192333   8.401   0.820   8.342
30697WAT     H292334   8.442   0.681   8.268
30698WAT      O92335   4.420   3.216   4.840
30698WAT     H192336   4.405   3.149   4.912
30698WAT     H292337   4.384   3.181   4.753
30699WAT      O92338   3.297   4.480   5.571
30699WAT     H192339   3.243   4.556   5.609
30699WAT     H292340   3.366   4.452   5.638
30700WAT      O92341   3.029   4.959   3.953
30700WAT     H192342   3.033   4.884   4.019
30700WAT     H292343   3.085   4.936   3.873
30701WAT      O92344   0.839   0.664   0.284
30701WAT     H192345   0.777   0.587   0.292
30701WAT     H292346   0.857   0.683   0.187
30702WAT      O92347   7.453   9.346   1.336
30702WAT     H192348   7.504   9.382   1.258
30702WAT     H292349   7.516   9.327   1.412
30703WAT      O92350   4.576   1.846   4.561
30703WAT     H192351   4.640   1.911   4.601
30703WAT     H292352   4.487   1.889   4.550
30704WAT      O92353   8.706   4.730   0.578
30704WAT     H192354   8.649   4.812   0.572
30704WAT     H292355   8.690   4.672   0.498
30705WAT      O92356   8.110   2.730   2.840
30705WAT     H192357   8.163   2.746   2.923
30705WAT     H292358   8.063   2.814   2.814
30706WAT      O92359   1.159   3.889   3.906
30706WAT     H192360   1.248   3.881   3.951
30706WAT     H292361   1.101   3.813   3.934
30707WAT      O92362   9.407   7.016   4.176
30707WAT     H192363   9.339   7.005   4.249
30707WAT     H292364   9.477   7.080   4.206
30708WAT      O92365   4.196   6.203   2.005
30708WAT     H192366   4.126   6.223   2.074
30708WAT     H292367   4.256   6.282   1.994
30709WAT      O92368   8.047   2.196   6.923
30709WAT     H192369   8.007   2.288   6.932
30709WAT     H292370   8.042   2.168   6.827
30710WAT      O92371   3.716   7.148   9.849
30710WAT     H192372   3.674   7.200   9.924
30710WAT     H292373   3.809   7.182   9.833
30711WAT      O92374   0.109   7.795   7.696
30711WAT     H192375   0.085   7.740   7.616
30711WAT     H292376   0.054   7.878   7.697
30712WAT      O92377   3.630   7.940   7.458
30712WAT     H192378   3.603   7.937   7.554
30712WAT     H292379   3.548   7.932   7.401
30713WAT      O92380   4.393   3.394   7.493
30713WAT     H192381   4.468   3.389   7.427
30713WAT     H292382   4.404   3.321   7.561
30714WAT      O92383   2.436   8.115   9.273
30714WAT     H192384   2.456   8.065   9.188
30714WAT     H292385   2.522   8.149   9.312
30715WAT      O92386   6.759   7.829   4.998
30715WAT     H192387   6.825   7.897   5.029
30715WAT     H292388   6.795   7.737   5.017
30716WAT      O92389   4.091   0.782   9.358
30716WAT     H192390   4.143   0.745   9.280
30716WAT     H292391   4.155   0.818   9.426
30717WAT      O92392   9.070   5.895   5.837
30717WAT     H192393   9.098   5.991   5.826
30717WAT     H292394   9.001   5.872   5.769
30718WAT      O92395   6.221   4.735   6.923
30718WAT     H192396   6.145   4.677   6.893
30718WAT     H292397   6.306   4.700   6.885
30719WAT      O92398   0.512   3.257   5.659
30719WAT     H192399   0.546   3.244   5.752
30719WAT     H292400   0.525   3.353   5.632
30720WAT      O92401   5.894   4.309   7.583
30720WAT     H192402   5.815   4.371   7.577
30720WAT     H292403   5.928   4.290   7.491
30721WAT      O92404   3.461   8.823   4.980
30721WAT     H192405   3.395   8.896   4.964
30721WAT     H292406   3.462   8.798   5.077
30722WAT      O92407   6.876   3.423   1.572
30722WAT     H192408   6.956   3.381   1.614
30722WAT     H292409   6.886   3.523   1.575
30723WAT      O92410   9.707   2.889   6.516
30723WAT     H192411   9.629   2.846   6.559
30723WAT     H292412   9.683   2.915   6.422
30724WAT      O92413   0.397   6.833   6.726
30724WAT     H192414   0.345   6.918   6.732
30724WAT     H292415   0.490   6.848   6.761
30725WAT      O92416   7.149   3.214   7.826
30725WAT     H192417   7.128   3.311   7.815
30725WAT     H292418   7.185   3.177   7.741
30726WAT      O92419   2.658   3.905   8.324
30726WAT     H192420   2.738   3.921   8.383
30726WAT     H292421   2.574   3.920   8.377
30727WAT      O92422   5.712   4.536   9.152
30727WAT     H192423   5.798   4.559   9.198
30727WAT     H292424   5.732   4.497   9.062
30728WAT      O92425   1.850   9.431   3.153
30728WAT     H192426   1.753   9.428   3.128
30728WAT     H292427   1.900   9.487   3.087
30729WAT      O92428   0.513   7.462   3.919
30729WAT     H192429   0.553   7.437   4.007
30729WAT     H292430   0.586   7.495   3.858
30730WAT      O92431   0.821   8.656   2.496
30730WAT     H192432   0.832   8.569   2.545
30730WAT     H292433   0.824   8.731   2.562
30731WAT      O92434   2.871   9.428   3.256
30731WAT     H192435   2.814   9.346   3.249
30731WAT     H292436   2.919   9.442   3.169
30732WAT      O92437   3.858   1.039   6.973
30732WAT     H192438   3.765   1.003   6.970
30732WAT     H292439   3.918   0.985   6.914
30733WAT      O92440   9.725   3.222   4.642
30733WAT     H192441   9.762   3.133   4.668
30733WAT     H292442   9.626   3.215   4.631
30734WAT      O92443   9.568   4.453   8.180
30734WAT     H192444   9.537   4.441   8.086
30734WAT     H292445   9.602   4.366   8.216
30735WAT      O92446   4.974   4.988   2.579
30735WAT     H192447   5.040   5.034   2.520
30735WAT     H292448   5.007   4.897   2.602
30736WAT      O92449   1.902   2.141   4.030
30736WAT     H192450   1.892   2.097   4.119
30736WAT     H292451   1.998   2.146   4.005
30737WAT      O92452   6.496   4.065   4.431
30737WAT     H192453   6.509   3.983   4.487
30737WAT     H292454   6.487   4.038   4.335
30738WAT      O92455   4.164   8.980   8.311
30738WAT     H192456   4.126   8.927   8.386
30738WAT     H292457   4.103   8.975   8.232
30739WAT      O92458   7.340   1.087   8.010
30739WAT     H192459   7.411   1.110   8.076
30739WAT     H292460   7.364   1.123   7.920
30740WAT      O92461   5.142   2.040   5.366
30740WAT     H192462   5.072   2.111   5.376
30740WAT     H292463   5.221   2.064   5.423
30741WAT      O92464   3.411   5.890   8.899
30741WAT     H192465   3.408   5.962   8.968
30741WAT     H292466   3.325   5.887   8.849
30742WAT      O92467   0.138   8.183   1.556
30742WAT     H192468   0.159   8.183   1.458
30742WAT     H292469   0.120   8.277   1.586
30743WAT      O92470   1.428   9.150   0.612
30743WAT     H192471   1.363   9.113   0.546
30743WAT     H292472   1.400   9.242   0.638
30744WAT      O92473   9.727   8.906   5.131
30744WAT     H192474   9.721   8.828   5.069
30744WAT     H292475   9.654   8.971   5.110
30745WAT      O92476   1.054   2.871   5.612
30745WAT     H192477   1.090   2.816   5.536
30745WAT     H292478   0.998   2.813   5.671
30746WAT      O92479   9.103   4.123   2.725
30746WAT     H192480   9.029   4.065   2.691
30746WAT     H292481   9.191   4.088   2.692
30747WAT      O92482   3.558   6.982   4.279
30747WAT     H192483   3.522   6.940   4.196
30747WAT     H292484   3.515   7.071   4.294
30748WAT      O92485   3.206   6.997   7.505
30748WAT     H192486   3.131   6.931   7.501
30748WAT     H292487   3.208   7.050   7.420
30749WAT      O92488   6.550   9.779   9.499
30749WAT     H192489   6.637   9.769   9.546
30749WAT     H292490   6.478   9.798   9.565
30750WAT      O92491   2.119   1.191   9.727
30750WAT     H192492   2.090   1.241   9.646
30750WAT     H292493   2.051   1.120   9.748
30751WAT      O92494   2.479   3.259   2.581
30751WAT     H192495   2.538   3.188   2.620
30751WAT     H292496   2.530   3.346   2.578
30752WAT      O92497   5.634   8.790   7.160
30752WAT     H192498   5.645   8.694   7.134
30752WAT     H292499   5.706   8.816   7.223
30753WAT      O92500   3.032   2.001   6.788
30753WAT     H192501   3.062   2.091   6.757
30753WAT     H292502   3.099   1.964   6.853
30754WAT      O92503   0.841   2.708   1.849
30754WAT     H192504   0.836   2.688   1.947
30754WAT     H292505   0.907   2.648   1.806
30755WAT      O92506   9.799   6.625   5.191
30755WAT     H192507   9.811   6.723   5.177
30755WAT     H292508   9.702   6.605   5.206
30756WAT      O92509   4.572   2.994   9.635
30756WAT     H192510   4.473   3.008   9.644
30756WAT     H292511   4.608   2.957   9.721
30757WAT      O92512   4.297   2.083   5.671
30757WAT     H192513   4.212   2.031   5.668
30757WAT     H292514   4.341   2.069   5.759
30758WAT      O92515   1.831   2.935   0.329
30758WAT     H192516   1.852   2.994   0.407
30758WAT     H292517   1.910   2.931   0.268
30759WAT      O92518   0.551   8.808   9.848
30759WAT     H192519   0.600   8.885   9.807
30759WAT     H292520   0.482   8.843   9.912
30760WAT      O92521   8.174   9.786   6.930
30760WAT     H192522   8.088   9.810   6.885
30760WAT     H292523   8.155   9.743   7.018
30761WAT      O92524   3.155   1.920   7.851
30761WAT     H192525   3.130   1.883   7.940
30761WAT     H292526   3.206   1.852   7.799
30762WAT      O92527   0.500   7.310   0.472
30762WAT     H192528   0.566   7.354   0.410
30762WAT     H292529   0.548   7.271   0.550
30763WAT      O92530   9.460   0.383   0.545
30763WAT     H192531   9.460   0.474   0.586
30763WAT     H292532   9.527   0.380   0.470
30764WAT      O92533   9.873   1.474   4.898
30764WAT     H192534   9.870   1.546   4.967
30764WAT     H292535   9.809   1.495   4.824
30765WAT      O92536   6.821   2.074   0.430
30765WAT     H192537   6.908   2.120   0.444
30765WAT     H292538   6.836   1.984   0.389
30766WAT      O92539   1.578   7.763   9.733
30766WAT     H192540   1.674   7.790   9.719
30766WAT     H292541   1.540   7.731   9.646
30767WAT      O92542   0.676   2.239   4.034
30767WAT     H192543   0.590   2.269   3.993
30767WAT     H292544   0.658   2.187   4.117
30768WAT      O92545   7.644   7.217   2.197
30768WAT     H192546   7.549   7.198   2.222
30768WAT     H292547   7.683   7.282   2.262
30769WAT      O92548   5.908   1.580   7.529
30769WAT     H192549   5.813   1.602   7.551
30769WAT     H292550   5.925   1.602   7.433
30770WAT      O92551   3.389   8.408   3.061
30770WAT     H192552   3.327   8.375   3.132
30770WAT     H292553   3.483   8.393   3.090
30771WAT      O92554   2.605   9.585   8.659
30771WAT     H192555   2.691   9.626   8.689
30771WAT     H292556   2.617   9.487   8.649
30772WAT      O92557   7.929   5.035   2.492
30772WAT     H192558   7.869   5.000   2.563
30772WAT     H292559   7.895   5.123   2.460
30773WAT      O92560   0.573   2.134   2.230
30773WAT     H192561   0.655   2.149   2.285
30773WAT     H292562   0.501   2.095   2.288
30774WAT      O92563   4.685   0.548   0.116
30774WAT     H192564   4.723   0.638   0.094
30774WAT     H292565   4.618   0.523   0.045
30775WAT      O92566   2.745   1.751   9.867
30775WAT     H192567   2.746   1.678   9.798
30775WAT     H292568   2.746   1.839   9.821
30776WAT      O92569   7.951   2.021   0.894
30776WAT     H192570   7.951   2.013   0.994
30776WAT     H292571   7.886   1.955   0.856
30777WAT      O92572   2.577   1.378   8.397
30777WAT     H192573   2.584   1.413   8.304
30777WAT     H292574   2.648   1.310   8.413
30778WAT      O92575   7.119   6.077   3.026
30778WAT     H192576   7.198   6.019   3.007
30778WAT     H292577   7.076   6.104   2.940
30779WAT      O92578   8.593   6.731   1.370
30779WAT     H192579   8.651   6.679   1.433
30779WAT     H292580   8.508   6.757   1.417
30780WAT      O92581   6.794   1.079   0.413
30780WAT     H192582   6.856   1.005   0.438
30780WAT     H292583   6.825   1.122   0.328
30781WAT      O92584   0.759   6.441   9.475
30781WAT     H192585   0.717   6.528   9.500
30781WAT     H292586   0.713   6.367   9.524
30782WAT      O92587   4.055   1.334   8.146
30782WAT     H192588   4.147   1.344   8.111
30782WAT     H292589   4.021   1.423   8.176
30783WAT      O92590   8.924   6.391   8.614
30783WAT     H192591   8.900   6.318   8.550
30783WAT     H292592   8.841   6.438   8.644
30784WAT      O92593   3.546   4.161   7.885
30784WAT     H192594   3.579   4.086   7.827
30784WAT     H292595   3.510   4.234   7.826
30785WAT      O92596   8.107   7.995   3.812
30785WAT     H192597   8.088   8.093   3.822
30785WAT     H292598   8.034   7.953   3.758
30786WAT      O92599   4.418   0.700   9.585
30786WAT     H192600   4.507   0.655   9.598
30786WAT     H292601   4.349   0.631   9.564
30787WAT      O92602   3.594   4.405   0.214
30787WAT     H192603   3.520   4.439   0.155
30787WAT     H292604   3.672   4.468   0.208
30788WAT      O92605   1.206   9.259   6.907
30788WAT     H192606   1.129   9.220   6.957
30788WAT     H292607   1.290   9.213   6.934
30789WAT      O92608   6.365   8.304   3.838
30789WAT     H192609   6.283   8.254   3.811
30789WAT     H292610   6.378   8.383   3.779
30790WAT      O92611   5.424   7.045   5.024
30790WAT     H192612   5.341   7.018   5.073
30790WAT     H292613   5.400   7.072   4.931
30791WAT      O92614   4.563   2.079   9.458
30791WAT     H192615   4.519   1.991   9.476
30791WAT     H292616   4.570   2.094   9.359
30792WAT      O92617   6.396   2.567   8.081
30792WAT     H192618   6.427   2.654   8.120
30792WAT     H292619   6.313   2.538   8.128
30793WAT      O92620   0.138   5.368   0.187
30793WAT     H192621   0.049   5.411   0.167
30793WAT     H292622   0.144   5.351   0.286
30794WAT      O92623   2.938   7.920   9.743
30794WAT     H192624   2.912   7.864   9.821
30794WAT     H292625   2.972   7.862   9.669
30795WAT      O92626   2.072   7.012   5.768
30795WAT     H192627   2.102   7.108   5.768
30795WAT     H292628   2.041   6.988   5.860
30796WAT      O92629   7.191   8.350   3.235
30796WAT     H192630   7.212   8.421   3.302
30796WAT     H292631   7.103   8.369   3.193
30797WAT      O92632   4.354   5.124   8.545
30797WAT     H192633   4.436   5.142   8.490
30797WAT     H292634   4.281   5.091   8.486
30798WAT      O92635   8.239   1.440   7.668
30798WAT     H192636   8.170   1.513   7.670
30798WAT     H292637   8.301   1.452   7.745
30799WAT      O92638   5.421   6.636   2.723
30799WAT     H192639   5.382   6.612   2.634
30799WAT     H292640   5.437   6.552   2.775
30800WAT      O92641   8.847   1.211   1.326
30800WAT     H192642   8.826   1.148   1.251
30800WAT     H292643   8.942   1.242   1.318
30801WAT      O92644   0.030   8.526   5.239
30801WAT     H192645  -0.032   8.551   5.314
30801WAT     H292646  -0.019   8.468   5.174
30802WAT      O92647   9.052   5.530   4.074
30802WAT     H192648   9.015   5.460   4.012
30802WAT     H292649   9.053   5.619   4.027
30803WAT      O92650   4.263   1.516   2.310
30803WAT     H192651   4.335   1.579   2.281
30803WAT     H292652   4.258   1.439   2.246
30804WAT      O92653   9.296   4.474   1.529
30804WAT     H192654   9.204   4.505   1.507
30804WAT     H292655   9.291   4.388   1.581
30805WAT      O92656   7.976   0.370   5.137
30805WAT     H192657   7.983   0.368   5.037
30805WAT     H292658   8.051   0.425   5.174
30806WAT      O92659   0.313   0.923   4.965
30806WAT     H192660   0.238   0.881   4.915
30806WAT     H292661   0.394   0.866   4.958
30807WAT      O92662   0.813   6.689   5.755
30807WAT     H192663   0.800   6.618   5.685
30807WAT     H292664   0.797   6.650   5.845
30808WAT      O92665   6.958   7.380   9.470
30808WAT     H192666   6.889   7.309   9.482
30808WAT     H292667   7.047   7.338   9.455
30809WAT      O92668   7.286   0.714   1.648
30809WAT     H192669   7.245   0.625   1.668
30809WAT     H292670   7.353   0.703   1.574
30810WAT      O92671   5.207   5.030   1.035
30810WAT     H192672   5.108   5.041   1.030
30810WAT     H292673   5.229   4.942   1.078
30811WAT      O92674   7.140   0.474   8.587
30811WAT     H192675   7.080   0.553   8.580
30811WAT     H292676   7.187   0.475   8.675
30812WAT      O92677   7.518   3.044   8.480
30812WAT     H192678   7.561   3.125   8.520
30812WAT     H292679   7.538   2.964   8.537
30813WAT      O92680   8.127   3.366   9.545
30813WAT     H192681   8.092   3.335   9.633
30813WAT     H292682   8.180   3.293   9.502
30814WAT      O92683   8.055   9.435   8.493
30814WAT     H192684   8.059   9.524   8.540
30814WAT     H292685   8.147   9.398   8.485
30815WAT      O92686   3.692   4.973   8.442
30815WAT     H192687   3.786   4.968   8.476
30815WAT     H292688   3.631   4.923   8.505
30816WAT      O92689   1.816   2.186   0.721
30816WAT     H192690   1.843   2.282   0.729
30816WAT     H292691   1.722   2.175   0.754
30817WAT      O92692   8.766   0.687   7.056
30817WAT     H192693   8.811   0.629   7.124
30817WAT     H292694   8.829   0.759   7.026
30818WAT      O92695   7.829   6.651   0.900
30818WAT     H192696   7.806   6.746   0.920
30818WAT     H292697   7.905   6.622   0.957
30819WAT      O92698   1.748   9.734   3.196
30819WAT     H192699   1.759   9.831   3.180
30819WAT     H292700   1.728   9.718   3.293
30820WAT      O92701   2.118   5.747   6.471
30820WAT     H192702   2.087   5.834   6.511
30820WAT     H292703   2.065   5.727   6.389
30821WAT      O92704   1.486   4.094   2.899
30821WAT     H192705   1.532   4.048   2.823
30821WAT     H292706   1.404   4.139   2.865
30822WAT      O92707   4.136   2.768   4.082
30822WAT     H192708   4.128   2.699   4.010
30822WAT     H292709   4.233   2.786   4.099
30823WAT      O92710   6.176   8.277   8.198
30823WAT     H192711   6.245   8.271   8.270
30823WAT     H292712   6.113   8.200   8.206
30824WAT      O92713   4.416   3.714   0.356
30824WAT     H192714   4.340   3.750   0.410
30824WAT     H292715   4.494   3.776   0.365
30825WAT      O92716   7.431   7.472   2.974
30825WAT     H192717   7.342   7.487   2.931
30825WAT     H292718   7.480   7.399   2.927
30826WAT      O92719   8.877   4.889   7.057
30826WAT     H192720   8.945   4.947   7.012
30826WAT     H292721   8.894   4.793   7.032
30827WAT      O92722   3.450   6.226   1.953
30827WAT     H192723   3.378   6.257   1.891
30827WAT     H292724   3.418   6.232   2.048
30828WAT      O92725   6.856   5.273   1.139
30828WAT     H192726   6.848   5.370   1.117
30828WAT     H292727   6.891   5.223   1.060
30829WAT      O92728   0.976   7.259   3.617
30829WAT     H192729   0.976   7.259   3.517
30829WAT     H292730   0.911   7.190   3.650
30830WAT      O92731   2.338   9.582   9.280
30830WAT     H192732   2.242   9.609   9.276
30830WAT     H292733   2.352   9.521   9.358
30831WAT      O92734   6.359   4.280   8.111
30831WAT     H192735   6.442   4.336   8.109
30831WAT     H292736   6.312   4.294   8.198
30832WAT      O92737   0.888   6.491   6.484
30832WAT     H192738   0.802   6.457   6.445
30832WAT     H292739   0.930   6.419   6.538
30833WAT      O92740   1.351   6.819   4.120
30833WAT     H192741   1.280   6.769   4.070
30833WAT     H292742   1.316   6.847   4.209
30834WAT      O92743   8.330   4.173   8.644
30834WAT     H192744   8.401   4.239   8.667
30834WAT     H292745   8.372   4.083   8.629
30835WAT      O92746   8.947   9.264   9.709
30835WAT     H192747   8.868   9.209   9.734
30835WAT     H292748   8.917   9.346   9.660
30836WAT      O92749   4.001   4.600   1.105
30836WAT     H192750   4.013   4.597   1.006
30836WAT     H292751   4.088   4.583   1.151
30837WAT      O92752   5.040   1.657   5.079
30837WAT     H192753   5.089   1.700   5.003
30837WAT     H292754   5.079   1.689   5.166
30838WAT      O92755   8.008   1.394   6.123
30838WAT     H192756   8.085   1.331   6.128
30838WAT     H292757   7.936   1.355   6.065
30839WAT      O92758   5.396   7.570   0.327
30839WAT     H192759   5.406   7.551   0.425
30839WAT     H292760   5.394   7.484   0.276
30840WAT      O92761   7.843   5.665   4.857
30840WAT     H192762   7.894   5.742   4.896
30840WAT     H292763   7.772   5.700   4.797
30841WAT      O92764   7.738   9.138   6.020
30841WAT     H192765   7.807   9.156   5.949
30841WAT     H292766   7.657   9.193   6.002
30842WAT      O92767   2.300   5.533   7.343
30842WAT     H192768   2.201   5.526   7.334
30842WAT     H292769   2.339   5.573   7.260
30843WAT      O92770   2.633   3.407   9.650
30843WAT     H192771   2.560   3.339   9.666
30843WAT     H292772   2.684   3.421   9.735
30844WAT      O92773   1.046   7.138   7.964
30844WAT     H192774   1.127   7.097   8.005
30844WAT     H292775   1.074   7.219   7.911
30845WAT      O92776   0.856   5.529   5.917
30845WAT     H192777   0.807   5.479   5.845
30845WAT     H292778   0.942   5.565   5.881
30846WAT      O92779   0.490   2.386   9.433
30846WAT     H192780   0.529   2.296   9.418
30846WAT     H292781   0.486   2.436   9.346
30847WAT      O92782   6.446   3.299   1.905
30847WAT     H192783   6.431   3.336   1.997
30847WAT     H292784   6.537   3.325   1.873
30848WAT      O92785   1.167   7.297   2.789
30848WAT     H192786   1.117   7.211   2.779
30848WAT     H292787   1.263   7.277   2.813
30849WAT      O92788   7.149   6.506   2.831
30849WAT     H192789   7.128   6.462   2.743
30849WAT     H292790   7.079   6.575   2.850
30850WAT      O92791   9.293   1.818   6.068
30850WAT     H192792   9.306   1.747   5.999
30850WAT     H292793   9.368   1.815   6.134
30851WAT      O92794   5.141   8.522   0.094
30851WAT     H192795   5.061   8.566   0.135
30851WAT     H292796   5.120   8.427   0.073
30852WAT      O92797   6.832   0.367   6.354
30852WAT     H192798   6.812   0.274   6.385
30852WAT     H292799   6.834   0.428   6.433
30853WAT      O92800   1.072   9.539   9.110
30853WAT     H192801   1.088   9.633   9.081
30853WAT     H292802   0.977   9.514   9.089
30854WAT      O92803   8.970   8.079   9.365
30854WAT     H192804   8.972   8.151   9.296
30854WAT     H292805   9.027   8.002   9.336
30855WAT      O92806   3.772   2.126   0.171
30855WAT     H192807   3.824   2.042   0.189
30855WAT     H292808   3.814   2.176   0.096
30856WAT      O92809   3.095   5.269   1.485
30856WAT     H192810   3.058   5.352   1.443
30856WAT     H292811   3.194   5.265   1.471
30857WAT      O92812   7.076   2.809   2.486
30857WAT     H192813   7.097   2.741   2.556
30857WAT     H292814   7.155   2.823   2.427
30858WAT      O92815   0.520   9.173   2.352
30858WAT     H192816   0.472   9.110   2.413
30858WAT     H292817   0.458   9.203   2.280
30859WAT      O92818   1.710   5.283   6.087
30859WAT     H192819   1.638   5.284   6.156
30859WAT     H292820   1.799   5.286   6.133
30860WAT      O92821   5.489   5.503   3.335
30860WAT     H192822   5.393   5.476   3.344
30860WAT     H292823   5.547   5.423   3.350
30861WAT      O92824   9.486   0.518   5.039
30861WAT     H192825   9.457   0.612   5.023
30861WAT     H292826   9.516   0.508   5.134
30862WAT      O92827   0.454   6.402   1.040
30862WAT     H192828   0.501   6.379   1.125
30862WAT     H292829   0.521   6.412   0.966
30863WAT      O92830   2.391   9.614   3.317
30863WAT     H192831   2.393   9.563   3.403
30863WAT     H292832   2.304   9.663   3.311
30864WAT      O92833   7.630   4.374   3.195
30864WAT     H192834   7.624   4.370   3.294
30864WAT     H292835   7.538   4.375   3.156
30865WAT      O92836   7.873   7.319   6.796
30865WAT     H192837   7.934   7.325   6.717
30865WAT     H292838   7.927   7.312   6.880
30866WAT      O92839   6.892   5.828   8.755
30866WAT     H192840   6.797   5.806   8.778
30866WAT     H292841   6.894   5.912   8.701
30867WAT      O92842   2.116   5.218   1.882
30867WAT     H192843   2.183   5.292   1.892
30867WAT     H292844   2.026   5.257   1.860
30868WAT      O92845   4.372   0.070   6.909
30868WAT     H192846   4.373   0.134   6.832
30868WAT     H292847   4.417  -0.015   6.881
30869WAT      O92848   1.246   2.016   0.590
30869WAT     H192849   1.271   1.919   0.589
30869WAT     H292850   1.197   2.036   0.674
30870WAT      O92851   5.683   5.371   0.383
30870WAT     H192852   5.775   5.410   0.387
30870WAT     H292853   5.660   5.349   0.288
30871WAT      O92854   0.977   8.261   4.040
30871WAT     H192855   1.045   8.326   4.005
30871WAT     H292856   0.950   8.199   3.967
30872WAT      O92857   8.521   5.748   5.980
30872WAT     H192858   8.546   5.692   6.059
30872WAT     H292859   8.576   5.721   5.901
30873WAT      O92860   3.139   8.084   1.028
30873WAT     H192861   3.089   8.160   1.069
30873WAT     H292862   3.167   8.109   0.935
30874WAT      O92863   1.032   7.687   1.253
30874WAT     H192864   1.089   7.705   1.332
30874WAT     H292865   0.954   7.631   1.280
30875WAT      O92866   5.930   8.940   2.381
30875WAT     H192867   5.938   8.961   2.284
30875WAT     H292868   5.834   8.927   2.405
30876WAT      O92869   4.289   8.685   8.853
30876WAT     H192870   4.298   8.701   8.951
30876WAT     H292871   4.339   8.756   8.803
30877WAT      O92872   8.206   6.830   5.622
30877WAT     H192873   8.207   6.930   5.620
30877WAT     H292874   8.208   6.798   5.717
30878WAT      O92875   9.792   2.298   0.742
30878WAT     H192876   9.864   2.269   0.805
30878WAT     H292877   9.813   2.262   0.651
30879WAT      O92878   4.688   4.106   2.924
30879WAT     H192879   4.631   4.179   2.961
30879WAT     H292880   4.663   4.019   2.968
30880WAT      O92881   0.829   4.650   5.671
30880WAT     H192882   0.768   4.619   5.744
30880WAT     H292883   0.798   4.740   5.638
30881WAT      O92884   6.409   5.925   5.349
30881WAT     H192885   6.358   5.849   5.391
30881WAT     H292886   6.371   5.944   5.259
30882WAT      O92887   1.995   7.830   2.465
30882WAT     H192888   2.023   7.735   2.480
30882WAT     H292889   1.907   7.846   2.511
30883WAT      O92890   1.098   7.148   7.535
30883WAT     H192891   1.121   7.243   7.556
30883WAT     H292892   1.160   7.087   7.585
30884WAT      O92893   4.073   9.759   0.780
30884WAT     H192894   4.049   9.819   0.856
30884WAT     H292895   4.101   9.670   0.816
30885WAT      O92896   0.358   1.871   3.203
30885WAT     H192897   0.323   1.794   3.149
30885WAT     H292898   0.399   1.837   3.287
30886WAT      O92899   0.167   7.725   2.576
30886WAT     H192900   0.072   7.712   2.546
30886WAT     H292901   0.219   7.642   2.556
30887WAT      O92902   8.502   3.713   2.743
30887WAT     H192903   8.599   3.715   2.764
30887WAT     H292904   8.488   3.668   2.655
30888WAT      O92905   4.561   6.416   8.978
30888WAT     H192906   4.465   6.390   8.962
30888WAT     H292907   4.569   6.456   9.069
30889WAT      O92908   9.462   7.571   5.305
30889WAT     H192909   9.540   7.613   5.258
30889WAT     H292910   9.490   7.485   5.347
30890WAT      O92911   4.856   1.095   6.069
30890WAT     H192912   4.757   1.111   6.062
30890WAT     H292913   4.905   1.179   6.047
30891WAT      O92914   4.170   8.383   3.484
30891WAT     H192915   4.212   8.457   3.537
30891WAT     H292916   4.128   8.421   3.402
30892WAT      O92917   9.373   1.359   0.846
30892WAT     H192918   9.373   1.368   0.946
30892WAT     H292919   9.433   1.284   0.819
30893WAT      O92920   8.384   6.279   3.748
30893WAT     H192921   8.336   6.247   3.830
30893WAT     H292922   8.443   6.356   3.772
30894WAT      O92923   4.331   6.413   1.898
30894WAT     H192924   4.389   6.492   1.880
30894WAT     H292925   4.272   6.396   1.819
30895WAT      O92926   0.922   8.262   5.980
30895WAT     H192927   1.011   8.234   5.945
30895WAT     H292928   0.880   8.186   6.029
30896WAT      O92929   4.996   3.973   0.761
30896WAT     H192930   4.978   3.890   0.813
30896WAT     H292931   5.090   3.971   0.727
30897WAT      O92932   3.798   9.013   0.545
30897WAT     H192933   3.834   8.922   0.530
30897WAT     H292934   3.705   9.007   0.581
30898WAT      O92935   3.894   9.735   2.439
30898WAT     H192936   3.925   9.706   2.529
30898WAT     H292937   3.796   9.716   2.429
30899WAT      O92938   3.039   4.842   5.914
30899WAT     H192939   3.026   4.925   5.968
30899WAT     H292940   2.998   4.764   5.962
30900WAT      O92941   5.400   1.414   6.895
30900WAT     H192942   5.430   1.461   6.812
30900WAT     H292943   5.440   1.323   6.899
30901WAT      O92944   5.239   8.738   4.291
30901WAT     H192945   5.260   8.743   4.193
30901WAT     H292946   5.210   8.645   4.313
30902WAT      O92947   2.424   2.450   2.121
30902WAT     H192948   2.465   2.423   2.208
30902WAT     H292949   2.326   2.463   2.133
30903WAT      O92950   3.751   1.156   2.582
30903WAT     H192951   3.719   1.075   2.532
30903WAT     H292952   3.699   1.165   2.667
30904WAT      O92953   7.075   4.250   2.668
30904WAT     H192954   7.163   4.214   2.700
30904WAT     H292955   7.079   4.267   2.570
30905WAT      O92956   2.500   2.187   6.457
30905WAT     H192957   2.529   2.262   6.398
30905WAT     H292958   2.466   2.112   6.400
30906WAT      O92959   8.452   5.767   5.012
30906WAT     H192960   8.428   5.837   5.079
30906WAT     H292961   8.458   5.678   5.057
30907WAT      O92962   3.601   9.307   9.628
30907WAT     H192963   3.595   9.318   9.529
30907WAT     H292964   3.673   9.366   9.664
30908WAT      O92965   6.483   2.094   1.615
30908WAT     H192966   6.465   1.997   1.633
30908WAT     H292967   6.572   2.119   1.654
30909WAT      O92968   8.574   1.560   4.984
30909WAT     H192969   8.534   1.500   5.053
30909WAT     H292970   8.629   1.630   5.029
30910WAT      O92971   8.237   8.296   6.622
30910WAT     H192972   8.327   8.327   6.654
30910WAT     H292973   8.194   8.368   6.568
30911WAT      O92974   7.647   5.165   3.284
30911WAT     H192975   7.563   5.184   3.335
30911WAT     H292976   7.663   5.237   3.217
30912WAT      O92977   6.417   6.073   6.883
30912WAT     H192978   6.480   6.117   6.946
30912WAT     H292979   6.332   6.126   6.879
30913WAT      O92980   0.667   7.507   0.252
30913WAT     H192981   0.730   7.473   0.322
30913WAT     H292982   0.716   7.518   0.165
30914WAT      O92983   7.728   7.285   2.532
30914WAT     H192984   7.788   7.229   2.590
30914WAT     H292985   7.668   7.340   2.589
30915WAT      O92986   5.765   1.149   2.034
30915WAT     H192987   5.786   1.186   1.944
30915WAT     H292988   5.753   1.223   2.100
30916WAT      O92989   3.521   3.316   9.692
30916WAT     H192990   3.582   3.260   9.636
30916WAT     H292991   3.485   3.391   9.637
30917WAT      O92992   7.535   6.919   3.467
30917WAT     H192993   7.609   6.862   3.432
30917WAT     H292994   7.540   6.924   3.566
30918WAT      O92995   6.221   3.818   2.436
30918WAT     H192996   6.171   3.898   2.470
30918WAT     H292997   6.291   3.792   2.502
30919WAT      O92998   8.647   0.794   7.500
30919WAT     H192999   8.613   0.769   7.409
30919WAT     H293000   8.665   0.893   7.503
30920WAT      O93001   3.320   9.812   4.585
30920WAT     H193002   3.228   9.845   4.567
30920WAT     H293003   3.387   9.882   4.559
30921WAT      O93004   8.082   7.181   0.353
30921WAT     H193005   8.145   7.113   0.317
30921WAT     H293006   8.104   7.271   0.314
30922WAT      O93007   2.774   6.065   3.835
30922WAT     H193008   2.683   6.026   3.850
30922WAT     H293009   2.802   6.049   3.741
30923WAT      O93010   2.744   8.991   4.733
30923WAT     H193011   2.766   9.006   4.829
30923WAT     H293012   2.820   9.020   4.676
30924WAT      O93013   9.416   9.602   8.664
30924WAT     H193014   9.505   9.647   8.668
30924WAT     H293015   9.351   9.662   8.616
30925WAT      O93016   8.495   4.477   7.849
30925WAT     H193017   8.440   4.458   7.930
30925WAT     H293018   8.435   4.504   7.773
30926WAT      O93019   0.534   1.864   0.799
30926WAT     H193020   0.607   1.931   0.806
30926WAT     H293021   0.562   1.790   0.738
30927WAT      O93022   9.168   0.154   3.909
30927WAT     H193023   9.159   0.090   3.833
30927WAT     H293024   9.085   0.209   3.917
30928WAT      O93025   7.028   8.199   2.854
30928WAT     H193026   6.990   8.226   2.765
30928WAT     H293027   6.962   8.141   2.901
30929WAT      O93028   9.875   1.126   6.296
30929WAT     H193029   9.871   1.069   6.215
30929WAT     H293030   9.836   1.076   6.374
30930WAT      O93031   6.666   8.308   7.163
30930WAT     H193032   6.725   8.228   7.161
30930WAT     H293033   6.640   8.333   7.069
30931WAT      O93034   0.059   6.685   6.483
30931WAT     H193035   0.026   6.659   6.574
30931WAT     H293036   0.159   6.675   6.479
30932WAT      O93037   1.469   0.624   8.245
30932WAT     H193038   1.392   0.675   8.207
30932WAT     H293039   1.532   0.688   8.289
30933WAT      O93040   8.929   4.663   6.898
30933WAT     H193041   8.934   4.739   6.833
30933WAT     H293042   8.888   4.584   6.853
30934WAT      O93043   1.382   7.196   7.381
30934WAT     H193044   1.343   7.269   7.437
30934WAT     H293045   1.414   7.234   7.294
30935WAT      O93046   3.065   6.058   5.356
30935WAT     H193047   2.985   6.112   5.329
30935WAT     H293048   3.037   5.990   5.423
30936WAT      O93049   0.456   9.013   3.239
30936WAT     H193050   0.480   8.918   3.223
30936WAT     H293051   0.369   9.034   3.193
30937WAT      O93052   2.541   8.429   8.817
30937WAT     H193053   2.627   8.474   8.793
30937WAT     H293054   2.507   8.378   8.738
30938WAT      O93055   0.615   0.412   1.257
30938WAT     H193056   0.606   0.511   1.264
30938WAT     H293057   0.525   0.370   1.269
30939WAT      O93058   9.571   8.458   2.179
30939WAT     H193059   9.640   8.418   2.119
30939WAT     H293060   9.546   8.393   2.251
30940WAT      O93061   6.510   0.035   4.524
30940WAT     H193062   6.608   0.027   4.541
30940WAT     H293063   6.465   0.070   4.606
30941WAT      O93064   6.690   1.780   0.325
30941WAT     H193065   6.599   1.761   0.288
30941WAT     H293066   6.735   1.851   0.270
30942WAT      O93067   2.877   8.508   1.120
30942WAT     H193068   2.819   8.551   1.189
30942WAT     H293069   2.826   8.498   1.035
30943WAT      O93070   6.768   7.475   4.582
30943WAT     H193071   6.702   7.471   4.656
30943WAT     H293072   6.743   7.409   4.511
30944WAT      O93073   3.574   4.849   5.451
30944WAT     H193074   3.584   4.802   5.363
30944WAT     H293075   3.483   4.892   5.455
30945WAT      O93076   6.857   0.440   1.660
30945WAT     H193077   6.828   0.345   1.667
30945WAT     H293078   6.777   0.500   1.667
30946WAT      O93079   2.740   2.414   9.113
30946WAT     H193080   2.819   2.378   9.163
30946WAT     H293081   2.739   2.514   9.119
30947WAT      O93082   2.189   3.588   0.392
30947WAT     H193083   2.132   3.508   0.410
30947WAT     H293084   2.227   3.581   0.300
30948WAT      O93085   3.856   2.567   3.516
30948WAT     H193086   3.934   2.515   3.550
30948WAT     H293087   3.889   2.647   3.465
30949WAT      O93088   3.492   0.490   9.618
30949WAT     H193089   3.571   0.430   9.604
30949WAT     H293090   3.511   0.553   9.694
30950WAT      O93091   9.553   6.293   1.265
30950WAT     H193092   9.591   6.348   1.191
30950WAT     H293093   9.624   6.233   1.302
30951WAT      O93094   3.287   0.527   9.441
30951WAT     H193095   3.341   0.492   9.518
30951WAT     H293096   3.333   0.606   9.401
30952WAT      O93097   6.560   5.513   1.677
30952WAT     H193098   6.481   5.453   1.692
30952WAT     H293099   6.626   5.467   1.618
30953WAT      O93100   8.208   0.448   1.051
30953WAT     H193101   8.284   0.449   1.115
30953WAT     H293102   8.240   0.476   0.960
30954WAT      O93103   2.842   1.335   5.509
30954WAT     H193104   2.815   1.420   5.464
30954WAT     H293105   2.942   1.327   5.506
30955WAT      O93106   9.371   6.827   0.245
30955WAT     H193107   9.410   6.738   0.222
30955WAT     H293108   9.324   6.822   0.333
30956WAT      O93109   8.901   9.384   6.233
30956WAT     H193110   8.949   9.466   6.202
30956WAT     H293111   8.803   9.399   6.231
30957WAT      O93112   2.101   8.771   5.048
30957WAT     H193113   2.190   8.726   5.044
30957WAT     H293114   2.033   8.715   5.000
30958WAT      O93115   6.344   0.427   6.902
30958WAT     H193116   6.359   0.432   7.001
30958WAT     H293117   6.250   0.455   6.881
30959WAT      O93118   4.914   4.003   5.667
30959WAT     H193119   4.939   4.069   5.738
30959WAT     H293120   4.921   3.910   5.705
30960WAT      O93121   3.094   2.434   2.340
30960WAT     H193122   3.075   2.341   2.309
30960WAT     H293123   3.180   2.436   2.391
30961WAT      O93124   5.887   4.773   6.143
30961WAT     H193125   5.807   4.824   6.111
30961WAT     H293126   5.910   4.701   6.078
30962WAT      O93127   3.522   3.673   3.617
30962WAT     H193128   3.604   3.679   3.674
30962WAT     H293129   3.525   3.589   3.563
30963WAT      O93130   2.833   2.055   2.515
30963WAT     H193131   2.882   2.115   2.578
30963WAT     H293132   2.831   1.962   2.550
30964WAT      O93133   3.338   3.420   7.419
30964WAT     H193134   3.423   3.413   7.471
30964WAT     H293135   3.275   3.347   7.448
30965WAT      O93136   5.254   2.488   2.368
30965WAT     H193137   5.335   2.464   2.421
30965WAT     H293138   5.181   2.517   2.430
30966WAT      O93139   8.495   5.254   1.634
30966WAT     H193140   8.471   5.302   1.719
30966WAT     H293141   8.526   5.320   1.566
30967WAT      O93142   1.602   8.838   0.038
30967WAT     H193143   1.686   8.797   0.074
30967WAT     H293144   1.601   8.828  -0.061
30968WAT      O93145   7.106   6.011   5.644
30968WAT     H193146   7.115   6.110   5.637
30968WAT     H293147   7.109   5.984   5.740
30969WAT      O93148   1.499   7.279   9.737
30969WAT     H193149   1.530   7.306   9.645
30969WAT     H293150   1.578   7.272   9.798
30970WAT      O93151   9.512   0.974   0.122
30970WAT     H193152   9.420   0.934   0.120
30970WAT     H293153   9.544   0.989   0.029
30971WAT      O93154   3.789   2.306   6.450
30971WAT     H193155   3.706   2.358   6.471
30971WAT     H293156   3.861   2.369   6.421
30972WAT      O93157   2.558   5.559   4.113
30972WAT     H193158   2.488   5.491   4.091
30972WAT     H293159   2.569   5.564   4.212
30973WAT      O93160   0.050   4.212   7.851
30973WAT     H193161   0.109   4.144   7.808
30973WAT     H293162   0.093   4.245   7.935
30974WAT      O93163   1.644   9.527   1.747
30974WAT     H193164   1.631   9.457   1.676
30974WAT     H293165   1.723   9.502   1.804
30975WAT      O93166   3.163   9.710   4.207
30975WAT     H193167   3.192   9.779   4.273
30975WAT     H293168   3.178   9.745   4.114
30976WAT      O93169   8.668   7.763   7.707
30976WAT     H193170   8.712   7.851   7.725
30976WAT     H293171   8.569   7.773   7.719
30977WAT      O93172   6.391   5.064   4.493
30977WAT     H193173   6.344   5.017   4.418
30977WAT     H293174   6.324   5.090   4.562
30978WAT      O93175   6.266   3.151   2.662
30978WAT     H193176   6.321   3.097   2.727
30978WAT     H293177   6.217   3.222   2.712
30979WAT      O93178   0.363   2.778   1.360
30979WAT     H193179   0.292   2.798   1.293
30979WAT     H293180   0.362   2.680   1.381
30980WAT      O93181   1.455   9.045   6.494
30980WAT     H193182   1.394   8.992   6.552
30980WAT     H293183   1.515   9.101   6.551
30981WAT      O93184   2.629   3.157   7.599
30981WAT     H193185   2.560   3.150   7.671
30981WAT     H293186   2.637   3.252   7.570
30982WAT      O93187   4.492   1.334   2.169
30982WAT     H193188   4.543   1.336   2.083
30982WAT     H293189   4.463   1.427   2.193
30983WAT      O93190   0.287   7.387   7.515
30983WAT     H193191   0.287   7.290   7.535
30983WAT     H293192   0.301   7.401   7.417
30984WAT      O93193   5.212   7.820   3.966
30984WAT     H193194   5.276   7.805   4.041
30984WAT     H293195   5.198   7.918   3.953
30985WAT      O93196   9.408   8.000   1.576
30985WAT     H193197   9.361   8.024   1.491
30985WAT     H293198   9.486   8.061   1.588
30986WAT      O93199   4.354   0.794   2.217
30986WAT     H193200   4.355   0.894   2.218
30986WAT     H293201   4.445   0.759   2.194
30987WAT      O93202   9.178   7.377   7.295
30987WAT     H193203   9.111   7.330   7.353
30987WAT     H293204   9.217   7.454   7.345
30988WAT      O93205   3.343   6.817   0.688
30988WAT     H193206   3.346   6.718   0.674
30988WAT     H293207   3.290   6.837   0.770
30989WAT      O93208   3.326   2.273   0.343
30989WAT     H193209   3.277   2.185   0.343
30989WAT     H293210   3.372   2.286   0.431
30990WAT      O93211   5.803   3.837   5.978
30990WAT     H193212   5.744   3.771   6.024
30990WAT     H293213   5.898   3.822   6.004
30991WAT      O93214   2.352   6.044   5.290
30991WAT     H193215   2.448   6.018   5.273
30991WAT     H293216   2.348   6.137   5.325
30992WAT      O93217   8.980   8.757   1.374
30992WAT     H193218   8.977   8.732   1.278
30992WAT     H293219   9.069   8.797   1.396
30993WAT      O93220   2.785   2.321   2.107
30993WAT     H193221   2.699   2.276   2.132
30993WAT     H293222   2.862   2.268   2.142
30994WAT      O93223   8.553   5.580   8.888
30994WAT     H193224   8.608   5.573   8.971
30994WAT     H293225   8.457   5.564   8.910
30995WAT      O93226   0.973   4.084   8.030
30995WAT     H193227   0.897   4.096   8.093
30995WAT     H293228   1.059   4.078   8.082
30996WAT      O93229   9.724   5.471   2.196
30996WAT     H193230   9.755   5.528   2.272
30996WAT     H293231   9.643   5.420   2.223
30997WAT      O93232   0.801   9.484   5.692
30997WAT     H193233   0.759   9.574   5.688
30997WAT     H293234   0.841   9.461   5.603
30998WAT      O93235   8.465   0.961   2.327
30998WAT     H193236   8.541   0.973   2.263
30998WAT     H293237   8.388   0.918   2.279
30999WAT      O93238   7.409   5.792   3.680
30999WAT     H193239   7.439   5.819   3.589
30999WAT     H293240   7.401   5.873   3.739
31000WAT      O93241   2.233   0.061   3.038
31000WAT     H193242   2.175   0.129   3.082
31000WAT     H293243   2.220  -0.027   3.083
31001WAT      O93244   0.947   3.468   1.549
31001WAT     H193245   1.047   3.470   1.537
31001WAT     H293246   0.917   3.555   1.588
31002WAT      O93247   0.197   8.417   7.042
31002WAT     H193248   0.182   8.509   7.078
31002WAT     H293249   0.250   8.363   7.108
31003WAT      O93250   1.606   0.708   2.543
31003WAT     H193251   1.627   0.787   2.601
31003WAT     H293252   1.563   0.740   2.458
31004WAT      O93253   1.386   7.686   4.834
31004WAT     H193254   1.323   7.612   4.814
31004WAT     H293255   1.385   7.752   4.759
31005WAT      O93256   7.917   7.917   0.132
31005WAT     H193257   7.846   7.969   0.084
31005WAT     H293258   7.882   7.889   0.221
31006WAT      O93259   4.890   2.592   1.979
31006WAT     H193260   4.946   2.611   2.060
31006WAT     H293261   4.832   2.513   1.996
31007WAT      O93262   0.859   6.741   1.100
31007WAT     H193263   0.883   6.825   1.148
31007WAT     H293264   0.927   6.721   1.030
31008WAT      O93265   1.403   6.041   4.711
31008WAT     H193266   1.400   6.098   4.792
31008WAT     H293267   1.495   6.044   4.670
31009WAT      O93268   6.330   6.312   9.095
31009WAT     H193269   6.345   6.221   9.055
31009WAT     H293270   6.304   6.376   9.023
31010WAT      O93271   5.440   5.908   7.319
31010WAT     H193272   5.360   5.861   7.281
31010WAT     H293273   5.429   6.007   7.306
31011WAT      O93274   0.779   6.787   5.043
31011WAT     H193275   0.782   6.877   5.000
31011WAT     H293276   0.705   6.785   5.111
31012WAT      O93277   4.894   5.245   5.791
31012WAT     H193278   4.890   5.155   5.747
31012WAT     H293279   4.811   5.259   5.846
31013WAT      O93280   2.395   5.332   0.274
31013WAT     H193281   2.342   5.264   0.223
31013WAT     H293282   2.461   5.285   0.332
31014WAT      O93283   3.111   2.596   4.706
31014WAT     H193284   3.055   2.513   4.703
31014WAT     H293285   3.069   2.667   4.650
31015WAT      O93286   2.374   7.469   7.535
31015WAT     H193287   2.452   7.519   7.498
31015WAT     H293288   2.294   7.480   7.475
31016WAT      O93289   0.317   6.096   2.677
31016WAT     H193290   0.231   6.046   2.694
31016WAT     H293291   0.393   6.031   2.677
31017WAT      O93292   3.914   8.927   9.592
31017WAT     H193293   3.899   8.995   9.521
31017WAT     H293294   4.011   8.927   9.618
31018WAT      O93295   3.449   4.118   0.524
31018WAT     H193296   3.453   4.080   0.616
31018WAT     H293297   3.499   4.059   0.461
31019WAT      O93298   4.527   9.305   4.371
31019WAT     H193299   4.491   9.221   4.331
31019WAT     H293300   4.452   9.366   4.396
31020WAT      O93301   0.364   9.495   2.340
31020WAT     H193302   0.356   9.428   2.414
31020WAT     H293303   0.443   9.554   2.357
31021WAT      O93304   9.788   7.534   1.815
31021WAT     H193305   9.709   7.592   1.836
31021WAT     H293306   9.773   7.489   1.727
31022WAT      O93307   4.166   9.135   7.321
31022WAT     H193308   4.117   9.104   7.240
31022WAT     H293309   4.151   9.071   7.396
31023WAT      O93310   2.412   8.935   2.502
31023WAT     H193311   2.329   8.880   2.515
31023WAT     H293312   2.449   8.918   2.411
31024WAT      O93313   0.375   6.630   8.504
31024WAT     H193314   0.425   6.583   8.576
31024WAT     H293315   0.428   6.709   8.472
31025WAT      O93316   1.522   4.599   8.201
31025WAT     H193317   1.617   4.627   8.183
31025WAT     H293318   1.460   4.666   8.162
31026WAT      O93319   7.564   6.937   8.437
31026WAT     H193320   7.493   6.935   8.366
31026WAT     H293321   7.523   6.968   8.523
31027WAT      O93322   9.835   1.938   5.517
31027WAT     H193323   9.881   1.950   5.605
31027WAT     H293324   9.738   1.960   5.527
31028WAT      O93325   8.493   4.521   6.179
31028WAT     H193326   8.449   4.556   6.262
31028WAT     H293327   8.551   4.593   6.140
31029WAT      O93328   1.702   7.117   9.326
31029WAT     H193329   1.681   7.052   9.399
31029WAT     H293330   1.618   7.146   9.282
31030WAT      O93331   9.761   2.748   3.318
31030WAT     H193332   9.828   2.735   3.245
31030WAT     H293333   9.708   2.831   3.300
31031WAT      O93334   6.694   3.367   1.783
31031WAT     H193335   6.764   3.382   1.714
31031WAT     H293336   6.682   3.450   1.837
31032WAT      O93337   9.395   7.988   8.629
31032WAT     H193338   9.375   8.009   8.725
31032WAT     H293339   9.335   8.043   8.570
31033WAT      O93340   8.770   4.372   2.722
31033WAT     H193341   8.822   4.386   2.806
31033WAT     H293342   8.700   4.302   2.738
31034WAT      O93343   9.404   6.383   5.023
31034WAT     H193344   9.447   6.373   5.113
31034WAT     H293345   9.334   6.313   5.011
31035WAT      O93346   2.410   0.197   7.083
31035WAT     H193347   2.468   0.143   7.021
31035WAT     H293348   2.433   0.174   7.177
31036WAT      O93349   6.808   1.531   3.278
31036WAT     H193350   6.865   1.576   3.347
31036WAT     H293351   6.865   1.470   3.223
31037WAT      O93352   5.750   8.189   9.349
31037WAT     H193353   5.679   8.157   9.411
31037WAT     H293354   5.715   8.264   9.293
31038WAT      O93355   9.759   2.897   4.033
31038WAT     H193356   9.672   2.898   3.983
31038WAT     H293357   9.745   2.934   4.125
31039WAT      O93358   0.850   6.243   5.484
31039WAT     H193359   0.844   6.153   5.442
31039WAT     H293360   0.876   6.310   5.415
31040WAT      O93361   0.221   8.270   1.997
31040WAT     H193362   0.313   8.237   1.979
31040WAT     H293363   0.180   8.215   2.070
31041WAT      O93364   6.175   6.719   5.388
31041WAT     H193365   6.254   6.775   5.415
31041WAT     H293366   6.154   6.653   5.461
31042WAT      O93367   4.993   6.160   5.226
31042WAT     H193368   5.085   6.121   5.234
31042WAT     H293369   4.978   6.190   5.132
31043WAT      O93370   6.741   8.541   7.231
31043WAT     H193371   6.644   8.562   7.220
31043WAT     H293372   6.755   8.442   7.227
31044WAT      O93373   9.235   8.663   4.350
31044WAT     H193374   9.232   8.564   4.360
31044WAT     H293375   9.289   8.703   4.424
31045WAT      O93376   9.739   5.476   0.592
31045WAT     H193377   9.660   5.533   0.611
31045WAT     H293378   9.816   5.533   0.562
31046WAT      O93379   9.697   7.427   1.582
31046WAT     H193380   9.680   7.524   1.564
31046WAT     H293381   9.657   7.372   1.509
31047WAT      O93382   3.274   7.169   0.042
31047WAT     H193383   3.191   7.115   0.030
31047WAT     H293384   3.346   7.133  -0.018
31048WAT      O93385   2.840   0.211   4.726
31048WAT     H193386   2.789   0.186   4.644
31048WAT     H293387   2.892   0.295   4.708
31049WAT      O93388   9.272   7.442   7.814
31049WAT     H193389   9.219   7.462   7.732
31049WAT     H293390   9.221   7.380   7.873
31050WAT      O93391   9.003   5.727   5.424
31050WAT     H193392   9.064   5.648   5.417
31050WAT     H293393   8.977   5.740   5.520
31051WAT      O93394   6.472   2.011   0.484
31051WAT     H193395   6.538   1.994   0.558
31051WAT     H293396   6.511   1.982   0.397
31052WAT      O93397   9.850   6.087   5.428
31052WAT     H193398   9.828   6.182   5.448
31052WAT     H293399   9.943   6.067   5.459
31053WAT      O93400   7.200   7.198   9.444
31053WAT     H193401   7.147   7.180   9.361
31053WAT     H293402   7.295   7.216   9.420
31054WAT      O93403   5.647   3.806   1.859
31054WAT     H193404   5.567   3.745   1.855
31054WAT     H293405   5.690   3.798   1.949
31055WAT      O93406   1.111   5.974   0.088
31055WAT     H193407   1.105   5.979  -0.011
31055WAT     H293408   1.163   5.893   0.115
31056WAT      O93409   8.541   9.564   7.968
31056WAT     H193410   8.472   9.626   8.005
31056WAT     H293411   8.518   9.469   7.992
31057WAT      O93412   8.813   5.782   8.501
31057WAT     H193413   8.817   5.688   8.536
31057WAT     H293414   8.853   5.844   8.568
31058WAT      O93415   0.865   4.805   8.168
31058WAT     H193416   0.903   4.844   8.252
31058WAT     H293417   0.765   4.809   8.171
31059WAT      O93418   6.599   2.960   6.933
31059WAT     H193419   6.687   2.935   6.974
31059WAT     H293420   6.614   3.008   6.847
31060WAT      O93421   6.509   7.292   0.730
31060WAT     H193422   6.457   7.310   0.646
31060WAT     H293423   6.603   7.265   0.705
31061WAT      O93424   2.830   5.154   1.496
31061WAT     H193425   2.799   5.124   1.586
31061WAT     H293426   2.919   5.199   1.504
31062WAT      O93427   8.576   5.936   9.220
31062WAT     H193428   8.653   5.881   9.252
31062WAT     H293429   8.607   6.029   9.202
31063WAT      O93430   9.178   8.682   7.280
31063WAT     H193431   9.155   8.778   7.270
31063WAT     H293432   9.217   8.648   7.194
31064WAT      O93433   8.039   2.386   9.415
31064WAT     H193434   8.130   2.386   9.374
31064WAT     H293435   7.980   2.449   9.364
31065WAT      O93436   8.399   7.242   0.169
31065WAT     H193437   8.494   7.209   0.165
31065WAT     H293438   8.338   7.165   0.183
31066WAT      O93439   4.155   3.942   7.303
31066WAT     H193440   4.158   3.946   7.403
31066WAT     H293441   4.239   3.901   7.269
31067WAT      O93442   8.978   1.755   5.413
31067WAT     H193443   8.952   1.770   5.509
31067WAT     H293444   8.996   1.843   5.369
31068WAT      O93445   7.462   8.975   7.499
31068WAT     H193446   7.520   8.940   7.573
31068WAT     H293447   7.366   8.957   7.521
31069WAT      O93448   8.504   1.697   2.825
31069WAT     H193449   8.588   1.646   2.807
31069WAT     H293450   8.474   1.742   2.741
31070WAT      O93451   3.026   9.658   7.645
31070WAT     H193452   3.011   9.697   7.555
31070WAT     H293453   3.091   9.715   7.696
31071WAT      O93454   2.802   0.118   5.729
31071WAT     H193455   2.775   0.078   5.816
31071WAT     H293456   2.786   0.216   5.731
31072WAT      O93457   4.238   2.409   4.137
31072WAT     H193458   4.151   2.413   4.187
31072WAT     H293459   4.312   2.440   4.197
31073WAT      O93460   0.852   8.652   0.488
31073WAT     H193461   0.879   8.712   0.563
31073WAT     H293462   0.822   8.706   0.410
31074WAT      O93463   9.199   5.559   1.017
31074WAT     H193464   9.249   5.645   1.006
31074WAT     H293465   9.234   5.510   1.097
31075WAT      O93466   6.850   9.436   1.318
31075WAT     H193467   6.897   9.408   1.235
31075WAT     H293468   6.751   9.435   1.303
31076WAT      O93469   1.511   1.561   5.335
31076WAT     H193470   1.483   1.657   5.326
31076WAT     H293471   1.562   1.533   5.254
31077WAT      O93472   2.117   0.502   3.305
31077WAT     H193473   2.179   0.575   3.276
31077WAT     H293474   2.028   0.540   3.329
31078WAT      O93475   5.940   4.439   1.220
31078WAT     H193476   5.922   4.508   1.150
31078WAT     H293477   5.961   4.352   1.176
31079WAT      O93478   7.023   3.731   3.230
31079WAT     H193479   7.107   3.724   3.176
31079WAT     H293480   6.960   3.659   3.202
31080WAT      O93481   1.676   1.503   5.097
31080WAT     H193482   1.680   1.441   5.019
31080WAT     H293483   1.651   1.595   5.066
31081WAT      O93484   8.906   9.698   8.196
31081WAT     H193485   9.004   9.717   8.195
31081WAT     H293486   8.874   9.684   8.102
31082WAT      O93487   0.296   3.957   7.188
31082WAT     H193488   0.352   4.024   7.139
31082WAT     H293489   0.199   3.982   7.179
31083WAT      O93490   5.795   4.278   6.674
31083WAT     H193491   5.775   4.211   6.746
31083WAT     H293492   5.857   4.348   6.709
31084WAT      O93493   4.209   9.507   0.402
31084WAT     H193494   4.122   9.482   0.445
31084WAT     H293495   4.277   9.525   0.472
31085WAT      O93496   4.491   4.316   2.994
31085WAT     H193497   4.418   4.380   3.016
31085WAT     H293498   4.453   4.223   2.988
31086WAT      O93499   5.767   3.131   8.116
31086WAT     H193500   5.773   3.152   8.018
31086WAT     H293501   5.685   3.175   8.154
31087WAT      O93502   2.941   6.281   1.773
31087WAT     H193503   2.896   6.218   1.710
31087WAT     H293504   2.874   6.345   1.811
31088WAT      O93505   2.262   7.212   7.022
31088WAT     H193506   2.241   7.141   7.089
31088WAT     H293507   2.275   7.171   6.931
31089WAT      O93508   8.965   2.185   8.942
31089WAT     H193509   8.898   2.249   8.978
31089WAT     H293510   9.020   2.148   9.018
31090WAT      O93511   8.819   1.703   9.350
31090WAT     H193512   8.916   1.697   9.372
31090WAT     H293513   8.765   1.700   9.434
31091WAT      O93514   4.078   5.107   8.427
31091WAT     H193515   4.049   5.203   8.426
31091WAT     H293516   4.037   5.060   8.505
31092WAT      O93517   7.657   1.499   9.373
31092WAT     H193518   7.588   1.543   9.432
31092WAT     H293519   7.635   1.402   9.362
31093WAT      O93520   2.666   3.190   8.512
31093WAT     H193521   2.684   3.094   8.532
31093WAT     H293522   2.623   3.233   8.592
31094WAT      O93523   4.332   2.443   1.244
31094WAT     H193524   4.250   2.411   1.196
31094WAT     H293525   4.408   2.447   1.179
31095WAT      O93526   8.065   5.821   9.647
31095WAT     H193527   8.016   5.901   9.614
31095WAT     H293528   8.087   5.762   9.569
31096WAT      O93529   4.166   2.241   4.602
31096WAT     H193530   4.152   2.175   4.675
31096WAT     H293531   4.168   2.334   4.640
31097WAT      O93532   6.522   1.469   7.348
31097WAT     H193533   6.520   1.502   7.253
31097WAT     H293534   6.569   1.535   7.406
31098WAT      O93535   6.147   7.017   9.862
31098WAT     H193536   6.156   7.052   9.769
31098WAT     H293537   6.220   6.950   9.878
31099WAT      O93538   9.234   2.932   3.063
31099WAT     H193539   9.330   2.905   3.075
31099WAT     H293540   9.175   2.856   3.091
31100WAT      O93541   4.155   3.006   1.819
31100WAT     H193542   4.135   2.959   1.905
31100WAT     H293543   4.154   2.940   1.744
31101WAT      O93544   3.893   2.291   9.842
31101WAT     H193545   3.952   2.303   9.763
31101WAT     H293546   3.807   2.341   9.827
31102WAT      O93547   6.816   8.813   8.455
31102WAT     H193548   6.729   8.811   8.505
31102WAT     H293549   6.801   8.853   8.365
31103WAT      O93550   0.188   8.167   3.760
31103WAT     H193551   0.124   8.230   3.716
31103WAT     H293552   0.164   8.158   3.857
31104WAT      O93553   4.129   4.132   3.261
31104WAT     H193554   4.095   4.064   3.326
31104WAT     H293555   4.227   4.118   3.245
31105WAT      O93556   7.243   7.962   0.265
31105WAT     H193557   7.316   7.989   0.202
31105WAT     H293558   7.239   7.862   0.271
31106WAT      O93559   2.462   7.968   3.964
31106WAT     H193560   2.545   7.915   3.945
31106WAT     H293561   2.462   7.997   4.060
31107WAT      O93562   4.344   9.346   6.671
31107WAT     H193563   4.296   9.260   6.656
31107WAT     H293564   4.280   9.422   6.664
31108WAT      O93565   9.236   4.865   8.728
31108WAT     H193566   9.182   4.947   8.709
31108WAT     H293567   9.311   4.859   8.662
31109WAT      O93568   2.277   8.650   3.711
31109WAT     H193569   2.324   8.656   3.623
31109WAT     H293570   2.234   8.737   3.732
31110WAT      O93571   6.420   4.036   5.123
31110WAT     H193572   6.520   4.033   5.124
31110WAT     H293573   6.384   3.948   5.155
31111WAT      O93574   2.914   1.756   3.038
31111WAT     H193575   2.826   1.734   3.082
31111WAT     H293576   2.968   1.813   3.100
31112WAT      O93577   8.713   7.948   7.255
31112WAT     H193578   8.733   7.967   7.159
31112WAT     H293579   8.651   7.870   7.261
31113WAT      O93580   0.797   7.836   3.789
31113WAT     H193581   0.758   7.887   3.866
31113WAT     H293582   0.884   7.795   3.816
31114WAT      O93583   8.362   9.544   6.546
31114WAT     H193584   8.283   9.496   6.507
31114WAT     H293585   8.358   9.641   6.521
31115WAT      O93586   6.532   7.090   5.784
31115WAT     H193587   6.504   7.179   5.746
31115WAT     H293588   6.503   7.017   5.722
31116WAT      O93589   3.350   1.726   3.870
31116WAT     H193590   3.446   1.705   3.851
31116WAT     H293591   3.305   1.645   3.909
31117WAT      O93592   8.113   8.902   0.191
31117WAT     H193593   8.082   8.984   0.240
31117WAT     H293594   8.087   8.909   0.095
31118WAT      O93595   8.926   5.042   6.346
31118WAT     H193596   8.940   5.104   6.424
31118WAT     H293597   8.870   5.089   6.277
31119WAT      O93598   3.638   0.210   1.084
31119WAT     H193599   3.653   0.158   1.000
31119WAT     H293600   3.548   0.255   1.080
31120WAT      O93601   1.375   2.112   0.371
31120WAT     H193602   1.329   2.084   0.456
31120WAT     H293603   1.470   2.080   0.373
31121WAT      O93604   2.531   5.180   8.233
31121WAT     H193605   2.455   5.117   8.251
31121WAT     H293606   2.551   5.233   8.315
31122WAT      O93607   4.665   8.414   9.039
31122WAT     H193608   4.712   8.336   9.080
31122WAT     H293609   4.730   8.467   8.984
31123WAT      O93610   8.494   7.228   2.888
31123WAT     H193611   8.443   7.304   2.848
31123WAT     H293612   8.528   7.256   2.978
31124WAT      O93613   8.039   0.951   3.993
31124WAT     H193614   8.058   0.952   4.091
31124WAT     H293615   8.119   0.985   3.944
31125WAT      O93616   5.546   1.909   8.744
31125WAT     H193617   5.515   1.825   8.788
31125WAT     H293618   5.632   1.939   8.786
31126WAT      O93619   7.617   4.004   7.505
31126WAT     H193620   7.549   3.974   7.572
31126WAT     H293621   7.573   4.021   7.417
31127WAT      O93622   6.356   3.514   8.766
31127WAT     H193623   6.321   3.452   8.695
31127WAT     H293624   6.357   3.467   8.854
31128WAT      O93625   6.405   1.967   2.002
31128WAT     H193626   6.391   1.981   1.904
31128WAT     H293627   6.492   2.006   2.030
31129WAT      O93628   6.368   0.454   0.922
31129WAT     H193629   6.317   0.368   0.928
31129WAT     H293630   6.466   0.435   0.930
31130WAT      O93631   1.065   6.702   0.931
31130WAT     H193632   1.053   6.771   0.859
31130WAT     H293633   1.107   6.620   0.892
31131WAT      O93634   8.126   5.269   2.634
31131WAT     H193635   8.094   5.362   2.649
31131WAT     H293636   8.156   5.259   2.539
31132WAT      O93637   3.523   0.981   5.830
31132WAT     H193638   3.538   0.882   5.833
31132WAT     H293639   3.563   1.018   5.747
31133WAT      O93640   2.893   0.614   6.499
31133WAT     H193641   2.889   0.692   6.437
31133WAT     H293642   2.919   0.646   6.590
31134WAT      O93643   2.128   1.672   7.725
31134WAT     H193644   2.188   1.707   7.797
31134WAT     H293645   2.180   1.660   7.641
31135WAT      O93646   4.666   2.721   8.920
31135WAT     H193647   4.692   2.744   8.826
31135WAT     H293648   4.628   2.629   8.923
31136WAT      O93649   4.097   2.259   7.704
31136WAT     H193650   4.005   2.253   7.743
31136WAT     H293651   4.092   2.295   7.611
31137WAT      O93652   7.208   4.367   7.235
31137WAT     H193653   7.125   4.394   7.186
31137WAT     H293654   7.216   4.422   7.318
31138WAT      O93655   7.595   7.263   2.822
31138WAT     H193656   7.609   7.180   2.769
31138WAT     H293657   7.661   7.268   2.897
31139WAT      O93658   4.493   2.519   9.343
31139WAT     H193659   4.457   2.466   9.267
31139WAT     H293660   4.552   2.461   9.399
31140WAT      O93661   7.211   8.903   0.827
31140WAT     H193662   7.206   9.001   0.807
31140WAT     H293663   7.126   8.859   0.801
31141WAT      O93664   2.603   7.250   4.656
31141WAT     H193665   2.592   7.174   4.591
31141WAT     H293666   2.549   7.328   4.624
31142WAT      O93667   9.600   8.415   9.152
31142WAT     H193668   9.535   8.437   9.226
31142WAT     H293669   9.682   8.373   9.191
31143WAT      O93670   7.889   4.968   7.019
31143WAT     H193671   7.917   4.993   6.926
31143WAT     H293672   7.799   5.007   7.039
31144WAT      O93673   1.979   3.184   5.250
31144WAT     H193674   2.056   3.120   5.248
31144WAT     H293675   2.002   3.262   5.308
31145WAT      O93676   0.656   7.143   5.896
31145WAT     H193677   0.607   7.071   5.847
31145WAT     H293678   0.614   7.232   5.876
31146WAT      O93679   1.452   2.487   0.042
31146WAT     H193680   1.433   2.506  -0.055
31146WAT     H293681   1.503   2.564   0.081
31147WAT      O93682   6.814   8.392   9.670
31147WAT     H193683   6.829   8.445   9.753
31147WAT     H293684   6.720   8.360   9.666
31148WAT      O93685   2.849   3.312   8.365
31148WAT     H193686   2.932   3.320   8.421
31148WAT     H293687   2.780   3.258   8.415
31149WAT      O93688   7.353   2.030   1.037
31149WAT     H193689   7.402   2.094   0.978
31149WAT     H293690   7.305   2.081   1.109
31150WAT      O93691   6.175   9.075   1.275
31150WAT     H193692   6.095   9.096   1.219
31150WAT     H293693   6.147   9.021   1.354
31151WAT      O93694   4.437   8.071   3.854
31151WAT     H193695   4.375   8.127   3.909
31151WAT     H293696   4.407   8.071   3.759
31152WAT      O93697   3.068   3.611   7.116
31152WAT     H193698   3.054   3.708   7.137
31152WAT     H293699   3.149   3.601   7.058
31153WAT      O93700   5.645   3.074   8.495
31153WAT     H193701   5.723   3.012   8.501
31153WAT     H293702   5.628   3.114   8.585
31154WAT      O93703   1.706   2.179   2.992
31154WAT     H193704   1.694   2.184   2.893
31154WAT     H293705   1.620   2.147   3.034
31155WAT      O93706   4.046   2.898   0.520
31155WAT     H193707   4.051   2.955   0.438
31155WAT     H293708   3.971   2.931   0.578
31156WAT      O93709   3.559   1.470   5.207
31156WAT     H193710   3.540   1.556   5.256
31156WAT     H293711   3.533   1.393   5.264
31157WAT      O93712   6.065   1.219   2.212
31157WAT     H193713   6.020   1.299   2.253
31157WAT     H293714   5.996   1.156   2.179
31158WAT      O93715   4.021   3.958   9.525
31158WAT     H193716   4.090   3.887   9.513
31158WAT     H293717   3.968   3.968   9.441
31159WAT      O93718   8.159   2.246   0.954
31159WAT     H193719   8.094   2.317   0.925
31159WAT     H293720   8.187   2.192   0.874
31160WAT      O93721   8.123   0.793   7.760
31160WAT     H193722   8.179   0.848   7.698
31160WAT     H293723   8.029   0.827   7.759
31161WAT      O93724   5.568   3.558   6.362
31161WAT     H193725   5.601   3.555   6.268
31161WAT     H293726   5.563   3.464   6.398
31162WAT      O93727   7.437   5.127   2.827
31162WAT     H193728   7.472   5.040   2.862
31162WAT     H293729   7.496   5.159   2.753
31163WAT      O93730   0.780   0.174   4.990
31163WAT     H193731   0.737   0.260   4.963
31163WAT     H293732   0.874   0.171   4.954
31164WAT      O93733   3.445   7.059   9.772
31164WAT     H193734   3.419   7.079   9.677
31164WAT     H293735   3.532   7.104   9.793
31165WAT      O93736   7.341   8.707   5.214
31165WAT     H193737   7.380   8.701   5.306
31165WAT     H293738   7.348   8.801   5.181
31166WAT      O93739   4.470   5.115   7.626
31166WAT     H193740   4.537   5.048   7.593
31166WAT     H293741   4.451   5.098   7.723
31167WAT      O93742   1.304   9.338   1.548
31167WAT     H193743   1.234   9.290   1.601
31167WAT     H293744   1.273   9.347   1.453
31168WAT      O93745   4.564   2.048   1.181
31168WAT     H193746   4.539   2.101   1.100
31168WAT     H293747   4.512   1.963   1.182
31169WAT      O93748   5.898   7.397   4.078
31169WAT     H193749   5.993   7.400   4.044
31169WAT     H293750   5.863   7.490   4.087
31170WAT      O93751   0.802   1.212   4.590
31170WAT     H193752   0.808   1.184   4.494
31170WAT     H293753   0.717   1.177   4.629
31171WAT      O93754   0.749   9.744   4.945
31171WAT     H193755   0.845   9.728   4.923
31171WAT     H293756   0.734   9.842   4.959
31172WAT      O93757   6.622   8.201   3.824
31172WAT     H193758   6.524   8.219   3.817
31172WAT     H293759   6.637   8.104   3.843
31173WAT      O93760   6.126   8.732   7.933
31173WAT     H193761   6.073   8.718   7.850
31173WAT     H293762   6.109   8.655   7.996
31174WAT      O93763   6.694   7.703   9.542
31174WAT     H193764   6.695   7.630   9.473
31174WAT     H293765   6.632   7.677   9.616
31175WAT      O93766   2.376   2.588   6.285
31175WAT     H193767   2.280   2.557   6.283
31175WAT     H293768   2.393   2.648   6.207
31176WAT      O93769   9.299   6.769   3.530
31176WAT     H193770   9.204   6.742   3.517
31176WAT     H293771   9.340   6.787   3.440
31177WAT      O93772   9.136   1.494   9.574
31177WAT     H193773   9.226   1.521   9.610
31177WAT     H293774   9.090   1.574   9.535
31178WAT      O93775   0.617   8.236   2.779
31178WAT     H193776   0.707   8.198   2.755
31178WAT     H293777   0.628   8.307   2.849
31179WAT      O93778   0.585   7.913   5.506
31179WAT     H193779   0.591   7.867   5.417
31179WAT     H293780   0.527   7.994   5.498
31180WAT      O93781   5.429   1.176   5.365
31180WAT     H193782   5.499   1.197   5.433
31180WAT     H293783   5.364   1.252   5.359
31181WAT      O93784   2.316   4.914   3.457
31181WAT     H193785   2.264   4.829   3.450
31181WAT     H293786   2.346   4.927   3.551
31182WAT      O93787   6.430   9.834   7.901
31182WAT     H193788   6.340   9.833   7.860
31182WAT     H293789   6.459   9.741   7.923
31183WAT      O93790   2.150   7.413   5.013
31183WAT     H193791   2.226   7.433   5.076
31183WAT     H293792   2.115   7.322   5.032
31184WAT      O93793   8.956   3.809   7.546
31184WAT     H193794   8.959   3.725   7.492
31184WAT     H293795   8.975   3.787   7.642
31185WAT      O93796   0.695   9.844   3.942
31185WAT     H193797   0.652   9.782   3.876
31185WAT     H293798   0.640   9.848   4.026
31186WAT      O93799   7.370   4.183   2.653
31186WAT     H193800   7.386   4.164   2.750
31186WAT     H293801   7.429   4.124   2.597
31187WAT      O93802   2.365   9.172   6.702
31187WAT     H193803   2.276   9.182   6.746
31187WAT     H293804   2.382   9.075   6.684
31188WAT      O93805   8.109   4.546   6.823
31188WAT     H193806   8.059   4.577   6.742
31188WAT     H293807   8.081   4.600   6.902
31189WAT      O93808   6.105   4.294   4.049
31189WAT     H193809   6.180   4.269   4.111
31189WAT     H293810   6.112   4.239   3.966
31190WAT      O93811   5.807   1.755   8.697
31190WAT     H193812   5.841   1.840   8.737
31190WAT     H293813   5.729   1.775   8.638
31191WAT      O93814   6.445   4.378   9.110
31191WAT     H193815   6.419   4.288   9.075
31191WAT     H293816   6.525   4.412   9.061
31192WAT      O93817   2.938   8.176   8.828
31192WAT     H193818   2.999   8.103   8.859
31192WAT     H293819   2.927   8.170   8.728
31193WAT      O93820   0.957   5.713   1.820
31193WAT     H193821   0.931   5.804   1.851
31193WAT     H293822   0.956   5.710   1.720
31194WAT      O93823   4.227   2.701   5.917
31194WAT     H193824   4.222   2.704   5.817
31194WAT     H293825   4.289   2.773   5.949
31195WAT      O93826   5.862   3.814   2.456
31195WAT     H193827   5.879   3.818   2.554
31195WAT     H293828   5.871   3.906   2.417
31196WAT      O93829   4.593   7.378   5.857
31196WAT     H193830   4.625   7.361   5.950
31196WAT     H293831   4.643   7.321   5.792
31197WAT      O93832   9.315   1.120   3.928
31197WAT     H193833   9.266   1.141   4.012
31197WAT     H293834   9.256   1.068   3.866
31198WAT      O93835   8.402   4.456   3.900
31198WAT     H193836   8.315   4.478   3.856
31198WAT     H293837   8.397   4.364   3.939
31199WAT      O93838   6.469   7.941   6.942
31199WAT     H193839   6.552   7.986   6.910
31199WAT     H293840   6.486   7.843   6.953
31200WAT      O93841   5.201   6.335   2.936
31200WAT     H193842   5.290   6.379   2.923
31200WAT     H293843   5.145   6.391   2.996
31201WAT      O93844   5.458   0.476   8.702
31201WAT     H193845   5.372   0.510   8.741
31201WAT     H293846   5.442   0.445   8.608
31202WAT      O93847   3.638   3.358   5.872
31202WAT     H193848   3.728   3.318   5.893
31202WAT     H293849   3.575   3.338   5.947
31203WAT      O93850   3.546   6.996   2.060
31203WAT     H193851   3.498   7.076   2.024
31203WAT     H293852   3.616   7.027   2.125
31204WAT      O93853   8.371   3.233   6.639
31204WAT     H193854   8.321   3.160   6.594
31204WAT     H293855   8.330   3.321   6.616
31205WAT      O93856   5.490   8.887   5.851
31205WAT     H193857   5.396   8.902   5.821
31205WAT     H293858   5.554   8.921   5.782
31206WAT      O93859   4.929   1.525   8.860
31206WAT     H193860   4.950   1.428   8.871
31206WAT     H293861   4.858   1.535   8.790
31207WAT      O93862   8.708   0.959   2.161
31207WAT     H193863   8.685   1.033   2.098
31207WAT     H293864   8.757   0.887   2.112
31208WAT      O93865   1.327   7.654   2.604
31208WAT     H193866   1.374   7.568   2.580
31208WAT     H293867   1.392   7.730   2.598
31209WAT      O93868   5.530   2.256   6.651
31209WAT     H193869   5.502   2.290   6.741
31209WAT     H293870   5.626   2.278   6.635
31210WAT      O93871   0.693   1.895   5.591
31210WAT     H193872   0.625   1.920   5.660
31210WAT     H293873   0.657   1.917   5.500
31211WAT      O93874   6.370   5.440   0.349
31211WAT     H193875   6.314   5.365   0.382
31211WAT     H293876   6.448   5.453   0.411
31212WAT      O93877   1.469   5.928   5.588
31212WAT     H193878   1.523   5.866   5.532
31212WAT     H293879   1.510   6.019   5.587
31213WAT      O93880   8.347   0.005   4.972
31213WAT     H193881   8.287   0.010   4.892
31213WAT     H293882   8.306   0.054   5.048
31214WAT      O93883   7.122   9.125   0.001
31214WAT     H193884   7.165   9.196  -0.055
31214WAT     H293885   7.190   9.084   0.060
31215WAT      O93886   6.501   7.818   5.815
31215WAT     H193887   6.544   7.895   5.863
31215WAT     H293888   6.569   7.776   5.754
31216WAT      O93889   7.905   5.151   2.130
31216WAT     H193890   7.891   5.218   2.203
31216WAT     H293891   7.845   5.072   2.147
31217WAT      O93892   4.141   8.122   1.074
31217WAT     H193893   4.226   8.081   1.106
31217WAT     H293894   4.139   8.219   1.099
31218WAT      O93895   0.445   3.012   6.950
31218WAT     H193896   0.364   3.070   6.952
31218WAT     H293897   0.509   3.041   7.021
31219WAT      O93898   7.128   3.043   3.737
31219WAT     H193899   7.117   2.948   3.764
31219WAT     H293900   7.109   3.103   3.815
31220WAT      O93901   5.523   6.982   0.783
31220WAT     H193902   5.520   7.016   0.877
31220WAT     H293903   5.603   6.924   0.771
31221WAT      O93904   3.988   2.980   8.473
31221WAT     H193905   3.905   2.977   8.528
31221WAT     H293906   3.990   3.065   8.419
31222WAT      O93907   3.063   1.282   7.153
31222WAT     H193908   3.146   1.337   7.156
31222WAT     H293909   3.020   1.282   7.243
31223WAT      O93910   9.571   1.473   7.612
31223WAT     H193911   9.666   1.481   7.644
31223WAT     H293912   9.519   1.416   7.676
31224WAT      O93913   8.275   6.096   5.822
31224WAT     H193914   8.203   6.051   5.770
31224WAT     H293915   8.286   6.049   5.910
31225WAT      O93916   4.152   2.041   1.020
31225WAT     H193917   4.178   2.126   1.067
31225WAT     H293918   4.053   2.029   1.026
31226WAT      O93919   1.431   8.258   2.769
31226WAT     H193920   1.497   8.303   2.708
31226WAT     H293921   1.339   8.290   2.748
31227WAT      O93922   7.156   5.165   0.621
31227WAT     H193923   7.128   5.073   0.591
31227WAT     H293924   7.193   5.160   0.713
31228WAT      O93925   3.052   4.909   1.365
31228WAT     H193926   2.980   4.860   1.413
31228WAT     H293927   3.116   4.948   1.431
31229WAT      O93928   7.313   8.945   0.123
31229WAT     H193929   7.374   8.939   0.044
31229WAT     H293930   7.249   8.867   0.122
31230WAT      O93931   8.300   2.929   6.183
31230WAT     H193932   8.288   2.839   6.142
31230WAT     H293933   8.294   2.999   6.112
31231WAT      O93934   3.161   2.432   3.945
31231WAT     H193935   3.257   2.459   3.949
31231WAT     H293936   3.128   2.414   4.037
31232WAT      O93937   0.264   4.367   6.785
31232WAT     H193938   0.190   4.409   6.733
31232WAT     H293939   0.226   4.302   6.850
31233WAT      O93940   2.318   3.648   0.147
31233WAT     H193941   2.391   3.636   0.079
31233WAT     H293942   2.311   3.744   0.173
31234WAT      O93943   4.360   2.399   6.618
31234WAT     H193944   4.433   2.427   6.557
31234WAT     H293945   4.379   2.432   6.711
31235WAT      O93946   8.177   5.679   6.143
31235WAT     H193947   8.101   5.620   6.117
31235WAT     H293948   8.257   5.624   6.164
31236WAT      O93949   7.035   3.976   5.133
31236WAT     H193950   7.040   4.019   5.043
31236WAT     H293951   7.025   3.877   5.122
31237WAT      O93952   0.892   3.038   3.801
31237WAT     H193953   0.980   3.037   3.849
31237WAT     H293954   0.881   3.124   3.752
31238WAT      O93955   5.131   7.987   0.840
31238WAT     H193956   5.056   7.921   0.828
31238WAT     H293957   5.095   8.080   0.835
31239WAT      O93958   9.882   7.016   2.332
31239WAT     H193959   9.915   7.028   2.239
31239WAT     H293960   9.941   6.952   2.381
31240WAT      O93961   5.405   1.056   5.978
31240WAT     H193962   5.324   0.999   5.971
31240WAT     H293963   5.399   1.132   5.913
31241WAT      O93964   7.109   7.894   8.126
31241WAT     H193965   7.076   7.892   8.221
31241WAT     H293966   7.110   7.988   8.093
31242WAT      O93967   8.845   4.180   5.285
31242WAT     H193968   8.939   4.165   5.254
31242WAT     H293969   8.832   4.276   5.310
31243WAT      O93970   0.488   7.394   8.995
31243WAT     H193971   0.500   7.408   8.897
31243WAT     H293972   0.458   7.479   9.038
31244WAT      O93973   2.408   2.964   9.573
31244WAT     H193974   2.374   2.935   9.484
31244WAT     H293975   2.380   2.898   9.643
31245WAT      O93976   4.971   7.266   9.358
31245WAT     H193977   5.003   7.227   9.272
31245WAT     H293978   4.964   7.193   9.427
31246WAT      O93979   3.698   9.420   5.417
31246WAT     H193980   3.687   9.473   5.501
31246WAT     H293981   3.680   9.480   5.338
31247WAT      O93982   9.422   0.967   9.421
31247WAT     H193983   9.504   0.918   9.391
31247WAT     H293984   9.346   0.944   9.361
31248WAT      O93985   0.575   5.525   6.941
31248WAT     H193986   0.570   5.624   6.956
31248WAT     H293987   0.635   5.485   7.010
31249WAT      O93988   6.660   9.831   6.894
31249WAT     H193989   6.611   9.919   6.901
31249WAT     H293990   6.597   9.761   6.859
31250WAT      O93991   4.678   8.760   9.501
31250WAT     H193992   4.758   8.721   9.546
31250WAT     H293993   4.597   8.704   9.522
31251WAT      O93994   2.187   8.928   0.248
31251WAT     H193995   2.280   8.939   0.214
31251WAT     H293996   2.126   8.904   0.172
31252WAT      O93997   6.921   3.728   6.440
31252WAT     H193998   6.988   3.786   6.393
31252WAT     H293999   6.876   3.780   6.512
31253WAT      O94000   5.671   9.142   2.099
31253WAT     H194001   5.680   9.045   2.076
31253WAT     H294002   5.690   9.198   2.018
31254WAT      O94003   9.682   9.151   5.459
31254WAT     H194004   9.738   9.089   5.514
31254WAT     H294005   9.648   9.225   5.517
31255WAT      O94006   9.663   4.141   7.534
31255WAT     H194007   9.568   4.116   7.548
31255WAT     H294008   9.689   4.213   7.599
31256WAT      O94009   7.718   9.529   9.208
31256WAT     H194010   7.650   9.602   9.214
31256WAT     H294011   7.672   9.442   9.192
31257WAT      O94012   5.704   7.745   9.517
31257WAT     H194013   5.800   7.755   9.488
31257WAT     H294014   5.699   7.682   9.594
31258WAT      O94015   9.809   5.343   5.176
31258WAT     H194016   9.870   5.422   5.173
31258WAT     H294017   9.858   5.261   5.146
31259WAT      O94018   4.937   4.433   8.896
31259WAT     H194019   4.998   4.406   8.970
31259WAT     H294020   4.991   4.465   8.818
31260WAT      O94021   0.893   2.534   3.891
31260WAT     H194022   0.905   2.564   3.985
31260WAT     H294023   0.827   2.593   3.845
31261WAT      O94024   7.093   7.785   3.387
31261WAT     H194025   7.040   7.870   3.375
31261WAT     H294026   7.156   7.775   3.311
31262WAT      O94027   4.415   7.637   7.856
31262WAT     H194028   4.417   7.604   7.762
31262WAT     H294029   4.384   7.733   7.858
31263WAT      O94030   5.385   8.006   0.938
31263WAT     H194031   5.309   7.982   0.878
31263WAT     H294032   5.469   8.012   0.885
31264WAT      O94033   1.917   2.352   8.108
31264WAT     H194034   1.861   2.430   8.134
31264WAT     H294035   1.967   2.319   8.189
31265WAT      O94036   2.987   3.357   9.794
31265WAT     H194037   3.013   3.420   9.720
31265WAT     H294038   2.955   3.410   9.872
31266WAT      O94039   4.067   1.620   8.243
31266WAT     H194040   4.165   1.634   8.248
31266WAT     H294041   4.020   1.697   8.287
31267WAT      O94042   7.966   1.161   7.394
31267WAT     H194043   8.030   1.186   7.467
31267WAT     H294044   8.011   1.169   7.305
31268WAT      O94045   9.295   7.601   0.075
31268WAT     H194046   9.383   7.597   0.123
31268WAT     H294047   9.222   7.575   0.138
31269WAT      O94048   8.781   5.763   9.341
31269WAT     H194049   8.758   5.666   9.340
31269WAT     H294050   8.748   5.804   9.426
31270WAT      O94051   5.852   4.421   3.603
31270WAT     H194052   5.922   4.481   3.563
31270WAT     H294053   5.792   4.388   3.530
31271WAT      O94054   0.327   1.759   0.650
31271WAT     H194055   0.344   1.662   0.667
31271WAT     H294056   0.371   1.813   0.722
31272WAT      O94057   6.307   2.838   3.671
31272WAT     H194058   6.243   2.908   3.639
31272WAT     H294059   6.256   2.762   3.711
31273WAT      O94060   8.723   5.084   2.769
31273WAT     H194061   8.664   5.132   2.704
31273WAT     H294062   8.813   5.070   2.727
31274WAT      O94063   5.236   7.145   7.007
31274WAT     H194064   5.319   7.140   6.950
31274WAT     H294065   5.262   7.153   7.103
31275WAT      O94066   3.788   1.154   3.112
31275WAT     H194067   3.757   1.234   3.061
31275WAT     H294068   3.847   1.184   3.187
31276WAT      O94069   3.026   5.883   9.446
31276WAT     H194070   2.940   5.870   9.496
31276WAT     H294071   3.007   5.928   9.358
31277WAT      O94072   6.925   3.994   7.928
31277WAT     H194073   7.001   3.931   7.918
31277WAT     H294074   6.949   4.066   7.993
31278WAT      O94075   1.004   4.650   5.474
31278WAT     H194076   1.064   4.571   5.470
31278WAT     H294077   0.942   4.641   5.552
31279WAT      O94078   5.797   2.814   5.849
31279WAT     H194079   5.784   2.716   5.861
31279WAT     H294080   5.740   2.846   5.773
31280WAT      O94081   8.381   1.778   7.002
31280WAT     H194082   8.290   1.806   7.032
31280WAT     H294083   8.439   1.859   6.988
31281WAT      O94084   1.757   2.460   5.036
31281WAT     H194085   1.793   2.419   5.120
31281WAT     H294086   1.784   2.404   4.957
31282WAT      O94087   6.340   6.139   3.101
31282WAT     H194088   6.412   6.208   3.107
31282WAT     H294089   6.254   6.183   3.074
31283WAT      O94090   1.219   3.092   3.318
31283WAT     H194091   1.250   3.052   3.405
31283WAT     H294092   1.209   3.191   3.328
31284WAT      O94093   6.802   4.947   2.633
31284WAT     H194094   6.861   5.013   2.586
31284WAT     H294095   6.836   4.930   2.725
31285WAT      O94096   2.427   1.863   9.362
31285WAT     H194097   2.455   1.893   9.453
31285WAT     H294098   2.507   1.832   9.311
31286WAT      O94099   3.833   2.554   0.802
31286WAT     H194100   3.738   2.546   0.773
31286WAT     H294101   3.884   2.608   0.736
31287WAT      O94102   5.564   2.099   7.948
31287WAT     H194103   5.502   2.062   8.017
31287WAT     H294104   5.632   2.030   7.923
31288WAT      O94105   2.974   5.403   6.384
31288WAT     H194106   3.052   5.429   6.328
31288WAT     H294107   2.965   5.467   6.460
31289WAT      O94108   7.549   2.861   7.712
31289WAT     H194109   7.455   2.833   7.695
31289WAT     H294110   7.606   2.780   7.727
31290WAT      O94111   7.484   6.364   4.797
31290WAT     H194112   7.468   6.337   4.702
31290WAT     H294113   7.450   6.458   4.811
31291WAT      O94114   6.855   9.230   4.043
31291WAT     H194115   6.818   9.271   3.960
31291WAT     H294116   6.934   9.174   4.020
31292WAT      O94117   7.507   3.637   1.142
31292WAT     H194118   7.503   3.557   1.082
31292WAT     H294119   7.418   3.683   1.143
31293WAT      O94120   8.093   5.265   7.485
31293WAT     H194121   8.044   5.215   7.413
31293WAT     H294122   8.069   5.362   7.479
31294WAT      O94123   9.880   7.093   3.149
31294WAT     H194124   9.911   7.138   3.066
31294WAT     H294125   9.846   7.001   3.128
31295WAT      O94126   7.725   0.112   2.631
31295WAT     H194127   7.769   0.029   2.599
31295WAT     H294128   7.684   0.160   2.552
31296WAT      O94129   6.947   4.289   8.521
31296WAT     H194130   6.984   4.382   8.516
31296WAT     H294131   6.968   4.240   8.437
31297WAT      O94132   2.509   0.081   3.913
31297WAT     H194133   2.453   0.142   3.970
31297WAT     H294134   2.551   0.134   3.839
31298WAT      O94135   2.255   7.870   8.808
31298WAT     H194136   2.219   7.950   8.760
31298WAT     H294137   2.244   7.789   8.750
31299WAT      O94138   7.484   7.731   1.701
31299WAT     H194139   7.583   7.732   1.693
31299WAT     H294140   7.450   7.825   1.706
31300WAT      O94141   3.624   0.386   0.792
31300WAT     H194142   3.525   0.390   0.780
31300WAT     H294143   3.653   0.291   0.808
31301WAT      O94144   1.466   5.671   3.349
31301WAT     H194145   1.495   5.659   3.254
31301WAT     H294146   1.444   5.582   3.388
31302WAT      O94147   4.079   6.931   0.912
31302WAT     H194148   4.160   6.949   0.857
31302WAT     H294149   4.087   6.842   0.956
31303WAT      O94150   8.297   6.579   9.082
31303WAT     H194151   8.339   6.611   9.167
31303WAT     H294152   8.357   6.513   9.037
31304WAT      O94153   0.138   3.388   1.584
31304WAT     H194154   0.166   3.441   1.503
31304WAT     H294155   0.155   3.442   1.666
31305WAT      O94156   3.857   7.811   7.939
31305WAT     H194157   3.806   7.897   7.946
31305WAT     H294158   3.921   7.805   8.016
31306WAT      O94159   4.524   0.532   8.973
31306WAT     H194160   4.539   0.505   8.878
31306WAT     H294161   4.493   0.452   9.026
31307WAT      O94162   5.156   8.974   1.159
31307WAT     H194163   5.131   9.059   1.206
31307WAT     H294164   5.163   8.900   1.225
31308WAT      O94165   4.084   2.402   6.599
31308WAT     H194166   4.182   2.382   6.606
31308WAT     H294167   4.032   2.319   6.618
31309WAT      O94168   2.852   9.799   1.612
31309WAT     H194169   2.866   9.742   1.693
31309WAT     H294170   2.755   9.796   1.586
31310WAT      O94171   0.904   9.472   6.389
31310WAT     H194172   0.977   9.506   6.329
31310WAT     H294173   0.878   9.544   6.453
31311WAT      O94174   9.070   9.104   2.743
31311WAT     H194175   9.140   9.120   2.813
31311WAT     H294176   9.041   9.008   2.746
31312WAT      O94177   8.855   7.733   1.207
31312WAT     H194178   8.768   7.781   1.219
31312WAT     H294179   8.858   7.652   1.265
31313WAT      O94180   4.827   4.339   3.330
31313WAT     H194181   4.831   4.245   3.297
31313WAT     H294182   4.878   4.347   3.416
31314WAT      O94183   3.305   1.012   1.149
31314WAT     H194184   3.225   1.061   1.116
31314WAT     H294185   3.302   0.918   1.117
31315WAT      O94186   2.250   1.689   4.021
31315WAT     H194187   2.199   1.694   4.107
31315WAT     H294188   2.269   1.782   3.989
31316WAT      O94189   7.745   2.882   8.191
31316WAT     H194190   7.645   2.875   8.187
31316WAT     H294191   7.785   2.843   8.108
31317WAT      O94192   5.378   7.831   8.346
31317WAT     H194193   5.283   7.809   8.326
31317WAT     H294194   5.423   7.752   8.387
31318WAT      O94195   3.684   5.141   8.152
31318WAT     H194196   3.768   5.189   8.127
31318WAT     H294197   3.708   5.048   8.182
31319WAT      O94198   0.634   0.581   1.756
31319WAT     H194199   0.602   0.619   1.669
31319WAT     H294200   0.589   0.494   1.772
31320WAT      O94201   5.610   0.239   8.451
31320WAT     H194202   5.674   0.297   8.400
31320WAT     H294203   5.656   0.156   8.481
31321WAT      O94204   7.353   4.885   0.811
31321WAT     H194205   7.349   4.826   0.730
31321WAT     H294206   7.331   4.831   0.893
31322WAT      O94207   1.309   5.328   6.339
31322WAT     H194208   1.271   5.405   6.390
31322WAT     H294209   1.272   5.329   6.246
31323WAT      O94210   9.276   1.212   8.826
31323WAT     H194211   9.325   1.280   8.771
31323WAT     H294212   9.287   1.235   8.923
31324WAT      O94213   0.304   5.943   9.197
31324WAT     H194214   0.224   5.978   9.245
31324WAT     H294215   0.380   5.934   9.261
31325WAT      O94216   9.274   6.248   5.924
31325WAT     H194217   9.266   6.347   5.915
31325WAT     H294218   9.190   6.204   5.894
31326WAT      O94219   6.650   5.288   6.530
31326WAT     H194220   6.623   5.349   6.604
31326WAT     H294221   6.571   5.233   6.502
31327WAT      O94222   6.584   6.047   1.538
31327WAT     H194223   6.545   6.105   1.467
31327WAT     H294224   6.559   5.951   1.520
31328WAT      O94225   6.477   1.557   8.066
31328WAT     H194226   6.497   1.574   7.969
31328WAT     H294227   6.381   1.533   8.076
31329WAT      O94228   9.458   8.355   6.889
31329WAT     H194229   9.376   8.369   6.945
31329WAT     H294230   9.535   8.331   6.949
31330WAT      O94231   4.200   5.028   3.970
31330WAT     H194232   4.233   4.993   3.882
31330WAT     H294233   4.107   5.064   3.959
31331WAT      O94234   8.994   3.937   6.624
31331WAT     H194235   8.905   3.978   6.642
31331WAT     H294236   9.053   4.004   6.579
31332WAT      O94237   0.322   4.126   0.305
31332WAT     H194238   0.300   4.028   0.300
31332WAT     H294239   0.238   4.179   0.310
31333WAT      O94240   3.639   8.670   0.041
31333WAT     H194241   3.717   8.616   0.009
31333WAT     H294242   3.657   8.703   0.133
31334WAT      O94243   9.075   1.444   6.335
31334WAT     H194244   9.103   1.358   6.376
31334WAT     H294245   9.060   1.431   6.237
31335WAT      O94246   0.759   4.352   1.456
31335WAT     H194247   0.808   4.392   1.379
31335WAT     H294248   0.674   4.403   1.471
31336WAT      O94249   5.132   8.571   7.871
31336WAT     H194250   5.053   8.586   7.812
31336WAT     H294251   5.176   8.485   7.846
31337WAT      O94252   7.195   5.474   7.611
31337WAT     H194253   7.241   5.457   7.524
31337WAT     H294254   7.106   5.517   7.594
31338WAT      O94255   2.208   0.750   3.683
31338WAT     H194256   2.289   0.709   3.642
31338WAT     H294257   2.133   0.752   3.616
31339WAT      O94258   3.526   9.119   9.296
31339WAT     H194259   3.545   9.059   9.374
31339WAT     H294260   3.430   9.111   9.271
31340WAT      O94261   3.642   5.011   6.072
31340WAT     H194262   3.623   5.076   5.999
31340WAT     H294263   3.734   4.973   6.060
31341WAT      O94264   1.078   8.816   9.750
31341WAT     H194265   1.111   8.731   9.793
31341WAT     H294266   1.023   8.867   9.815
31342WAT      O94267   7.570   3.037   4.536
31342WAT     H194268   7.573   3.074   4.443
31342WAT     H294269   7.601   2.942   4.534
31343WAT      O94270   1.954   0.318   2.469
31343WAT     H194271   1.997   0.398   2.511
31343WAT     H294272   1.858   0.339   2.450
31344WAT      O94273   8.654   6.313   2.224
31344WAT     H194274   8.578   6.300   2.287
31344WAT     H294275   8.677   6.411   2.219
31345WAT      O94276   3.795   4.819   0.861
31345WAT     H194277   3.723   4.820   0.791
31345WAT     H294278   3.759   4.776   0.944
31346WAT      O94279   4.424   3.476   4.703
31346WAT     H194280   4.483   3.513   4.631
31346WAT     H294281   4.473   3.407   4.755
31347WAT      O94282   2.746   0.811   2.369
31347WAT     H194283   2.774   0.719   2.396
31347WAT     H294284   2.647   0.819   2.378
31348WAT      O94285   9.810   3.270   3.403
31348WAT     H194286   9.876   3.289   3.475
31348WAT     H294287   9.759   3.353   3.380
31349WAT      O94288   1.665   6.097   1.957
31349WAT     H194289   1.568   6.073   1.968
31349WAT     H294290   1.690   6.093   1.861
31350WAT      O94291   6.824   9.462   5.826
31350WAT     H194292   6.727   9.486   5.827
31350WAT     H294293   6.875   9.527   5.883
31351WAT      O94294   5.560   5.835   0.074
31351WAT     H194295   5.507   5.752   0.088
31351WAT     H294296   5.538   5.874  -0.016
31352WAT      O94297   5.615   7.881   6.539
31352WAT     H194298   5.595   7.803   6.599
31352WAT     H294299   5.700   7.864   6.489
31353WAT      O94300   9.004   3.045   4.621
31353WAT     H194301   8.908   3.067   4.611
31353WAT     H294302   9.060   3.123   4.593
31354WAT      O94303   6.200   2.261   3.039
31354WAT     H194304   6.184   2.214   2.952
31354WAT     H294305   6.167   2.355   3.033
31355WAT      O94306   3.393   8.648   3.180
31355WAT     H194307   3.487   8.677   3.166
31355WAT     H294308   3.375   8.564   3.129
31356WAT      O94309   5.231   0.621   8.741
31356WAT     H194310   5.275   0.709   8.753
31356WAT     H294311   5.146   0.618   8.793
31357WAT      O94312   6.127   2.613   3.645
31357WAT     H194313   6.113   2.515   3.662
31357WAT     H294314   6.055   2.664   3.693
31358WAT      O94315   8.057   1.391   0.131
31358WAT     H194316   8.050   1.349   0.041
31358WAT     H294317   8.063   1.491   0.121
31359WAT      O94318   5.221   9.181   8.510
31359WAT     H194319   5.312   9.158   8.477
31359WAT     H294320   5.223   9.271   8.553
31360WAT      O94321   3.330   8.138   9.652
31360WAT     H194322   3.389   8.094   9.720
31360WAT     H294323   3.384   8.201   9.597
31361WAT      O94324   3.387   4.809   7.731
31361WAT     H194325   3.447   4.871   7.681
31361WAT     H294326   3.413   4.807   7.827
31362WAT      O94327   2.317   2.664   7.714
31362WAT     H194328   2.362   2.625   7.633
31362WAT     H294329   2.251   2.733   7.685
31363WAT      O94330   1.749   7.631   0.688
31363WAT     H194331   1.814   7.597   0.620
31363WAT     H294332   1.696   7.706   0.649
31364WAT      O94333   8.538   7.862   8.810
31364WAT     H194334   8.631   7.827   8.801
31364WAT     H294335   8.486   7.842   8.727
31365WAT      O94336   0.117   8.906   9.565
31365WAT     H194337   0.205   8.954   9.570
31365WAT     H294338   0.059   8.935   9.641
31366WAT      O94339   4.382   9.570   5.195
31366WAT     H194340   4.476   9.546   5.173
31366WAT     H294341   4.324   9.554   5.115
31367WAT      O94342   9.273   8.198   7.459
31367WAT     H194343   9.350   8.249   7.421
31367WAT     H294344   9.301   8.157   7.546
31368WAT      O94345   1.434   8.826   9.674
31368WAT     H194346   1.401   8.856   9.585
31368WAT     H294347   1.443   8.726   9.674
31369WAT      O94348   5.695   7.601   4.781
31369WAT     H194349   5.605   7.609   4.738
31369WAT     H294350   5.733   7.511   4.763
31370WAT      O94351   6.727   1.544   6.926
31370WAT     H194352   6.738   1.478   6.852
31370WAT     H294353   6.749   1.636   6.893
31371WAT      O94354   3.441   3.588   9.111
31371WAT     H194355   3.507   3.524   9.149
31371WAT     H294356   3.487   3.647   9.044
31372WAT      O94357   0.147   9.122   2.839
31372WAT     H194358   0.183   9.029   2.834
31372WAT     H294359   0.053   9.120   2.875
31373WAT      O94360   0.825   0.424   7.964
31373WAT     H194361   0.864   0.483   8.035
31373WAT     H294362   0.728   0.448   7.951
31374WAT      O94363   4.144   8.699   6.512
31374WAT     H194364   4.056   8.652   6.520
31374WAT     H294365   4.208   8.659   6.578
31375WAT      O94366   7.035   3.413   8.406
31375WAT     H194367   7.040   3.315   8.424
31375WAT     H294368   6.964   3.454   8.463
31376WAT      O94369   3.366   5.926   3.305
31376WAT     H194370   3.465   5.923   3.292
31376WAT     H294371   3.344   5.987   3.381
31377WAT      O94372   6.955   8.605   6.868
31377WAT     H194373   6.912   8.662   6.938
31377WAT     H294374   6.894   8.529   6.845
31378WAT      O94375   9.382   6.881   9.862
31378WAT     H194376   9.413   6.966   9.819
31378WAT     H294377   9.365   6.897   9.959
31379WAT      O94378   1.881   8.494   1.656
31379WAT     H194379   1.829   8.520   1.737
31379WAT     H294380   1.965   8.447   1.683
31380WAT      O94381   2.312   8.449   3.353
31380WAT     H194382   2.246   8.375   3.363
31380WAT     H294383   2.374   8.429   3.277
31381WAT      O94384   3.414   2.521   3.955
31381WAT     H194385   3.477   2.445   3.974
31381WAT     H294386   3.460   2.608   3.976
31382WAT      O94387   3.211   3.655   4.434
31382WAT     H194388   3.263   3.712   4.498
31382WAT     H294389   3.191   3.567   4.476
31383WAT      O94390   0.430   4.017   9.592
31383WAT     H194391   0.500   3.988   9.657
31383WAT     H294392   0.344   4.033   9.640
31384WAT      O94393   8.149   8.353   1.857
31384WAT     H194394   8.164   8.443   1.817
31384WAT     H294395   8.073   8.357   1.922
31385WAT      O94396   5.493   1.410   2.754
31385WAT     H194397   5.491   1.510   2.749
31385WAT     H294398   5.463   1.372   2.667
31386WAT      O94399   6.436   9.659   8.206
31386WAT     H194400   6.353   9.605   8.213
31386WAT     H294401   6.473   9.653   8.113
31387WAT      O94402   8.901   9.744   1.407
31387WAT     H194403   8.856   9.659   1.434
31387WAT     H294404   8.878   9.764   1.312
31388WAT      O94405   4.818   0.772   2.211
31388WAT     H194406   4.739   0.828   2.235
31388WAT     H294407   4.789   0.699   2.149
31389WAT      O94408   2.559   3.910   1.040
31389WAT     H194409   2.538   3.984   1.104
31389WAT     H294410   2.640   3.860   1.072
31390WAT      O94411   1.801   1.546   4.607
31390WAT     H194412   1.809   1.633   4.656
31390WAT     H294413   1.708   1.536   4.571
31391WAT      O94414   4.806   0.009   0.681
31391WAT     H194415   4.842  -0.015   0.771
31391WAT     H294416   4.788  -0.075   0.629
31392WAT      O94417   5.761   2.816   0.952
31392WAT     H194418   5.712   2.748   1.007
31392WAT     H294419   5.805   2.770   0.874
31393WAT      O94420   9.372   8.343   9.665
31393WAT     H194421   9.334   8.285   9.737
31393WAT     H294422   9.325   8.431   9.665
31394WAT      O94423   2.479   5.264   6.140
31394WAT     H194424   2.552   5.301   6.198
31394WAT     H294425   2.497   5.167   6.122
31395WAT      O94426   9.850   0.939   2.974
31395WAT     H194427   9.918   0.963   2.905
31395WAT     H294428   9.854   0.841   2.991
31396WAT      O94429   8.532   0.340   8.547
31396WAT     H194430   8.599   0.329   8.474
31396WAT     H294431   8.554   0.279   8.623
31397WAT      O94432   6.063   2.154   4.382
31397WAT     H194433   6.030   2.245   4.405
31397WAT     H294434   5.994   2.086   4.406
31398WAT      O94435   5.754   6.599   8.249
31398WAT     H194436   5.670   6.566   8.292
31398WAT     H294437   5.766   6.555   8.160
31399WAT      O94438   4.434   3.366   1.219
31399WAT     H194439   4.460   3.460   1.196
31399WAT     H294440   4.515   3.308   1.223
31400WAT      O94441   3.482   7.254   1.952
31400WAT     H194442   3.526   7.342   1.971
31400WAT     H294443   3.477   7.240   1.853
31401WAT      O94444   1.778   2.872   3.023
31401WAT     H194445   1.803   2.776   3.040
31401WAT     H294446   1.696   2.894   3.075
31402WAT      O94447   7.063   1.810   3.662
31402WAT     H194448   6.993   1.870   3.699
31402WAT     H294449   7.148   1.862   3.648
31403WAT      O94450   2.798   0.930   1.594
31403WAT     H194451   2.706   0.904   1.565
31403WAT     H294452   2.802   0.935   1.693
31404WAT      O94453   4.048   6.899   7.839
31404WAT     H194454   4.057   6.997   7.822
31404WAT     H294455   4.103   6.849   7.773
31405WAT      O94456   0.443   5.911   2.916
31405WAT     H194457   0.484   5.980   2.857
31405WAT     H294458   0.504   5.833   2.925
31406WAT      O94459   0.910   7.723   0.267
31406WAT     H194460   0.961   7.802   0.300
31406WAT     H294461   0.917   7.648   0.332
31407WAT      O94462   7.949   8.896   9.354
31407WAT     H194463   8.012   8.820   9.369
31407WAT     H294464   7.901   8.882   9.267
31408WAT      O94465   8.492   8.657   3.951
31408WAT     H194466   8.395   8.677   3.946
31408WAT     H294467   8.536   8.718   4.016
31409WAT      O94468   9.356   2.314   8.169
31409WAT     H194469   9.259   2.340   8.170
31409WAT     H294470   9.379   2.271   8.082
31410WAT      O94471   3.153   1.870   0.861
31410WAT     H194472   3.098   1.938   0.909
31410WAT     H294473   3.222   1.834   0.924
31411WAT      O94474   6.715   2.292   5.311
31411WAT     H194475   6.787   2.230   5.341
31411WAT     H294476   6.751   2.354   5.242
31412WAT      O94477   3.816   4.859   1.788
31412WAT     H194478   3.821   4.829   1.693
31412WAT     H294479   3.908   4.883   1.820
31413WAT      O94480   1.200   5.135   4.352
31413WAT     H194481   1.286   5.125   4.402
31413WAT     H294482   1.185   5.053   4.297
31414WAT      O94483   3.392   4.590   5.339
31414WAT     H194484   3.386   4.577   5.438
31414WAT     H294485   3.301   4.610   5.303
31415WAT      O94486   0.279   7.816   5.162
31415WAT     H194487   0.365   7.827   5.212
31415WAT     H294488   0.215   7.887   5.189
31416WAT      O94489   1.508   7.257   4.781
31416WAT     H194490   1.597   7.287   4.814
31416WAT     H294491   1.490   7.300   4.692
31417WAT      O94492   6.564   1.144   3.301
31417WAT     H194493   6.658   1.124   3.273
31417WAT     H294494   6.503   1.134   3.222
31418WAT      O94495   2.195   4.622   2.082
31418WAT     H194496   2.218   4.682   2.160
31418WAT     H294497   2.210   4.671   1.997
31419WAT      O94498   2.146   6.579   8.145
31419WAT     H194499   2.206   6.640   8.094
31419WAT     H294500   2.201   6.520   8.204
31420WAT      O94501   2.383   8.998   7.371
31420WAT     H194502   2.364   9.093   7.348
31420WAT     H294503   2.482   8.984   7.378
31421WAT      O94504   4.240   8.357   4.858
31421WAT     H194505   4.296   8.300   4.798
31421WAT     H294506   4.218   8.306   4.941
31422WAT      O94507   5.144   1.734   4.833
31422WAT     H194508   5.055   1.766   4.802
31422WAT     H294509   5.172   1.655   4.778
31423WAT      O94510   4.885   3.528   7.484
31423WAT     H194511   4.976   3.565   7.466
31423WAT     H294512   4.832   3.594   7.538
31424WAT      O94513   0.108   9.717   1.460
31424WAT     H194514   0.019   9.751   1.427
31424WAT     H294515   0.169   9.702   1.382
31425WAT      O94516   6.912   5.750   6.740
31425WAT     H194517   6.984   5.789   6.684
31425WAT     H294518   6.827   5.802   6.727
31426WAT      O94519   7.270   3.311   0.251
31426WAT     H194520   7.307   3.224   0.282
31426WAT     H294521   7.344   3.379   0.247
31427WAT      O94522   5.524   6.559   2.122
31427WAT     H194523   5.474   6.483   2.080
31427WAT     H294524   5.570   6.526   2.206
31428WAT      O94525   5.577   8.609   0.917
31428WAT     H194526   5.651   8.621   0.850
31428WAT     H294527   5.553   8.697   0.957
31429WAT      O94528   5.260   0.672   0.890
31429WAT     H194529   5.335   0.721   0.845
31429WAT     H294530   5.203   0.737   0.939
31430WAT      O94531   4.422   6.071   3.661
31430WAT     H194532   4.398   6.107   3.572
31430WAT     H294533   4.391   6.134   3.732
31431WAT      O94534   5.768   3.421   0.419
31431WAT     H194535   5.863   3.415   0.452
31431WAT     H294536   5.768   3.418   0.319
31432WAT      O94537   7.341   8.476   8.973
31432WAT     H194538   7.346   8.576   8.967
31432WAT     H294539   7.356   8.447   9.067
31433WAT      O94540   7.838   4.652   3.190
31433WAT     H194541   7.788   4.636   3.105
31433WAT     H294542   7.783   4.708   3.252
31434WAT      O94543   0.635   6.039   1.624
31434WAT     H194544   0.587   6.073   1.705
31434WAT     H294545   0.613   5.942   1.611
31435WAT      O94546   9.244   2.772   8.677
31435WAT     H194547   9.173   2.715   8.718
31435WAT     H294548   9.269   2.845   8.740
31436WAT      O94549   0.722   0.791   5.107
31436WAT     H194550   0.696   0.709   5.159
31436WAT     H294551   0.736   0.867   5.171
31437WAT      O94552   9.449   2.684   4.776
31437WAT     H194553   9.393   2.608   4.743
31437WAT     H294554   9.390   2.749   4.824
31438WAT      O94555   6.514   9.563   7.894
31438WAT     H194556   6.473   9.482   7.852
31438WAT     H294557   6.613   9.549   7.903
31439WAT      O94558   4.858   3.324   8.238
31439WAT     H194559   4.908   3.381   8.303
31439WAT     H294560   4.872   3.359   8.145
31440WAT      O94561   1.419   8.270   7.767
31440WAT     H194562   1.449   8.237   7.678
31440WAT     H294563   1.385   8.364   7.758
31441WAT      O94564   0.674   3.089   9.205
31441WAT     H194565   0.649   3.108   9.300
31441WAT     H294566   0.716   3.170   9.165
31442WAT      O94567   5.950   0.623   1.338
31442WAT     H194568   5.985   0.714   1.315
31442WAT     H294569   5.946   0.614   1.438
31443WAT      O94570   5.968   7.685   2.264
31443WAT     H194571   5.998   7.593   2.239
31443WAT     H294572   6.036   7.752   2.233
31444WAT      O94573   5.893   3.074   4.030
31444WAT     H194574   5.854   3.124   3.952
31444WAT     H294575   5.992   3.073   4.024
31445WAT      O94576   6.377   2.594   4.423
31445WAT     H194577   6.376   2.503   4.382
31445WAT     H294578   6.284   2.633   4.421
31446WAT      O94579   4.008   4.812   5.148
31446WAT     H194580   3.921   4.765   5.168
31446WAT     H294581   4.077   4.783   5.214
31447WAT      O94582   1.788   4.671   8.201
31447WAT     H194583   1.821   4.630   8.116
31447WAT     H294584   1.866   4.698   8.258
31448WAT      O94585   9.268   9.615   6.458
31448WAT     H194586   9.337   9.625   6.529
31448WAT     H294587   9.269   9.522   6.422
31449WAT      O94588   2.060   7.418   9.339
31449WAT     H194589   2.100   7.326   9.342
31449WAT     H294590   2.130   7.485   9.364
31450WAT      O94591   8.800   0.850   4.634
31450WAT     H194592   8.734   0.795   4.685
31450WAT     H294593   8.871   0.791   4.596
31451WAT      O94594   6.589   6.970   5.317
31451WAT     H194595   6.633   6.884   5.292
31451WAT     H294596   6.656   7.044   5.314
31452WAT      O94597   4.384   3.283   5.198
31452WAT     H194598   4.390   3.363   5.139
31452WAT     H294599   4.383   3.200   5.143
31453WAT      O94600   0.776   9.209   2.185
31453WAT     H194601   0.861   9.211   2.133
31453WAT     H294602   0.791   9.158   2.270
31454WAT      O94603   7.194   7.563   2.324
31454WAT     H194604   7.150   7.511   2.251
31454WAT     H294605   7.156   7.656   2.327
31455WAT      O94606   6.115   5.396   7.316
31455WAT     H194607   6.174   5.416   7.238
31455WAT     H294608   6.137   5.307   7.354
31456WAT      O94609   3.139   2.074   0.264
31456WAT     H194610   3.061   2.111   0.315
31456WAT     H294611   3.106   2.011   0.194
31457WAT      O94612   7.326   3.208   5.848
31457WAT     H194613   7.343   3.115   5.814
31457WAT     H294614   7.412   3.249   5.876
31458WAT      O94615   5.259   7.788   9.177
31458WAT     H194616   5.161   7.805   9.162
31458WAT     H294617   5.304   7.873   9.204
31459WAT      O94618   4.710   9.322   7.074
31459WAT     H194619   4.747   9.397   7.129
31459WAT     H294620   4.639   9.357   7.014
31460WAT      O94621   0.735   6.584   5.994
31460WAT     H194622   0.642   6.605   6.023
31460WAT     H294623   0.734   6.511   5.926
31461WAT      O94624   6.508   8.221   1.182
31461WAT     H194625   6.598   8.195   1.215
31461WAT     H294626   6.513   8.238   1.083
31462WAT      O94627   0.411   8.099   2.335
31462WAT     H194628   0.487   8.088   2.399
31462WAT     H294629   0.432   8.050   2.250
31463WAT      O94630   1.666   0.253   6.695
31463WAT     H194631   1.753   0.242   6.647
31463WAT     H294632   1.597   0.195   6.653
31464WAT      O94633   5.415   0.539   4.222
31464WAT     H194634   5.451   0.554   4.130
31464WAT     H294635   5.324   0.578   4.229
31465WAT      O94636   8.051   4.544   8.995
31465WAT     H194637   8.096   4.618   9.045
31465WAT     H294638   8.110   4.463   8.995
31466WAT      O94639   9.792   4.124   4.527
31466WAT     H194640   9.723   4.192   4.552
31466WAT     H294641   9.862   4.119   4.598
31467WAT      O94642   8.152   5.704   7.829
31467WAT     H194643   8.203   5.786   7.855
31467WAT     H294644   8.193   5.624   7.873
31468WAT      O94645   7.650   4.848   5.541
31468WAT     H194646   7.587   4.804   5.476
31468WAT     H294647   7.633   4.946   5.543
31469WAT      O94648   6.750   9.439   5.426
31469WAT     H194649   6.701   9.431   5.339
31469WAT     H294650   6.771   9.348   5.462
31470WAT      O94651   9.510   6.446   2.256
31470WAT     H194652   9.466   6.480   2.339
31470WAT     H294653   9.466   6.362   2.227
31471WAT      O94654   7.001   4.408   5.807
31471WAT     H194655   7.072   4.475   5.827
31471WAT     H294656   6.991   4.345   5.884
31472WAT      O94657   2.767   4.313   1.770
31472WAT     H194658   2.706   4.250   1.818
31472WAT     H294659   2.835   4.349   1.834
31473WAT      O94660   2.310   6.866   4.354
31473WAT     H194661   2.246   6.796   4.384
31473WAT     H294662   2.352   6.909   4.434
31474WAT      O94663   6.358   7.165   1.871
31474WAT     H194664   6.320   7.249   1.832
31474WAT     H294665   6.457   7.166   1.860
31475WAT      O94666   8.147   9.724   7.217
31475WAT     H194667   8.061   9.759   7.256
31475WAT     H294668   8.224   9.760   7.269
31476WAT      O94669   4.509   1.574   7.502
31476WAT     H194670   4.548   1.661   7.471
31476WAT     H294671   4.564   1.499   7.467
31477WAT      O94672   0.461   6.326   6.036
31477WAT     H194673   0.432   6.233   6.058
31477WAT     H294674   0.398   6.391   6.078
31478WAT      O94675   3.218   9.562   3.085
31478WAT     H194676   3.199   9.550   3.183
31478WAT     H294677   3.131   9.565   3.035
31479WAT      O94678   9.439   7.260   2.350
31479WAT     H194679   9.427   7.239   2.447
31479WAT     H294680   9.522   7.215   2.317
31480WAT      O94681   5.364   9.127   8.167
31480WAT     H194682   5.393   9.091   8.255
31480WAT     H294683   5.305   9.207   8.180
31481WAT      O94684   0.458   6.026   5.341
31481WAT     H194685   0.468   5.989   5.249
31481WAT     H294686   0.509   5.970   5.406
31482WAT      O94687   3.707   0.757   1.640
31482WAT     H194688   3.666   0.705   1.564
31482WAT     H294689   3.777   0.702   1.684
31483WAT      O94690   0.534   6.934   9.593
31483WAT     H194691   0.455   6.872   9.594
31483WAT     H294692   0.553   6.962   9.499
31484WAT      O94693   1.742   3.107   8.695
31484WAT     H194694   1.677   3.155   8.635
31484WAT     H294695   1.781   3.029   8.646
31485WAT      O94696   6.112   9.482   7.058
31485WAT     H194697   6.073   9.570   7.085
31485WAT     H294698   6.210   9.493   7.041
31486WAT      O94699   8.128   6.604   7.496
31486WAT     H194700   8.209   6.548   7.516
31486WAT     H294701   8.103   6.594   7.400
31487WAT      O94702   8.599   9.135   6.171
31487WAT     H194703   8.649   9.102   6.091
31487WAT     H294704   8.583   9.233   6.162
31488WAT      O94705   2.179   8.674   6.362
31488WAT     H194706   2.187   8.770   6.388
31488WAT     H294707   2.262   8.645   6.314
31489WAT      O94708   0.269   5.056   9.110
31489WAT     H194709   0.248   5.114   9.031
31489WAT     H294710   0.184   5.018   9.146
31490WAT      O94711   3.275   4.364   8.496
31490WAT     H194712   3.202   4.404   8.441
31490WAT     H294713   3.246   4.274   8.529
31491WAT      O94714   8.857   5.587   4.977
31491WAT     H194715   8.950   5.568   5.009
31491WAT     H294716   8.854   5.585   4.877
31492WAT      O94717   8.733   3.788   8.296
31492WAT     H194718   8.817   3.756   8.341
31492WAT     H294719   8.713   3.882   8.325
31493WAT      O94720   0.882   5.287   7.861
31493WAT     H194721   0.803   5.326   7.909
31493WAT     H294722   0.882   5.187   7.874
31494WAT      O94723   6.642   2.694   3.517
31494WAT     H194724   6.579   2.627   3.478
31494WAT     H294725   6.593   2.780   3.532
31495WAT      O94726   2.316   9.538   0.315
31495WAT     H194727   2.343   9.491   0.231
31495WAT     H294728   2.342   9.482   0.394
31496WAT      O94729   1.492   5.402   8.046
31496WAT     H194730   1.405   5.438   8.013
31496WAT     H294731   1.481   5.370   8.141
31497WAT      O94732   5.524   2.071   1.644
31497WAT     H194733   5.527   2.170   1.657
31497WAT     H294734   5.515   2.050   1.547
31498WAT      O94735   5.825   0.202   2.973
31498WAT     H194736   5.768   0.206   2.892
31498WAT     H294737   5.920   0.222   2.948
31499WAT      O94738   6.082   9.346   4.918
31499WAT     H194739   6.077   9.249   4.892
31499WAT     H294740   6.022   9.399   4.858
31500WAT      O94741   7.398   4.175   0.740
31500WAT     H194742   7.435   4.135   0.656
31500WAT     H294743   7.306   4.209   0.723
31501WAT      O94744   6.833   5.030   0.547
31501WAT     H194745   6.739   5.017   0.579
31501WAT     H294746   6.896   4.985   0.610
31502WAT      O94747   4.492   7.604   9.414
31502WAT     H194748   4.444   7.521   9.442
31502WAT     H294749   4.426   7.678   9.400
31503WAT      O94750   5.871   1.360   3.263
31503WAT     H194751   5.937   1.297   3.305
31503WAT     H294752   5.796   1.377   3.328
31504WAT      O94753   8.111   4.600   3.781
31504WAT     H194754   8.011   4.600   3.780
31504WAT     H294755   8.145   4.693   3.797
31505WAT      O94756   9.850   3.281   0.965
31505WAT     H194757   9.904   3.341   0.908
31505WAT     H294758   9.911   3.221   1.017
31506WAT      O94759   9.602   9.684   1.541
31506WAT     H194760   9.615   9.584   1.537
31506WAT     H294761   9.637   9.724   1.456
31507WAT      O94762   3.352   2.184   5.226
31507WAT     H194763   3.341   2.228   5.137
31507WAT     H294764   3.307   2.240   5.296
31508WAT      O94765   4.754   0.117   6.986
31508WAT     H194766   4.711   0.207   6.993
31508WAT     H294767   4.811   0.113   6.904
31509WAT      O94768   7.956   8.125   1.107
31509WAT     H194769   7.979   8.043   1.054
31509WAT     H294770   8.036   8.153   1.160
31510WAT      O94771   5.935   5.474   6.725
31510WAT     H194772   5.961   5.478   6.629
31510WAT     H294773   5.837   5.453   6.732
31511WAT      O94774   8.240   3.777   7.920
31511WAT     H194775   8.275   3.766   7.827
31511WAT     H294776   8.314   3.762   7.986
31512WAT      O94777   7.523   9.677   6.630
31512WAT     H194778   7.571   9.753   6.673
31512WAT     H294779   7.568   9.654   6.543
31513WAT      O94780   9.748   1.713   3.946
31513WAT     H194781   9.786   1.726   4.037
31513WAT     H294782   9.692   1.629   3.945
31514WAT      O94783   1.347   7.224   1.046
31514WAT     H194784   1.269   7.208   1.106
31514WAT     H294785   1.336   7.311   0.998
31515WAT      O94786   8.427   1.416   3.536
31515WAT     H194787   8.345   1.440   3.589
31515WAT     H294788   8.445   1.318   3.546
31516WAT      O94789   6.981   9.633   1.925
31516WAT     H194790   6.957   9.675   1.837
31516WAT     H294791   6.932   9.680   1.998
31517WAT      O94792   1.415   3.912   4.059
31517WAT     H194793   1.366   3.998   4.077
31517WAT     H294794   1.422   3.859   4.144
31518WAT      O94795   4.755   2.819   1.981
31518WAT     H194796   4.812   2.738   1.965
31518WAT     H294797   4.692   2.800   2.056
31519WAT      O94798   9.512   3.234   5.795
31519WAT     H194799   9.537   3.153   5.742
31519WAT     H294800   9.593   3.270   5.841
31520WAT      O94801   5.511   6.859   1.437
31520WAT     H194802   5.466   6.890   1.353
31520WAT     H294803   5.549   6.937   1.486
31521WAT      O94804   6.315   5.429   5.035
31521WAT     H194805   6.413   5.408   5.028
31521WAT     H294806   6.302   5.527   5.048
31522WAT      O94807   5.200   6.025   1.844
31522WAT     H194808   5.206   5.931   1.877
31522WAT     H294809   5.230   6.028   1.748
31523WAT      O94810   2.388   7.629   5.839
31523WAT     H194811   2.376   7.719   5.798
31523WAT     H294812   2.386   7.637   5.938
31524WAT      O94813   6.197   3.066   8.847
31524WAT     H194814   6.271   3.000   8.837
31524WAT     H294815   6.159   3.087   8.757
31525WAT      O94816   6.479   0.066   5.883
31525WAT     H194817   6.570   0.027   5.884
31525WAT     H294818   6.433   0.049   5.970
31526WAT      O94819   7.521   8.617   7.596
31526WAT     H194820   7.564   8.700   7.632
31526WAT     H294821   7.440   8.642   7.543
31527WAT      O94822   1.330   8.362   6.538
31527WAT     H194823   1.307   8.365   6.635
31527WAT     H294824   1.259   8.311   6.489
31528WAT      O94825   1.917   4.750   9.571
31528WAT     H194826   1.872   4.704   9.494
31528WAT     H294827   1.884   4.712   9.657
31529WAT      O94828   3.910   6.427   9.429
31529WAT     H194829   3.844   6.392   9.363
31529WAT     H294830   3.976   6.354   9.452
31530WAT      O94831   7.605   6.476   9.157
31530WAT     H194832   7.528   6.511   9.209
31530WAT     H294833   7.604   6.516   9.065
31531WAT      O94834   8.879   9.452   4.971
31531WAT     H194835   8.819   9.418   5.043
31531WAT     H294836   8.943   9.379   4.943
31532WAT      O94837   0.025   9.728   8.635
31532WAT     H194838   0.042   9.826   8.642
31532WAT     H294839   0.112   9.679   8.631
31533WAT      O94840   9.360   9.076   9.216
31533WAT     H194841   9.452   9.046   9.191
31533WAT     H294842   9.295   9.004   9.193
31534WAT      O94843   7.781   9.142   5.196
31534WAT     H194844   7.693   9.190   5.196
31534WAT     H294845   7.829   9.162   5.282
31535WAT      O94846   9.419   1.026   2.939
31535WAT     H194847   9.417   0.940   2.989
31535WAT     H294848   9.366   1.017   2.854
31536WAT      O94849   5.936   4.378   5.271
31536WAT     H194850   6.028   4.415   5.267
31536WAT     H294851   5.869   4.451   5.256
31537WAT      O94852   3.672   0.908   8.634
31537WAT     H194853   3.770   0.926   8.631
31537WAT     H294854   3.623   0.988   8.599
31538WAT      O94855   4.597   9.737   4.474
31538WAT     H194856   4.555   9.658   4.517
31538WAT     H294857   4.532   9.812   4.471
31539WAT      O94858   1.337   8.077   8.448
31539WAT     H194859   1.324   8.049   8.353
31539WAT     H294860   1.415   8.139   8.455
31540WAT      O94861   6.992   6.324   1.301
31540WAT     H194862   6.907   6.364   1.336
31540WAT     H294863   7.056   6.309   1.377
31541WAT      O94864   7.046   1.382   0.162
31541WAT     H194865   7.045   1.377   0.062
31541WAT     H294866   7.002   1.467   0.192
31542WAT      O94867   3.648   6.244   4.311
31542WAT     H194868   3.613   6.300   4.386
31542WAT     H294869   3.610   6.277   4.224
31543WAT      O94870   8.886   5.954   6.145
31543WAT     H194871   8.823   5.883   6.175
31543WAT     H294872   8.845   6.007   6.071
31544WAT      O94873   1.680   7.671   4.782
31544WAT     H194874   1.749   7.605   4.813
31544WAT     H294875   1.589   7.631   4.793
31545WAT      O94876   8.738   5.041   0.295
31545WAT     H194877   8.737   5.103   0.373
31545WAT     H294878   8.821   4.985   0.297
31546WAT      O94879   1.126   7.727   0.625
31546WAT     H194880   1.221   7.736   0.654
31546WAT     H294881   1.105   7.798   0.558
31547WAT      O94882   9.038   7.079   2.861
31547WAT     H194883   9.094   7.162   2.863
31547WAT     H294884   9.097   6.999   2.853
31548WAT      O94885   3.993   9.036   3.548
31548WAT     H194886   3.994   9.086   3.635
31548WAT     H294887   3.966   9.098   3.475
31549WAT      O94888   8.384   7.638   6.495
31549WAT     H194889   8.291   7.670   6.476
31549WAT     H294890   8.383   7.574   6.571
31550WAT      O94891   7.370   3.582   1.657
31550WAT     H194892   7.438   3.554   1.724
31550WAT     H294893   7.340   3.675   1.675
31551WAT      O94894   3.103   0.940   9.208
31551WAT     H194895   3.143   0.991   9.132
31551WAT     H294896   3.075   0.849   9.176
31552WAT      O94897   8.880   5.685   1.538
31552WAT     H194898   8.958   5.642   1.492
31552WAT     H294899   8.814   5.615   1.564
31553WAT      O94900   8.821   2.893   1.042
31553WAT     H194901   8.825   2.914   1.139
31553WAT     H294902   8.896   2.940   0.995
31554WAT      O94903   8.649   6.861   9.609
31554WAT     H194904   8.632   6.837   9.513
31554WAT     H294905   8.578   6.924   9.640
31555WAT      O94906   9.286   4.892   7.217
31555WAT     H194907   9.254   4.903   7.310
31555WAT     H294908   9.302   4.983   7.176
31556WAT      O94909   6.435   8.994   1.693
31556WAT     H194910   6.530   8.963   1.696
31556WAT     H294911   6.433   9.094   1.692
31557WAT      O94912   3.868   6.106   8.162
31557WAT     H194913   3.852   6.044   8.085
31557WAT     H294914   3.898   6.195   8.126
31558WAT      O94915   4.880   8.087   6.247
31558WAT     H194916   4.867   8.186   6.240
31558WAT     H294917   4.804   8.041   6.202
31559WAT      O94918   7.671   8.281   1.804
31559WAT     H194919   7.702   8.279   1.709
31559WAT     H294920   7.648   8.188   1.833
31560WAT      O94921   4.729   6.112   3.110
31560WAT     H194922   4.816   6.162   3.110
31560WAT     H294923   4.669   6.152   3.041
31561WAT      O94924   5.593   9.342   1.533
31561WAT     H194925   5.519   9.295   1.580
31561WAT     H294926   5.555   9.406   1.466
31562WAT      O94927   5.552   1.426   0.278
31562WAT     H194928   5.612   1.381   0.345
31562WAT     H294929   5.562   1.525   0.286
31563WAT      O94930   9.042   9.498   7.011
31563WAT     H194931   9.056   9.400   7.024
31563WAT     H294932   8.988   9.514   6.928
31564WAT      O94933   0.583   9.125   7.066
31564WAT     H194934   0.589   9.210   7.118
31564WAT     H294935   0.661   9.066   7.087
31565WAT      O94936   3.767   1.301   9.039
31565WAT     H194937   3.707   1.381   9.037
31565WAT     H294938   3.722   1.225   8.993
31566WAT      O94939   0.418   1.460   9.160
31566WAT     H194940   0.461   1.405   9.231
31566WAT     H294941   0.488   1.511   9.111
31567WAT      O94942   1.441   9.301   0.245
31567WAT     H194943   1.429   9.360   0.165
31567WAT     H294944   1.359   9.246   0.258
31568WAT      O94945   1.084   8.536   7.098
31568WAT     H194946   1.059   8.588   7.017
31568WAT     H294947   1.138   8.457   7.071
31569WAT      O94948   0.127   4.144   5.425
31569WAT     H194949   0.112   4.062   5.371
31569WAT     H294950   0.169   4.119   5.513
31570WAT      O94951   8.571   5.933   1.105
31570WAT     H194952   8.646   5.999   1.102
31570WAT     H294953   8.607   5.842   1.087
31571WAT      O94954   6.608   4.211   1.014
31571WAT     H194955   6.642   4.162   0.933
31571WAT     H294956   6.521   4.254   0.992
31572WAT      O94957   2.060   0.038   1.431
31572WAT     H194958   2.147  -0.009   1.450
31572WAT     H294959   2.013   0.057   1.518
31573WAT      O94960   6.154   3.216   1.957
31573WAT     H194961   6.196   3.296   1.999
31573WAT     H294962   6.212   3.182   1.883
31574WAT      O94963   9.563   9.525   8.326
31574WAT     H194964   9.580   9.525   8.227
31574WAT     H294965   9.492   9.458   8.347
31575WAT      O94966   8.025   9.583   7.481
31575WAT     H194967   8.125   9.584   7.480
31575WAT     H294968   7.991   9.651   7.415
31576WAT      O94969   8.828   0.223   0.477
31576WAT     H194970   8.759   0.160   0.512
31576WAT     H294971   8.788   0.278   0.403
31577WAT      O94972   1.277   2.290   5.331
31577WAT     H194973   1.249   2.237   5.411
31577WAT     H294974   1.377   2.301   5.333
31578WAT      O94975   1.165   6.612   9.812
31578WAT     H194976   1.245   6.589   9.757
31578WAT     H294977   1.137   6.706   9.792
31579WAT      O94978   5.216   8.162   7.232
31579WAT     H194979   5.141   8.191   7.173
31579WAT     H294980   5.187   8.083   7.286
31580WAT      O94981   4.727   9.318   9.519
31580WAT     H194982   4.740   9.220   9.532
31580WAT     H294983   4.748   9.343   9.425
31581WAT      O94984   3.603   5.116   6.331
31581WAT     H194985   3.628   5.093   6.237
31581WAT     H294986   3.673   5.176   6.371
31582WAT      O94987   3.774   5.039   7.374
31582WAT     H194988   3.846   4.986   7.419
31582WAT     H294989   3.778   5.134   7.404
31583WAT      O94990   8.711   6.214   9.628
31583WAT     H194991   8.729   6.304   9.668
31583WAT     H294992   8.681   6.152   9.701
31584WAT      O94993   2.950   8.360   8.382
31584WAT     H194994   2.994   8.328   8.298
31584WAT     H294995   2.881   8.429   8.359
31585WAT      O94996   9.859   2.457   2.291
31585WAT     H194997   9.897   2.410   2.212
31585WAT     H294998   9.875   2.555   2.282
31586WAT      O94999   5.845   5.445   1.200
31586WAT     H195000   5.899   5.436   1.117
31586WAT     H295001   5.906   5.457   1.279
31587WAT      O95002   7.732   3.764   7.690
31587WAT     H195003   7.679   3.813   7.620
31587WAT     H295004   7.821   3.809   7.702
31588WAT      O95005   5.963   3.009   2.307
31588WAT     H195006   5.909   2.952   2.370
31588WAT     H295007   5.921   3.005   2.216
31589WAT      O95008   3.244   1.621   2.552
31589WAT     H195009   3.337   1.588   2.533
31589WAT     H295010   3.233   1.712   2.511
31590WAT      O95011   0.603   7.493   7.449
31590WAT     H195012   0.603   7.529   7.355
31590WAT     H295013   0.544   7.550   7.506
31591WAT      O95014   9.642   6.544   7.933
31591WAT     H195015   9.547   6.514   7.931
31591WAT     H295016   9.662   6.596   7.850
31592WAT      O95017   5.187   2.153   2.539
31592WAT     H195018   5.171   2.227   2.604
31592WAT     H295019   5.104   2.138   2.485
31593WAT      O95020   3.196   4.979   1.980
31593WAT     H195021   3.165   5.021   1.895
31593WAT     H295022   3.289   5.009   2.000
31594WAT      O95023   9.288   0.195   1.858
31594WAT     H195024   9.313   0.265   1.792
31594WAT     H295025   9.288   0.234   1.950
31595WAT      O95026   7.381   3.742   4.476
31595WAT     H195027   7.290   3.777   4.454
31595WAT     H295028   7.372   3.661   4.534
31596WAT      O95029   4.440   6.672   5.109
31596WAT     H195030   4.480   6.634   5.025
31596WAT     H295031   4.360   6.728   5.085
31597WAT      O95032   6.992   8.392   8.523
31597WAT     H195033   7.010   8.342   8.607
31597WAT     H295034   6.974   8.488   8.545
31598WAT      O95035   0.101   8.381   4.257
31598WAT     H195036   0.200   8.365   4.255
31598WAT     H295037   0.068   8.370   4.350
31599WAT      O95038   8.279   4.033   2.441
31599WAT     H195039   8.209   4.088   2.394
31599WAT     H295040   8.303   4.077   2.527
31600WAT      O95041   7.654   4.223   2.226
31600WAT     H195042   7.565   4.257   2.257
31600WAT     H295043   7.692   4.286   2.158
31601WAT      O95044   9.694   5.203   7.697
31601WAT     H195045   9.633   5.164   7.766
31601WAT     H295046   9.783   5.223   7.739
31602WAT      O95047   4.310   6.852   5.326
31602WAT     H195048   4.391   6.793   5.324
31602WAT     H295049   4.246   6.823   5.255
31603WAT      O95050   6.925   6.005   5.079
31603WAT     H195051   6.985   6.028   5.003
31603WAT     H295052   6.970   5.935   5.136
31604WAT      O95053   0.717   5.615   1.718
31604WAT     H195054   0.803   5.633   1.766
31604WAT     H295055   0.698   5.517   1.720
31605WAT      O95056   9.640   7.640   8.403
31605WAT     H195057   9.733   7.670   8.426
31605WAT     H295058   9.634   7.541   8.411
31606WAT      O95059   9.053   5.056   6.944
31606WAT     H195060   9.114   5.041   6.865
31606WAT     H295061   9.053   5.153   6.967
31607WAT      O95062   6.333   3.334   0.719
31607WAT     H195063   6.327   3.416   0.662
31607WAT     H295064   6.270   3.265   0.685
31608WAT      O95065   8.153   7.668   1.655
31608WAT     H195066   8.069   7.620   1.629
31608WAT     H295067   8.178   7.732   1.583
31609WAT      O95068   3.928   2.110   8.046
31609WAT     H195069   3.930   2.089   7.948
31609WAT     H295070   4.007   2.067   8.090
31610WAT      O95071   7.894   3.991   5.576
31610WAT     H195072   7.979   4.017   5.622
31610WAT     H295073   7.916   3.961   5.483
31611WAT      O95074   7.921   6.188   7.126
31611WAT     H195075   7.868   6.119   7.174
31611WAT     H295076   7.951   6.152   7.037
31612WAT      O95077   5.712   8.552   1.564
31612WAT     H195078   5.787   8.547   1.498
31612WAT     H295079   5.742   8.512   1.651
31613WAT      O95080   2.601   9.804   3.288
31613WAT     H195081   2.519   9.749   3.302
31613WAT     H295082   2.577   9.901   3.293
31614WAT      O95083   9.346   0.398   3.336
31614WAT     H195084   9.408   0.323   3.314
31614WAT     H295085   9.271   0.364   3.394
31615WAT      O95086   4.817   7.782   3.244
31615WAT     H195087   4.845   7.693   3.208
31615WAT     H295088   4.892   7.848   3.231
31616WAT      O95089   0.047   2.656   8.545
31616WAT     H195090   0.051   2.592   8.621
31616WAT     H295091  -0.001   2.614   8.468
31617WAT      O95092   7.328   1.387   2.104
31617WAT     H195093   7.267   1.406   2.180
31617WAT     H295094   7.381   1.469   2.082
31618WAT      O95095   0.951   3.190   2.108
31618WAT     H195096   0.895   3.269   2.131
31618WAT     H295097   0.895   3.123   2.059
31619WAT      O95098   5.886   3.099   5.149
31619WAT     H195099   5.977   3.138   5.135
31619WAT     H295100   5.884   3.006   5.112
31620WAT      O95101   0.241   0.315   1.753
31620WAT     H195102   0.232   0.219   1.726
31620WAT     H295103   0.256   0.372   1.672
31621WAT      O95104   3.988   0.516   1.138
31621WAT     H195105   3.904   0.537   1.187
31621WAT     H295106   3.968   0.452   1.064
31622WAT      O95107   6.917   5.836   5.562
31622WAT     H195108   6.862   5.816   5.642
31622WAT     H295109   6.981   5.910   5.583
31623WAT      O95110   7.937   0.866   6.613
31623WAT     H195111   7.907   0.820   6.697
31623WAT     H295112   8.027   0.907   6.628
31624WAT      O95113   0.377   5.406   0.488
31624WAT     H195114   0.401   5.409   0.391
31624WAT     H295115   0.434   5.472   0.539
31625WAT      O95116   4.389   2.399   6.019
31625WAT     H195117   4.404   2.341   6.099
31625WAT     H295118   4.293   2.394   5.992
31626WAT      O95119   2.556   7.963   4.286
31626WAT     H195120   2.638   7.945   4.231
31626WAT     H295121   2.503   7.879   4.294
31627WAT      O95122   1.911   0.198   9.779
31627WAT     H195123   1.903   0.289   9.738
31627WAT     H295124   2.002   0.187   9.820
31628WAT      O95125   4.319   0.945   3.744
31628WAT     H195126   4.388   0.991   3.688
31628WAT     H295127   4.250   1.011   3.773
31629WAT      O95128   7.578   2.939   1.575
31629WAT     H195129   7.562   2.894   1.662
31629WAT     H295130   7.654   2.895   1.527
31630WAT      O95131   1.283   4.401   6.861
31630WAT     H195132   1.351   4.472   6.844
31630WAT     H295133   1.301   4.358   6.950
31631WAT      O95134   1.394   8.800   2.695
31631WAT     H195135   1.312   8.746   2.711
31631WAT     H295136   1.424   8.788   2.600
31632WAT      O95137   5.937   0.415   4.738
31632WAT     H195138   5.974   0.485   4.677
31632WAT     H295139   5.862   0.453   4.791
31633WAT      O95140   0.626   6.797   2.407
31633WAT     H195141   0.548   6.804   2.345
31633WAT     H295142   0.711   6.802   2.354
31634WAT      O95143   4.370   9.738   3.423
31634WAT     H195144   4.319   9.670   3.370
31634WAT     H295145   4.307   9.796   3.474
31635WAT      O95146   1.062   1.728   9.118
31635WAT     H195147   1.029   1.815   9.081
31635WAT     H295148   1.156   1.712   9.086
31636WAT      O95149   4.142   8.440   2.994
31636WAT     H195150   4.230   8.392   3.000
31636WAT     H295151   4.073   8.379   2.953
31637WAT      O95152   1.168   9.201   5.101
31637WAT     H195153   1.142   9.149   5.183
31637WAT     H295154   1.099   9.189   5.030
31638WAT      O95155   8.316   7.052   8.072
31638WAT     H195156   8.261   7.091   8.145
31638WAT     H295157   8.402   7.017   8.110
31639WAT      O95158   3.288   7.969   2.637
31639WAT     H195159   3.266   8.067   2.642
31639WAT     H295160   3.204   7.918   2.616
31640WAT      O95161   4.653   8.706   5.416
31640WAT     H195162   4.714   8.630   5.442
31640WAT     H295163   4.570   8.669   5.374
31641WAT      O95164   9.721   3.632   1.377
31641WAT     H195165   9.754   3.551   1.330
31641WAT     H295166   9.739   3.624   1.475
31642WAT      O95167   5.101   5.313   1.790
31642WAT     H195168   5.157   5.308   1.707
31642WAT     H295169   5.115   5.231   1.845
31643WAT      O95170   4.366   2.359   9.160
31643WAT     H195171   4.349   2.354   9.061
31643WAT     H295172   4.424   2.282   9.188
31644WAT      O95173   5.614   2.406   0.742
31644WAT     H195174   5.634   2.351   0.661
31644WAT     H295175   5.680   2.481   0.749
31645WAT      O95176   9.473   6.456   7.344
31645WAT     H195177   9.544   6.482   7.410
31645WAT     H295178   9.386   6.496   7.373
31646WAT      O95179   4.056   3.629   8.414
31646WAT     H195180   4.066   3.650   8.317
31646WAT     H295181   4.140   3.589   8.448
31647WAT      O95182   1.795   2.661   9.681
31647WAT     H195183   1.782   2.573   9.634
31647WAT     H295184   1.725   2.725   9.651
31648WAT      O95185   1.566   3.978   6.170
31648WAT     H195186   1.502   4.008   6.099
31648WAT     H295187   1.540   3.888   6.203
31649WAT      O95188   6.605   7.562   3.054
31649WAT     H195189   6.517   7.573   3.101
31649WAT     H295190   6.590   7.513   2.967
31650WAT      O95191   5.100   6.860   2.806
31650WAT     H195192   5.117   6.814   2.718
31650WAT     H295193   5.150   6.947   2.809
31651WAT      O95194   2.299   7.521   6.752
31651WAT     H195195   2.271   7.616   6.765
31651WAT     H295196   2.227   7.460   6.782
31652WAT      O95197   1.148   4.379   3.828
31652WAT     H195198   1.098   4.465   3.822
31652WAT     H295199   1.203   4.366   3.745
31653WAT      O95200   7.925   0.783   0.306
31653WAT     H195201   7.859   0.858   0.309
31653WAT     H295202   7.878   0.696   0.316
31654WAT      O95203   3.513   3.265   1.456
31654WAT     H195204   3.603   3.296   1.426
31654WAT     H295205   3.454   3.344   1.472
31655WAT      O95206   1.784   8.136   2.181
31655WAT     H195207   1.819   8.229   2.195
31655WAT     H295208   1.861   8.073   2.173
31656WAT      O95209   4.445   4.799   7.496
31656WAT     H195210   4.526   4.852   7.468
31656WAT     H295211   4.432   4.807   7.595
31657WAT      O95212   3.446   0.422   6.667
31657WAT     H195213   3.406   0.489   6.729
31657WAT     H295214   3.374   0.374   6.618
31658WAT      O95215   7.060   6.419   2.594
31658WAT     H195216   7.088   6.505   2.551
31658WAT     H295217   7.068   6.344   2.528
31659WAT      O95218   7.258   6.887   2.568
31659WAT     H195219   7.284   6.912   2.661
31659WAT     H295220   7.324   6.925   2.503
31660WAT      O95221   6.453   6.711   1.222
31660WAT     H195222   6.509   6.628   1.211
31660WAT     H295223   6.512   6.790   1.236
31661WAT      O95224   7.037   3.088   2.857
31661WAT     H195225   7.054   3.006   2.913
31661WAT     H295226   7.111   3.153   2.871
31662WAT      O95227   7.632   2.316   2.967
31662WAT     H195228   7.643   2.253   2.890
31662WAT     H295229   7.561   2.382   2.945
31663WAT      O95230   6.243   0.672   1.666
31663WAT     H195231   6.270   0.687   1.761
31663WAT     H295232   6.260   0.756   1.613
31664WAT      O95233   7.638   1.872   4.969
31664WAT     H195234   7.631   1.947   4.902
31664WAT     H295235   7.696   1.901   5.045
31665WAT      O95236   2.105   1.069   2.454
31665WAT     H195237   2.175   1.102   2.518
31665WAT     H295238   2.095   0.970   2.463
31666WAT      O95239   4.036   6.875   1.731
31666WAT     H195240   4.117   6.891   1.674
31666WAT     H295241   4.023   6.777   1.745
31667WAT      O95242   5.951   4.602   7.218
31667WAT     H195243   5.898   4.644   7.292
31667WAT     H295244   5.891   4.582   7.141
31668WAT      O95245   0.786   5.236   4.582
31668WAT     H195246   0.879   5.198   4.587
31668WAT     H295247   0.778   5.292   4.501
31669WAT      O95248   6.309   8.189   5.035
31669WAT     H195249   6.249   8.164   4.960
31669WAT     H295250   6.352   8.107   5.073
31670WAT      O95251   4.959   9.611   2.645
31670WAT     H195252   4.975   9.517   2.615
31670WAT     H295253   4.899   9.657   2.579
31671WAT      O95254   1.443   0.030   8.488
31671WAT     H195255   1.359   0.084   8.475
31671WAT     H295256   1.424  -0.066   8.472
31672WAT      O95257   8.235   3.776   2.690
31672WAT     H195258   8.205   3.750   2.598
31672WAT     H295259   8.335   3.779   2.693
31673WAT      O95260   5.815   9.026   2.785
31673WAT     H195261   5.852   9.046   2.876
31673WAT     H295262   5.743   8.957   2.793
31674WAT      O95263   7.546   5.325   5.928
31674WAT     H195264   7.531   5.256   5.857
31674WAT     H295265   7.466   5.386   5.933
31675WAT      O95266   8.559   6.973   2.015
31675WAT     H195267   8.590   6.881   1.994
31675WAT     H295268   8.630   7.020   2.068
31676WAT      O95269   9.598   3.037   1.123
31676WAT     H195270   9.637   3.112   1.176
31676WAT     H295271   9.499   3.036   1.134
31677WAT      O95272   9.042   6.632   4.553
31677WAT     H195273   8.995   6.689   4.486
31677WAT     H295274   9.093   6.560   4.506
31678WAT      O95275   3.194   0.861   0.780
31678WAT     H195276   3.212   0.832   0.874
31678WAT     H295277   3.219   0.957   0.769
31679WAT      O95278   9.768   6.331   7.067
31679WAT     H195279   9.752   6.300   6.973
31679WAT     H295280   9.865   6.350   7.079
31680WAT      O95281   7.077   9.700   4.432
31680WAT     H195282   7.042   9.606   4.434
31680WAT     H295283   7.052   9.743   4.346
31681WAT      O95284   2.333   0.272   9.609
31681WAT     H195285   2.328   0.267   9.709
31681WAT     H295286   2.426   0.252   9.579
31682WAT      O95287   0.588   3.741   2.080
31682WAT     H195288   0.594   3.728   2.179
31682WAT     H295289   0.612   3.656   2.034
31683WAT      O95290   5.635   8.517   4.772
31683WAT     H195291   5.555   8.457   4.775
31683WAT     H295292   5.684   8.502   4.687
31684WAT      O95293   1.581   2.957   5.152
31684WAT     H195294   1.509   2.909   5.102
31684WAT     H295295   1.638   2.891   5.201
31685WAT      O95296   8.530   8.519   9.614
31685WAT     H195297   8.497   8.435   9.571
31685WAT     H295298   8.460   8.555   9.675
31686WAT      O95299   5.370   5.737   3.221
31686WAT     H195300   5.431   5.680   3.276
31686WAT     H295301   5.277   5.729   3.255
31687WAT      O95302   6.939   6.636   6.460
31687WAT     H195303   7.019   6.575   6.458
31687WAT     H295304   6.865   6.596   6.407
31688WAT      O95305   0.272   7.076   1.578
31688WAT     H195306   0.212   6.999   1.554
31688WAT     H295307   0.321   7.054   1.662
31689WAT      O95308   4.759   9.287   8.306
31689WAT     H195309   4.834   9.227   8.336
31689WAT     H295310   4.730   9.259   8.215
31690WAT      O95311   1.688   3.637   9.162
31690WAT     H195312   1.592   3.623   9.141
31690WAT     H295313   1.721   3.565   9.223
31691WAT      O95314   2.375   1.958   0.117
31691WAT     H195315   2.333   1.964   0.026
31691WAT     H295316   2.434   1.877   0.121
31692WAT      O95317   4.027   5.353   2.660
31692WAT     H195318   3.931   5.327   2.648
31692WAT     H295319   4.061   5.396   2.577
31693WAT      O95320   9.528   3.624   3.992
31693WAT     H195321   9.590   3.697   3.962
31693WAT     H295322   9.486   3.649   4.079
31694WAT      O95323   1.352   3.045   6.118
31694WAT     H195324   1.395   2.957   6.096
31694WAT     H295325   1.326   3.091   6.034
31695WAT      O95326   9.510   2.282   7.917
31695WAT     H195327   9.561   2.332   7.846
31695WAT     H295328   9.449   2.217   7.873
31696WAT      O95329   5.586   9.010   0.138
31696WAT     H195330   5.586   8.979   0.233
31696WAT     H295331   5.522   8.955   0.085
31697WAT      O95332   3.635   5.668   3.062
31697WAT     H195333   3.688   5.724   2.999
31697WAT     H295334   3.611   5.722   3.142
31698WAT      O95335   5.778   8.314   3.230
31698WAT     H195336   5.742   8.251   3.299
31698WAT     H295337   5.848   8.268   3.176
31699WAT      O95338   4.113   2.615   5.252
31699WAT     H195339   4.086   2.705   5.283
31699WAT     H295340   4.032   2.558   5.239
31700WAT      O95341   3.517   0.465   4.801
31700WAT     H195342   3.462   0.548   4.812
31700WAT     H295343   3.471   0.403   4.738
31701WAT      O95344   1.602   2.203   1.221
31701WAT     H195345   1.556   2.249   1.145
31701WAT     H295346   1.682   2.256   1.250
31702WAT      O95347   7.774   4.102   0.261
31702WAT     H195348   7.703   4.100   0.191
31702WAT     H295349   7.784   4.011   0.302
31703WAT      O95350   4.089   7.656   0.070
31703WAT     H195351   4.131   7.595   0.004
31703WAT     H295352   4.026   7.719   0.023
31704WAT      O95353   0.210   2.554   7.868
31704WAT     H195354   0.144   2.524   7.799
31704WAT     H295355   0.299   2.567   7.824
31705WAT      O95356   9.154   0.170   6.501
31705WAT     H195357   9.168   0.224   6.418
31705WAT     H295358   9.184   0.223   6.581
31706WAT      O95359   7.859   2.926   0.897
31706WAT     H195360   7.795   2.930   0.974
31706WAT     H295361   7.874   2.831   0.871
31707WAT      O95362   1.494   0.443   5.696
31707WAT     H195363   1.441   0.366   5.659
31707WAT     H295364   1.591   0.430   5.675
31708WAT      O95365   1.309   5.171   9.401
31708WAT     H195366   1.330   5.209   9.491
31708WAT     H295367   1.323   5.242   9.331
31709WAT      O95368   0.035   9.093   5.729
31709WAT     H195369   0.111   9.086   5.793
31709WAT     H295370   0.052   9.168   5.665
31710WAT      O95371   0.548   5.260   2.744
31710WAT     H195372   0.587   5.172   2.771
31710WAT     H295373   0.621   5.325   2.725
31711WAT      O95374   9.826   1.950   1.540
31711WAT     H195375   9.844   2.014   1.615
31711WAT     H295376   9.899   1.882   1.536
31712WAT      O95377   3.553   0.191   8.677
31712WAT     H195378   3.540   0.106   8.728
31712WAT     H295379   3.518   0.181   8.584
31713WAT      O95380   5.226   4.911   5.150
31713WAT     H195381   5.180   4.858   5.221
31713WAT     H295382   5.169   4.915   5.068
31714WAT      O95383   3.307   5.630   4.899
31714WAT     H195384   3.242   5.585   4.838
31714WAT     H295385   3.304   5.729   4.883
31715WAT      O95386   9.612   0.066   7.137
31715WAT     H195387   9.685   0.122   7.098
31715WAT     H295388   9.631  -0.030   7.117
31716WAT      O95389   7.255   6.177   3.428
31716WAT     H195390   7.275   6.245   3.499
31716WAT     H295391   7.311   6.096   3.443
31717WAT      O95392   0.491   3.815   2.808
31717WAT     H195393   0.540   3.757   2.872
31717WAT     H295394   0.535   3.904   2.802
31718WAT      O95395   8.336   4.712   9.708
31718WAT     H195396   8.319   4.706   9.806
31718WAT     H295397   8.355   4.807   9.683
31719WAT      O95398   4.650   3.357   7.367
31719WAT     H195399   4.694   3.333   7.280
31719WAT     H295400   4.708   3.422   7.416
31720WAT      O95401   8.783   8.178   8.752
31720WAT     H195402   8.833   8.092   8.754
31720WAT     H295403   8.759   8.201   8.658
31721WAT      O95404   3.349   2.887   9.137
31721WAT     H195405   3.313   2.929   9.221
31721WAT     H295406   3.277   2.835   9.092
31722WAT      O95407   6.595   1.896   6.415
31722WAT     H195408   6.604   1.973   6.478
31722WAT     H295409   6.498   1.876   6.400
31723WAT      O95410   2.998   5.767   5.035
31723WAT     H195411   3.067   5.776   5.107
31723WAT     H295412   2.939   5.689   5.056
31724WAT      O95413   2.929   7.816   0.312
31724WAT     H195414   2.847   7.866   0.285
31724WAT     H295415   2.919   7.719   0.286
31725WAT      O95416   6.577   1.775   3.205
31725WAT     H195417   6.489   1.730   3.191
31725WAT     H295418   6.649   1.705   3.213
31726WAT      O95419   9.092   1.543   0.167
31726WAT     H195420   9.144   1.521   0.250
31726WAT     H295421   9.127   1.627   0.126
31727WAT      O95422   4.413   1.518   4.260
31727WAT     H195423   4.325   1.478   4.286
31727WAT     H295424   4.425   1.510   4.161
31728WAT      O95425   3.850   1.775   4.194
31728WAT     H195426   3.880   1.849   4.135
31728WAT     H295427   3.784   1.810   4.261
31729WAT      O95428   4.609   1.398   4.590
31729WAT     H195429   4.631   1.494   4.605
31729WAT     H295430   4.612   1.378   4.492
31730WAT      O95431   3.689   9.757   0.288
31730WAT     H195432   3.608   9.783   0.235
31730WAT     H295433   3.680   9.793   0.381
31731WAT      O95434   8.420   5.098   8.005
31731WAT     H195435   8.481   5.173   8.031
31731WAT     H295436   8.422   5.086   7.906
31732WAT      O95437   9.294   6.014   2.776
31732WAT     H195438   9.329   6.092   2.828
31732WAT     H295439   9.215   5.974   2.823
31733WAT      O95440   6.090   0.832   2.929
31733WAT     H195441   6.164   0.883   2.973
31733WAT     H295442   6.044   0.775   2.996
31734WAT      O95443   1.777   5.815   4.792
31734WAT     H195444   1.741   5.892   4.738
31734WAT     H295445   1.777   5.733   4.735
31735WAT      O95446   7.264   1.636   1.313
31735WAT     H195447   7.327   1.700   1.357
31735WAT     H295448   7.309   1.596   1.232
31736WAT      O95449   7.299   5.216   5.761
31736WAT     H195450   7.253   5.230   5.673
31736WAT     H295451   7.383   5.164   5.747
31737WAT      O95452   6.951   9.009   5.179
31737WAT     H195453   6.980   8.992   5.273
31737WAT     H295454   7.023   8.979   5.116
31738WAT      O95455   6.408   4.592   1.319
31738WAT     H195456   6.446   4.657   1.254
31738WAT     H295457   6.426   4.499   1.287
31739WAT      O95458   5.169   5.722   3.649
31739WAT     H195459   5.093   5.683   3.598
31739WAT     H295460   5.135   5.794   3.710
31740WAT      O95461   3.967   0.894   6.551
31740WAT     H195462   3.990   0.991   6.550
31740WAT     H295463   3.884   0.879   6.497
31741WAT      O95464   2.295   0.592   8.246
31741WAT     H195465   2.252   0.673   8.287
31741WAT     H295466   2.386   0.580   8.286
31742WAT      O95467   1.481   8.596   3.215
31742WAT     H195468   1.551   8.660   3.245
31742WAT     H295469   1.516   8.540   3.140
31743WAT      O95470   3.626   6.028   0.738
31743WAT     H195471   3.593   6.037   0.832
31743WAT     H295472   3.674   5.941   0.728
31744WAT      O95473   7.644   2.816   8.855
31744WAT     H195474   7.659   2.734   8.800
31744WAT     H295475   7.548   2.843   8.849
31745WAT      O95476   8.809   5.327   7.108
31745WAT     H195477   8.757   5.396   7.058
31745WAT     H295478   8.907   5.345   7.096
31746WAT      O95479   6.413   0.662   3.453
31746WAT     H195480   6.318   0.633   3.439
31746WAT     H295481   6.414   0.758   3.479
31747WAT      O95482   1.305   3.109   6.783
31747WAT     H195483   1.357   3.081   6.864
31747WAT     H295484   1.262   3.029   6.742
31748WAT      O95485   6.834   9.139   1.909
31748WAT     H195486   6.874   9.053   1.878
31748WAT     H295487   6.797   9.128   2.001
31749WAT      O95488   5.211   2.963   6.791
31749WAT     H195489   5.219   2.901   6.869
31749WAT     H295490   5.199   2.910   6.707
31750WAT      O95491   7.856   5.466   9.261
31750WAT     H195492   7.785   5.436   9.198
31750WAT     H295493   7.921   5.392   9.276
31751WAT      O95494   6.656   5.191   5.085
31751WAT     H195495   6.612   5.256   5.023
31751WAT     H295496   6.754   5.206   5.084
31752WAT      O95497   1.611   5.836   3.520
31752WAT     H195498   1.597   5.790   3.607
31752WAT     H295499   1.552   5.794   3.450
31753WAT      O95500   8.104   6.622   3.368
31753WAT     H195501   8.041   6.576   3.431
31753WAT     H295502   8.052   6.679   3.305
31754WAT      O95503   7.191   1.535   7.784
31754WAT     H195504   7.284   1.509   7.810
31754WAT     H295505   7.141   1.453   7.756
31755WAT      O95506   1.714   1.783   9.207
31755WAT     H195507   1.792   1.728   9.239
31755WAT     H295508   1.631   1.728   9.211
31756WAT      O95509   1.884   7.124   7.556
31756WAT     H195510   1.944   7.193   7.515
31756WAT     H295511   1.791   7.136   7.523
31757WAT      O95512   7.695   7.001   4.749
31757WAT     H195513   7.758   6.953   4.810
31757WAT     H295514   7.665   7.086   4.793
31758WAT      O95515   2.835   8.664   1.649
31758WAT     H195516   2.749   8.710   1.675
31758WAT     H295517   2.912   8.711   1.693
31759WAT      O95518   1.202   3.832   4.349
31759WAT     H195519   1.102   3.830   4.345
31759WAT     H295520   1.232   3.915   4.396
31760WAT      O95521   9.226   7.493   3.593
31760WAT     H195522   9.313   7.463   3.631
31760WAT     H295523   9.236   7.583   3.551
31761WAT      O95524   9.805   3.976   0.496
31761WAT     H195525   9.822   4.070   0.524
31761WAT     H295526   9.892   3.928   0.484
31762WAT      O95527   7.823   4.759   9.781
31762WAT     H195528   7.752   4.699   9.818
31762WAT     H295529   7.913   4.717   9.796
31763WAT      O95530   7.231   0.085   6.507
31763WAT     H195531   7.223   0.035   6.420
31763WAT     H295532   7.197   0.178   6.495
31764WAT      O95533   1.450   4.895   4.719
31764WAT     H195534   1.401   4.887   4.806
31764WAT     H295535   1.543   4.928   4.736
31765WAT      O95536   1.392   1.655   1.800
31765WAT     H195537   1.434   1.681   1.713
31765WAT     H295538   1.330   1.728   1.830
31766WAT      O95539   7.224   7.707   8.909
31766WAT     H195540   7.261   7.731   8.820
31766WAT     H295541   7.266   7.621   8.940
31767WAT      O95542   5.893   8.257   1.374
31767WAT     H195543   5.963   8.213   1.431
31767WAT     H295544   5.909   8.356   1.371
31768WAT      O95545   0.027   3.711   6.030
31768WAT     H195546   0.075   3.641   6.082
31768WAT     H295547  -0.057   3.672   5.990
31769WAT      O95548   0.992   5.211   2.956
31769WAT     H195549   1.024   5.285   3.014
31769WAT     H295550   0.915   5.165   2.999
31770WAT      O95551   7.811   8.935   5.770
31770WAT     H195552   7.879   8.865   5.790
31770WAT     H295553   7.723   8.909   5.811
31771WAT      O95554   9.608   6.581   2.031
31771WAT     H195555   9.629   6.495   1.985
31771WAT     H295556   9.572   6.562   2.122
31772WAT      O95557   6.309   1.860   6.373
31772WAT     H195558   6.290   1.929   6.302
31772WAT     H295559   6.311   1.769   6.332
31773WAT      O95560   6.353   7.799   0.708
31773WAT     H195561   6.330   7.783   0.612
31773WAT     H295562   6.328   7.893   0.733
31774WAT      O95563   2.337   0.523   2.968
31774WAT     H195564   2.324   0.579   3.049
31774WAT     H295565   2.394   0.444   2.992
31775WAT      O95566   3.246   7.430   6.959
31775WAT     H195567   3.157   7.408   6.999
31775WAT     H295568   3.239   7.516   6.908
31776WAT      O95569   7.032   2.891   7.644
31776WAT     H195570   7.124   2.857   7.624
31776WAT     H295571   7.032   2.935   7.734
31777WAT      O95572   9.393   2.406   1.014
31777WAT     H195573   9.383   2.407   1.113
31777WAT     H295574   9.490   2.401   0.990
31778WAT      O95575   1.209   1.730   6.304
31778WAT     H195576   1.109   1.726   6.296
31778WAT     H295577   1.235   1.813   6.354
31779WAT      O95578   6.096   1.285   5.484
31779WAT     H195579   6.187   1.290   5.523
31779WAT     H295580   6.074   1.190   5.460
31780WAT      O95581   8.318   4.960   1.950
31780WAT     H195582   8.233   5.008   1.971
31780WAT     H295583   8.332   4.887   2.016
31781WAT      O95584   5.458   8.515   3.112
31781WAT     H195585   5.468   8.415   3.110
31781WAT     H295586   5.409   8.545   3.030
31782WAT      O95587   8.770   7.303   3.422
31782WAT     H195588   8.683   7.350   3.438
31782WAT     H295589   8.845   7.368   3.429
31783WAT      O95590   5.793   9.414   0.216
31783WAT     H195591   5.711   9.360   0.201
31783WAT     H295592   5.793   9.451   0.309
31784WAT      O95593   3.653   6.485   7.759
31784WAT     H195594   3.632   6.525   7.848
31784WAT     H295595   3.568   6.460   7.713
31785WAT      O95596   4.207   6.412   0.441
31785WAT     H195597   4.201   6.507   0.471
31785WAT     H295598   4.135   6.358   0.484
31786WAT      O95599   9.568   8.565   4.115
31786WAT     H195600   9.618   8.597   4.034
31786WAT     H295601   9.475   8.541   4.089
31787WAT      O95602   4.958   4.211   6.120
31787WAT     H195603   4.863   4.180   6.126
31787WAT     H295604   5.014   4.159   6.184
31788WAT      O95605   5.120   6.729   7.416
31788WAT     H195606   5.107   6.798   7.487
31788WAT     H295607   5.212   6.691   7.423
31789WAT      O95608   7.548   1.964   2.385
31789WAT     H195609   7.587   2.049   2.349
31789WAT     H295610   7.451   1.977   2.403
31790WAT      O95611   5.412   3.097   8.696
31790WAT     H195612   5.393   3.095   8.794
31790WAT     H295613   5.415   3.004   8.660
31791WAT      O95614   3.976   7.410   8.329
31791WAT     H195615   3.917   7.491   8.326
31791WAT     H295616   3.935   7.337   8.274
31792WAT      O95617   9.118   4.599   2.624
31792WAT     H195618   9.068   4.638   2.701
31792WAT     H295619   9.132   4.668   2.554
31793WAT      O95620   9.001   2.212   7.888
31793WAT     H195621   9.050   2.138   7.934
31793WAT     H295622   8.909   2.220   7.926
31794WAT      O95623   5.630   4.443   0.844
31794WAT     H195624   5.608   4.535   0.873
31794WAT     H295625   5.727   4.424   0.860
31795WAT      O95626   1.732   4.587   8.840
31795WAT     H195627   1.733   4.683   8.810
31795WAT     H295628   1.652   4.541   8.802
31796WAT      O95629   7.617   1.383   5.829
31796WAT     H195630   7.657   1.475   5.830
31796WAT     H295631   7.635   1.338   5.916
31797WAT      O95632   0.863   7.959   6.794
31797WAT     H195633   0.858   7.906   6.710
31797WAT     H295634   0.930   8.033   6.784
31798WAT      O95635   9.462   2.609   2.763
31798WAT     H195636   9.556   2.576   2.759
31798WAT     H295637   9.402   2.535   2.796
31799WAT      O95638   9.614   1.001   9.715
31799WAT     H195639   9.586   1.002   9.619
31799WAT     H295640   9.648   0.910   9.739
31800WAT      O95641   0.875   8.818   8.697
31800WAT     H195642   0.879   8.852   8.791
31800WAT     H295643   0.923   8.882   8.637
31801WAT      O95644   3.329   2.873   6.874
31801WAT     H195645   3.241   2.910   6.845
31801WAT     H295646   3.402   2.912   6.817
31802WAT      O95647   2.506   6.551   3.776
31802WAT     H195648   2.571   6.508   3.713
31802WAT     H295649   2.502   6.498   3.861
31803WAT      O95650   9.871   6.633   6.743
31803WAT     H195651   9.938   6.606   6.812
31803WAT     H295652   9.803   6.694   6.783
31804WAT      O95653   9.198   7.823   1.249
31804WAT     H195654   9.150   7.784   1.171
31804WAT     H295655   9.217   7.752   1.317
31805WAT      O95656   4.081   1.666   7.592
31805WAT     H195657   3.986   1.643   7.573
31805WAT     H295658   4.086   1.761   7.624
31806WAT      O95659   1.715   4.818   9.147
31806WAT     H195660   1.633   4.854   9.101
31806WAT     H295661   1.730   4.723   9.119
31807WAT      O95662   5.966   9.070   4.850
31807WAT     H195663   5.885   9.104   4.899
31807WAT     H295664   6.003   8.991   4.899
31808WAT      O95665   1.637   5.448   8.458
31808WAT     H195666   1.723   5.443   8.408
31808WAT     H295667   1.564   5.408   8.403
31809WAT      O95668   0.622   4.094   3.503
31809WAT     H195669   0.641   4.178   3.454
31809WAT     H295670   0.707   4.054   3.536
31810WAT      O95671   2.620   6.601   4.193
31810WAT     H195672   2.549   6.602   4.263
31810WAT     H295673   2.608   6.679   4.131
31811WAT      O95674   7.066   4.514   2.705
31811WAT     H195675   7.062   4.416   2.686
31811WAT     H295676   6.979   4.544   2.744
31812WAT      O95677   1.315   2.943   0.867
31812WAT     H195678   1.407   2.925   0.902
31812WAT     H295679   1.260   2.861   0.876
31813WAT      O95680   6.154   3.145   3.966
31813WAT     H195681   6.174   3.231   3.919
31813WAT     H295682   6.200   3.144   4.055
31814WAT      O95683   8.522   1.966   8.727
31814WAT     H195684   8.615   1.956   8.691
31814WAT     H295685   8.522   1.947   8.825
31815WAT      O95686   0.517   6.260   5.201
31815WAT     H195687   0.500   6.222   5.110
31815WAT     H295688   0.501   6.189   5.270
31816WAT      O95689   2.177   0.516   1.257
31816WAT     H195690   2.201   0.591   1.196
31816WAT     H295691   2.162   0.433   1.204
31817WAT      O95692   4.684   9.152   3.540
31817WAT     H195693   4.692   9.252   3.530
31817WAT     H295694   4.611   9.119   3.480
31818WAT      O95695   6.275   8.359   4.665
31818WAT     H195696   6.347   8.313   4.717
31818WAT     H295697   6.311   8.441   4.622
31819WAT      O95698   3.054   8.475   2.551
31819WAT     H195699   2.978   8.412   2.535
31819WAT     H295700   3.020   8.569   2.554
31820WAT      O95701   6.843   8.257   4.841
31820WAT     H195702   6.795   8.187   4.787
31820WAT     H295703   6.776   8.317   4.885
31821WAT      O95704   8.349   9.093   1.165
31821WAT     H195705   8.366   9.017   1.229
31821WAT     H295706   8.417   9.089   1.091
31822WAT      O95707   0.749   0.149   5.855
31822WAT     H195708   0.683   0.077   5.835
31822WAT     H295709   0.717   0.202   5.934
31823WAT      O95710   7.962   5.654   9.422
31823WAT     H195711   7.916   5.738   9.391
31823WAT     H295712   7.940   5.580   9.359
31824WAT      O95713   6.656   2.616   5.292
31824WAT     H195714   6.651   2.658   5.201
31824WAT     H295715   6.609   2.528   5.291
31825WAT      O95716   7.835   7.359   5.469
31825WAT     H195717   7.909   7.396   5.414
31825WAT     H295718   7.870   7.286   5.528
31826WAT      O95719   1.225   8.111   4.965
31826WAT     H195720   1.146   8.051   4.974
31826WAT     H295721   1.308   8.062   4.991
31827WAT      O95722   4.035   6.950   7.224
31827WAT     H195723   4.120   6.991   7.192
31827WAT     H295724   3.997   7.005   7.299
31828WAT      O95725   5.472   3.474   2.715
31828WAT     H195726   5.460   3.534   2.794
31828WAT     H295727   5.383   3.451   2.677
31829WAT      O95728   4.424   6.759   8.292
31829WAT     H195729   4.502   6.813   8.262
31829WAT     H295730   4.382   6.802   8.372
31830WAT      O95731   2.849   1.472   8.188
31830WAT     H195732   2.767   1.530   8.191
31830WAT     H295733   2.841   1.408   8.111
31831WAT      O95734   4.201   5.237   0.149
31831WAT     H195735   4.286   5.221   0.098
31831WAT     H295736   4.193   5.168   0.221
31832WAT      O95737   1.160   7.074   8.323
31832WAT     H195738   1.126   7.031   8.406
31832WAT     H295739   1.197   7.003   8.262
31833WAT      O95740   6.858   7.349   6.463
31833WAT     H195741   6.879   7.273   6.402
31833WAT     H295742   6.913   7.428   6.438
31834WAT      O95743   4.804   6.345   0.150
31834WAT     H195744   4.889   6.302   0.119
31834WAT     H295745   4.768   6.294   0.228
31835WAT      O95746   2.549   8.025   5.000
31835WAT     H195747   2.452   8.036   5.021
31835WAT     H295748   2.582   8.104   4.949
31836WAT      O95749   4.210   4.280   7.160
31836WAT     H195750   4.234   4.351   7.094
31836WAT     H295751   4.293   4.246   7.205
31837WAT      O95752   4.305   6.237   3.828
31837WAT     H195753   4.215   6.197   3.844
31837WAT     H295754   4.296   6.336   3.817
31838WAT      O95755   0.840   0.145   0.410
31838WAT     H195756   0.759   0.199   0.430
31838WAT     H295757   0.864   0.155   0.314
31839WAT      O95758   5.709   9.220   7.170
31839WAT     H195759   5.735   9.237   7.265
31839WAT     H295760   5.730   9.300   7.114
31840WAT      O95761   1.264   0.633   0.819
31840WAT     H195762   1.283   0.545   0.776
31840WAT     H295763   1.310   0.637   0.908
31841WAT      O95764   2.633   1.219   9.351
31841WAT     H195765   2.687   1.276   9.414
31841WAT     H295766   2.685   1.137   9.328
31842WAT      O95767   6.231   0.488   2.912
31842WAT     H195768   6.227   0.542   2.828
31842WAT     H295769   6.321   0.499   2.953
31843WAT      O95770   2.747   8.167   7.784
31843WAT     H195771   2.650   8.171   7.809
31843WAT     H295772   2.767   8.239   7.718
31844WAT      O95773   1.303   1.366   3.923
31844WAT     H195774   1.242   1.291   3.948
31844WAT     H295775   1.250   1.440   3.882
31845WAT      O95776   2.131   3.477   3.448
31845WAT     H195777   2.084   3.464   3.535
31845WAT     H295778   2.193   3.555   3.454
31846WAT      O95779   5.678   7.206   6.588
31846WAT     H195780   5.651   7.289   6.539
31846WAT     H295781   5.772   7.182   6.564
31847WAT      O95782   3.463   0.084   6.482
31847WAT     H195783   3.432   0.075   6.388
31847WAT     H295784   3.392   0.129   6.536
31848WAT      O95785   3.817   5.800   0.125
31848WAT     H195786   3.727   5.813   0.083
31848WAT     H295787   3.806   5.747   0.209
31849WAT      O95788   0.736   8.431   0.584
31849WAT     H195789   0.663   8.381   0.537
31849WAT     H295790   0.748   8.520   0.541
31850WAT      O95791   4.533   2.004   4.961
31850WAT     H195792   4.456   2.067   4.954
31850WAT     H295793   4.575   2.012   5.052
31851WAT      O95794   6.142   3.429   2.343
31851WAT     H195795   6.144   3.329   2.345
31851WAT     H295796   6.048   3.460   2.351
31852WAT      O95797   4.455   0.456   2.166
31852WAT     H195798   4.437   0.467   2.068
31852WAT     H295799   4.543   0.411   2.179
31853WAT      O95800   1.728   8.618   9.727
31853WAT     H195801   1.735   8.710   9.689
31853WAT     H295802   1.814   8.594   9.772
31854WAT      O95803   1.064   0.418   4.013
31854WAT     H195804   0.967   0.402   4.028
31854WAT     H295805   1.104   0.339   3.966
31855WAT      O95806   0.247   9.286   4.576
31855WAT     H195807   0.260   9.192   4.605
31855WAT     H295808   0.209   9.339   4.651
31856WAT      O95809   7.302   1.900   1.850
31856WAT     H195810   7.358   1.894   1.933
31856WAT     H295811   7.275   1.994   1.834
31857WAT      O95812   2.503   3.987   5.468
31857WAT     H195813   2.490   3.915   5.400
31857WAT     H295814   2.459   3.959   5.554
31858WAT      O95815   3.553   6.023   6.578
31858WAT     H195816   3.453   6.027   6.568
31858WAT     H295817   3.589   6.116   6.581
31859WAT      O95818   9.023   7.923   0.342
31859WAT     H195819   8.939   7.873   0.366
31859WAT     H295820   9.043   7.908   0.245
31860WAT      O95821   4.570   4.862   9.166
31860WAT     H195822   4.552   4.957   9.140
31860WAT     H295823   4.588   4.808   9.084
31861WAT      O95824   4.792   8.461   1.313
31861WAT     H195825   4.805   8.470   1.214
31861WAT     H295826   4.752   8.372   1.334
31862WAT      O95827   1.906   8.017   8.126
31862WAT     H195828   1.969   8.068   8.185
31862WAT     H295829   1.947   8.007   8.035
31863WAT      O95830   5.694   9.352   5.396
31863WAT     H195831   5.623   9.286   5.418
31863WAT     H295832   5.783   9.307   5.395
31864WAT      O95833   0.273   5.867   8.766
31864WAT     H195834   0.202   5.818   8.715
31864WAT     H295835   0.359   5.865   8.714
31865WAT      O95836   3.302   0.870   0.416
31865WAT     H195837   3.306   0.787   0.472
31865WAT     H295838   3.383   0.876   0.359
31866WAT      O95839   7.681   5.974   3.138
31866WAT     H195840   7.716   5.884   3.163
31866WAT     H295841   7.613   5.964   3.065
31867WAT      O95842   9.567   3.599   8.255
31867WAT     H195843   9.564   3.566   8.161
31867WAT     H295844   9.567   3.520   8.317
31868WAT      O95845   1.381   5.170   3.241
31868WAT     H195846   1.456   5.187   3.177
31868WAT     H295847   1.317   5.105   3.201
31869WAT      O95848   8.364   3.980   0.617
31869WAT     H195849   8.360   3.923   0.698
31869WAT     H295850   8.332   4.072   0.639
31870WAT      O95851   5.880   3.533   2.362
31870WAT     H195852   5.871   3.546   2.263
31870WAT     H295853   5.892   3.623   2.405
31871WAT      O95854   3.491   5.985   7.422
31871WAT     H195855   3.500   6.056   7.352
31871WAT     H295856   3.403   5.938   7.411
31872WAT      O95857   0.192   7.322   1.708
31872WAT     H195858   0.097   7.301   1.730
31872WAT     H295859   0.228   7.251   1.647
31873WAT      O95860   1.066   5.551   4.543
31873WAT     H195861   1.090   5.470   4.597
31873WAT     H295862   1.052   5.628   4.605
31874WAT      O95863   5.400   3.508   3.493
31874WAT     H195864   5.494   3.517   3.460
31874WAT     H295865   5.393   3.429   3.555
31875WAT      O95866   6.715   4.533   4.531
31875WAT     H195867   6.711   4.584   4.445
31875WAT     H295868   6.627   4.489   4.548
31876WAT      O95869   2.956   3.367   4.138
31876WAT     H195870   2.876   3.424   4.160
31876WAT     H295871   2.971   3.367   4.040
31877WAT      O95872   3.392   4.315   9.776
31877WAT     H195873   3.354   4.348   9.690
31877WAT     H295874   3.487   4.286   9.762
31878WAT      O95875   2.086   4.738   0.860
31878WAT     H195876   2.016   4.670   0.843
31878WAT     H295877   2.177   4.696   0.852
31879WAT      O95878   6.881   3.089   1.603
31879WAT     H195879   6.937   3.104   1.522
31879WAT     H295880   6.786   3.116   1.584
31880WAT      O95881   0.386   9.337   2.548
31880WAT     H195882   0.411   9.365   2.641
31880WAT     H295883   0.456   9.275   2.512
31881WAT      O95884   8.523   2.894   0.040
31881WAT     H195885   8.546   2.845   0.124
31881WAT     H295886   8.538   2.992   0.053
31882WAT      O95887   2.002   7.538   2.488
31882WAT     H195888   1.915   7.497   2.463
31882WAT     H295889   2.075   7.495   2.435
31883WAT      O95890   8.988   6.569   3.197
31883WAT     H195891   9.065   6.510   3.220
31883WAT     H295892   8.905   6.534   3.240
31884WAT      O95893   0.000   7.564   5.144
31884WAT     H195894   0.056   7.510   5.081
31884WAT     H295895   0.042   7.564   5.234
31885WAT      O95896   8.463   3.695   9.736
31885WAT     H195897   8.376   3.697   9.786
31885WAT     H295898   8.539   3.702   9.801
31886WAT      O95899   3.061   3.042   9.526
31886WAT     H195900   2.966   3.064   9.548
31886WAT     H295901   3.122   3.099   9.581
31887WAT      O95902   5.351   8.878   5.406
31887WAT     H195903   5.428   8.816   5.417
31887WAT     H295904   5.269   8.836   5.446
31888WAT      O95905   5.561   8.744   8.471
31888WAT     H195906   5.512   8.680   8.530
31888WAT     H295907   5.657   8.749   8.499
31889WAT      O95908   4.105   5.705   1.992
31889WAT     H195909   4.066   5.653   2.069
31889WAT     H295910   4.193   5.664   1.966
31890WAT      O95911   9.583   2.499   9.233
31890WAT     H195912   9.659   2.523   9.293
31890WAT     H295913   9.618   2.457   9.150
31891WAT      O95914   0.454   5.110   6.825
31891WAT     H195915   0.506   5.192   6.803
31891WAT     H295916   0.513   5.030   6.816
31892WAT      O95917   8.156   5.427   1.491
31892WAT     H195918   8.212   5.478   1.558
31892WAT     H295919   8.214   5.399   1.415
31893WAT      O95920   3.887   0.024   9.144
31893WAT     H195921   3.816  -0.018   9.201
31893WAT     H295922   3.975   0.021   9.192
31894WAT      O95923   3.432   4.863   1.827
31894WAT     H195924   3.468   4.782   1.875
31894WAT     H295925   3.332   4.862   1.832
31895WAT      O95926   6.436   6.255   1.429
31895WAT     H195927   6.357   6.254   1.368
31895WAT     H295928   6.437   6.339   1.483
31896WAT      O95929   8.406   2.110   3.042
31896WAT     H195930   8.475   2.162   2.991
31896WAT     H295931   8.384   2.026   2.992
31897WAT      O95932   5.380   6.947   6.349
31897WAT     H195933   5.426   6.859   6.350
31897WAT     H295934   5.291   6.939   6.304
31898WAT      O95935   9.669   1.887   9.650
31898WAT     H195936   9.666   1.940   9.566
31898WAT     H295937   9.764   1.869   9.676
31899WAT      O95938   9.017   3.779   9.186
31899WAT     H195939   9.045   3.874   9.175
31899WAT     H295940   9.046   3.745   9.275
   9.88928    9.84380    9.89279 
